
    -----------------------------------------------------------------------
          Psi4: An Open-Source Ab Initio Electronic Structure Package
                               Psi4 1.9 release

                         Git: Rev {} zzzzzzz 


    D. G. A. Smith, L. A. Burns, A. C. Simmonett, R. M. Parrish,
    M. C. Schieber, R. Galvelis, P. Kraus, H. Kruse, R. Di Remigio,
    A. Alenaizan, A. M. James, S. Lehtola, J. P. Misiewicz, M. Scheurer,
    R. A. Shaw, J. B. Schriber, Y. Xie, Z. L. Glick, D. A. Sirianni,
    J. S. O'Brien, J. M. Waldrop, A. Kumar, E. G. Hohenstein,
    B. P. Pritchard, B. R. Brooks, H. F. Schaefer III, A. Yu. Sokolov,
    K. Patkowski, A. E. DePrince III, U. Bozkaya, R. A. King,
    F. A. Evangelista, J. M. Turney, T. D. Crawford, C. D. Sherrill,
    J. Chem. Phys. 152(18) 184108 (2020). https://doi.org/10.1063/5.0006002

                            Additional Code Authors
    E. T. Seidl, C. L. Janssen, E. F. Valeev, M. L. Leininger,
    J. F. Gonthier, R. M. Richard, H. R. McAlexander, M. Saitow, X. Wang,
    P. Verma, M. H. Lechner, A. Jiang, S. Behnle, A. G. Heide,
    M. F. Herbst, and D. L. Poole

             Previous Authors, Complete List of Code Contributors,
                       and Citations for Specific Modules
    https://github.com/psi4/psi4/blob/master/codemeta.json
    https://github.com/psi4/psi4/graphs/contributors
    http://psicode.org/psi4manual/master/introduction.html#citing-psifour

    -----------------------------------------------------------------------


    Psi4 started on: Thursday, 28 December 2023 04:21PM

    Process ID: 81550
    Host:       moses-razer
    PSIDATADIR: /home/kchung25/anaconda3/envs/psi4_19/share/psi4
    Memory:     500.0 MiB
    Threads:    6
    
  ==> Input File <==

--------------------------------------------------------------------------
MEMORY 60 GB

molecule dimer {
1 1
Li     0.000000     0.000000     0.000000
--
-1 1
Cl     2.841716     0.000000     0.000000

units ang
no_reorient
no_com
symmetry c1
}

set {
basis        aug-cc-pVTZ
scf_type     df
}

energy("mp2", bsse_type="cp")
--------------------------------------------------------------------------

  Memory set to  55.879 GiB by Python driver.

Scratch directory: /scratch/

  //>>>>>>>>>>>>>>>>>>>>>>>>>>>>>>>>>>>>>//
  // ManyBody Setup: N-Body Levels [1, 2]//
  //<<<<<<<<<<<<<<<<<<<<<<<<<<<<<<<<<<<<<//

        Number of 1-body computations:     2
        Number of 2-body computations:     1

    -----------------------------------------------------------------------
          Psi4: An Open-Source Ab Initio Electronic Structure Package
                               Psi4 1.9 release

                         Git: Rev {} zzzzzzz 


    D. G. A. Smith, L. A. Burns, A. C. Simmonett, R. M. Parrish,
    M. C. Schieber, R. Galvelis, P. Kraus, H. Kruse, R. Di Remigio,
    A. Alenaizan, A. M. James, S. Lehtola, J. P. Misiewicz, M. Scheurer,
    R. A. Shaw, J. B. Schriber, Y. Xie, Z. L. Glick, D. A. Sirianni,
    J. S. O'Brien, J. M. Waldrop, A. Kumar, E. G. Hohenstein,
    B. P. Pritchard, B. R. Brooks, H. F. Schaefer III, A. Yu. Sokolov,
    K. Patkowski, A. E. DePrince III, U. Bozkaya, R. A. King,
    F. A. Evangelista, J. M. Turney, T. D. Crawford, C. D. Sherrill,
    J. Chem. Phys. 152(18) 184108 (2020). https://doi.org/10.1063/5.0006002

                            Additional Code Authors
    E. T. Seidl, C. L. Janssen, E. F. Valeev, M. L. Leininger,
    J. F. Gonthier, R. M. Richard, H. R. McAlexander, M. Saitow, X. Wang,
    P. Verma, M. H. Lechner, A. Jiang, S. Behnle, A. G. Heide,
    M. F. Herbst, and D. L. Poole

             Previous Authors, Complete List of Code Contributors,
                       and Citations for Specific Modules
    https://github.com/psi4/psi4/blob/master/codemeta.json
    https://github.com/psi4/psi4/graphs/contributors
    http://psicode.org/psi4manual/master/introduction.html#citing-psifour

    -----------------------------------------------------------------------


    Psi4 started on: Thursday, 28 December 2023 04:21PM

    Process ID: 81550
    Host:       moses-razer
    PSIDATADIR: /home/kchung25/anaconda3/envs/psi4_19/share/psi4
    Memory:     55.9 GiB
    Threads:    6
    
  ==> Input QCSchema <==

--------------------------------------------------------------------------
{'driver': 'energy',
 'extras': {'psiapi': True, 'wfn_qcvars_only': True},
 'id': None,
 'keywords': {'SCF_TYPE': 'DF', 'function_kwargs': {}},
 'model': {'basis': 'aug-cc-pvtz', 'method': 'mp2'},
 'molecule': {'atom_labels': ['', ''],
              'atomic_numbers': [3, 17],
              'extras': {},
              'fix_com': True,
              'fix_orientation': True,
              'fix_symmetry': 'c1',
              'fragment_charges': [0.0, -1.0],
              'fragment_multiplicities': [1, 1],
              'fragments': [[0], [1]],
              'geometry': [0.0, 0.0, 0.0, 5.370064966331517, 0.0, 0.0],
              'mass_numbers': [7, 35],
              'masses': [7.0160034366, 34.968852682],
              'molecular_charge': -1.0,
              'molecular_multiplicity': 1,
              'name': 'dimer',
              'provenance': {'creator': 'QCElemental',
                             'routine': 'qcelemental.molparse.from_string',
                             'version': '0.27.1'},
              'real': [False, True],
              'schema_name': 'qcschema_molecule',
              'schema_version': 2,
              'symbols': ['Li', 'Cl'],
              'validated': True},
 'protocols': {'stdout': True},
 'provenance': {'creator': 'QCElemental', 'routine': 'qcelemental.models.results', 'version': '0.27.1'},
 'schema_name': 'qcschema_input',
 'schema_version': 1}
--------------------------------------------------------------------------

Scratch directory: /scratch/
   => Libint2 <=

    Primary   basis highest AM E, G, H:  5, 4, 3
    Auxiliary basis highest AM E, G, H:  6, 5, 4
    Onebody   basis highest AM E, G, H:  6, 5, 4
    Solid Harmonics ordering:            gaussian

*** tstart() called on moses-razer
*** at Thu Dec 28 16:21:03 2023

   => Loading Basis Set <=

    Name: AUG-CC-PVTZ
    Role: ORBITAL
    Keyword: BASIS
    atoms 1 entry LI         line    85 file /home/kchung25/anaconda3/envs/p415env/share/psi4/basis/aug-cc-pvtz.gbs 
    atoms 2 entry CL         line   988 file /home/kchung25/anaconda3/envs/p415env/share/psi4/basis/aug-cc-pvtz.gbs 


         ---------------------------------------------------------
                                   SCF
               by Justin Turney, Rob Parrish, Andy Simmonett
                          and Daniel G. A. Smith
                              RHF Reference
                        6 Threads,  57220 MiB Core
         ---------------------------------------------------------

  ==> Geometry <==

    Molecular point group: c1
    Full point group: C_inf_v

    Geometry (in Bohr), charge = -1, multiplicity = 1:

       Center              X                  Y                   Z               Mass       
    ------------   -----------------  -----------------  -----------------  -----------------
      Gh(LI)          0.000000000000     0.000000000000     0.000000000000     7.016003436600
         CL           5.370064966332     0.000000000000     0.000000000000    34.968852682000

  Running in c1 symmetry.

  Rotational constants: A = ************  B =      0.05970  C =      0.05970 [cm^-1]
  Rotational constants: A = ************  B =   1789.67623  C =   1789.67623 [MHz]
  Nuclear repulsion =    0.000000000000000

  Charge       = -1
  Multiplicity = 1
  Electrons    = 18
  Nalpha       = 9
  Nbeta        = 9

  ==> Algorithm <==

  SCF Algorithm Type is DF.
  DIIS enabled.
  MOM disabled.
  Fractional occupation disabled.
  Guess Type is SAD.
  Energy threshold   = 1.00e-08
  Density threshold  = 1.00e-08
  Integral threshold = 1.00e-12

  ==> Primary Basis <==

  Basis Set: AUG-CC-PVTZ
    Blend: AUG-CC-PVTZ
    Number of shells: 30
    Number of basis functions: 96
    Number of Cartesian functions: 114
    Spherical Harmonics?: true
    Max angular momentum: 3

   => Loading Basis Set <=

    Name: (AUG-CC-PVTZ AUX)
    Role: JKFIT
    Keyword: DF_BASIS_SCF
    atoms 1 entry LI         line    54 file /home/kchung25/anaconda3/envs/p415env/share/psi4/basis/def2-universal-jkfit.gbs 
    atoms 2 entry CL         line   816 file /home/kchung25/anaconda3/envs/p415env/share/psi4/basis/aug-cc-pvtz-jkfit.gbs 

  ==> Integral Setup <==

  DFHelper Memory: AOs need 0.016 GiB; user supplied 41.910 GiB. 
  Using in-core AOs.

  ==> MemDFJK: Density-Fitted J/K Matrices <==

    J tasked:                   Yes
    K tasked:                   Yes
    wK tasked:                   No
    OpenMP threads:               6
    Memory [MiB]:             42915
    Algorithm:                 Core
    Schwarz Cutoff:           1E-12
    Mask sparsity (%):       0.0000
    Fitting Condition:        1E-10

   => Auxiliary Basis Set <=

  Basis Set: (AUG-CC-PVTZ AUX)
    Blend: AUG-CC-PVTZ-JKFIT + DEF2-UNIVERSAL-JKFIT
    Number of shells: 59
    Number of basis functions: 197
    Number of Cartesian functions: 240
    Spherical Harmonics?: true
    Max angular momentum: 4

  Minimum eigenvalue in the overlap matrix is 9.8807520357E-04.
  Reciprocal condition number of the overlap matrix is 1.9380176244E-04.
    Using symmetric orthogonalization.

  ==> Pre-Iterations <==

  SCF Guess: Superposition of Atomic Densities via on-the-fly atomic UHF (no occupation information).

   -------------------------
    Irrep   Nso     Nmo    
   -------------------------
     A         96      96 
   -------------------------
    Total      96      96
   -------------------------

  ==> Iterations <==

                           Total Energy        Delta E     RMS |[F,P]|

   @DF-RHF iter SAD:  -459.11248995996056   -4.59112e+02   0.00000e+00 
   @DF-RHF iter   1:  -459.51386304083172   -4.01373e-01   3.10659e-03 ADIIS/DIIS
   @DF-RHF iter   2:  -459.56473845813736   -5.08754e-02   1.58823e-03 ADIIS/DIIS
   @DF-RHF iter   3:  -459.57344271591313   -8.70426e-03   1.01471e-04 ADIIS/DIIS
   @DF-RHF iter   4:  -459.57349515676782   -5.24409e-05   2.15089e-05 DIIS
   @DF-RHF iter   5:  -459.57349883007925   -3.67331e-06   2.21106e-06 DIIS
   @DF-RHF iter   6:  -459.57349890795524   -7.78760e-08   1.58309e-07 DIIS
   @DF-RHF iter   7:  -459.57349890850224   -5.47004e-10   2.03902e-08 DIIS
   @DF-RHF iter   8:  -459.57349890851793   -1.56888e-11   3.28227e-09 DIIS
  Energy and wave function converged.


  ==> Post-Iterations <==

    Orbital Energies [Eh]
    ---------------------

    Doubly Occupied:                                                      

       1A   -104.506256     2A    -10.229813     3A     -7.695858  
       4A     -7.695858     5A     -7.695842     6A     -0.733502  
       7A     -0.150342     8A     -0.150324     9A     -0.150324  

    Virtual:                                                              

      10A      0.081256    11A      0.093021    12A      0.093021  
      13A      0.106894    14A      0.157841    15A      0.172466  
      16A      0.172466    17A      0.203616    18A      0.236210  
      19A      0.236210    20A      0.246183    21A      0.259016  
      22A      0.259016    23A      0.282468    24A      0.308594  
      25A      0.308594    26A      0.347574    27A      0.350602  
      28A      0.350602    29A      0.387885    30A      0.439521  
      31A      0.439521    32A      0.444403    33A      0.444403  
      34A      0.484934    35A      0.490291    36A      0.490291  
      37A      0.497802    38A      0.497802    39A      0.506814  
      40A      0.532069    41A      0.532069    42A      0.610420  
      43A      0.647016    44A      0.647016    45A      0.670311  
      46A      0.727511    47A      0.727511    48A      0.857623  
      49A      0.965124    50A      0.965124    51A      0.970243  
      52A      0.970243    53A      0.973363    54A      0.973363  
      55A      0.998146    56A      0.998146    57A      1.022587  
      58A      1.022587    59A      1.049794    60A      1.110414  
      61A      1.110414    62A      1.117503    63A      1.117503  
      64A      1.133539    65A      1.234785    66A      1.253639  
      67A      1.253639    68A      1.338254    69A      1.346095  
      70A      1.346095    71A      1.445239    72A      1.472023  
      73A      1.472023    74A      1.527106    75A      1.527106  
      76A      1.663655    77A      1.695767    78A      1.695767  
      79A      1.944592    80A      2.854845    81A      2.854845  
      82A      2.916856    83A      2.916856    84A      2.928086  
      85A      3.057970    86A      3.057970    87A      3.191566  
      88A      3.376128    89A      3.376128    90A      3.407073  
      91A      3.407073    92A      3.501768    93A      3.501768  
      94A      3.553281    95A      5.831103    96A     10.594856  

    Final Occupation by Irrep:
              A 
    DOCC [     9 ]
    NA   [     9 ]
    NB   [     9 ]

  @DF-RHF Final Energy:  -459.57349890851793

   => Energetics <=

    Nuclear Repulsion Energy =              0.0000000000000000
    One-Electron Energy =                -641.1307593334004196
    Two-Electron Energy =                 181.5572604248825144
    Total Energy =                       -459.5734989085178768

Computation Completed


Properties will be evaluated at   0.000000,   0.000000,   0.000000 [a0]

Properties computed using the SCF density matrix


 Multipole Moments:

 ------------------------------------------------------------------------------------
     Multipole            Electronic (a.u.)      Nuclear  (a.u.)        Total (a.u.)
 ------------------------------------------------------------------------------------

 L = 1.  Multiply by 2.5417464519 to convert [e a0] to [Debye]
 Dipole X            :        -96.6611173           91.2911044           -5.3700129
 Dipole Y            :         -0.0000000            0.0000000           -0.0000000
 Dipole Z            :          0.0000000            0.0000000            0.0000000
 Magnitude           :                                                    5.3700129

 ------------------------------------------------------------------------------------

*** tstop() called on moses-razer at Thu Dec 28 16:21:03 2023
Module time:
	user time   =       4.52 seconds =       0.08 minutes
	system time =       0.38 seconds =       0.01 minutes
	total time  =          0 seconds =       0.00 minutes
Total time:
	user time   =       4.52 seconds =       0.08 minutes
	system time =       0.38 seconds =       0.01 minutes
	total time  =          0 seconds =       0.00 minutes

*** tstart() called on moses-razer
*** at Thu Dec 28 16:21:03 2023


  //>>>>>>>>>>>>>>>>>>>>>>>>>>>>>>>>>>>//
  //               DFMP2               //
  //<<<<<<<<<<<<<<<<<<<<<<<<<<<<<<<<<<<//

   => Loading Basis Set <=

    Name: (AUG-CC-PVTZ AUX)
    Role: RIFIT
    Keyword: DF_BASIS_MP2
    atoms 1 entry LI         line    90 file /home/kchung25/anaconda3/envs/p415env/share/psi4/basis/def2-qzvpp-ri.gbs 
    atoms 2 entry CL         line   742 file /home/kchung25/anaconda3/envs/p415env/share/psi4/basis/aug-cc-pvtz-ri.gbs 

	 --------------------------------------------------------
	                          DF-MP2                         
	      2nd-Order Density-Fitted Moller-Plesset Theory     
	              RMP2 Wavefunction,   6 Threads             
	                                                         
	        Rob Parrish, Justin Turney, Andy Simmonett,      
	           Ed Hohenstein, and C. David Sherrill          
	 --------------------------------------------------------

   => Auxiliary Basis Set <=

  Basis Set: (AUG-CC-PVTZ AUX)
    Blend: AUG-CC-PVTZ-RI + DEF2-QZVPP-RI
    Number of shells: 64
    Number of basis functions: 248
    Number of Cartesian functions: 321
    Spherical Harmonics?: true
    Max angular momentum: 4

	 --------------------------------------------------------
	                 NBF =    96, NAUX =   248
	 --------------------------------------------------------
	   CLASS    FOCC     OCC    AOCC    AVIR     VIR    FVIR
	   PAIRS       0       9       9      87      87       0
	 --------------------------------------------------------

	-----------------------------------------------------------
	 ==================> DF-MP2 Energies <==================== 
	-----------------------------------------------------------
	 Reference Energy          =    -459.5734989085179336 [Eh]
	 Singles Energy            =      -0.0000000000000000 [Eh]
	 Same-Spin Energy          =      -0.0625183932042988 [Eh]
	 Opposite-Spin Energy      =      -0.1795182694882165 [Eh]
	 Correlation Energy        =      -0.2420366626925153 [Eh]
	 Total Energy              =    -459.8155355712104324 [Eh]
	-----------------------------------------------------------
	 ================> DF-SCS-MP2 Energies <================== 
	-----------------------------------------------------------
	 SCS Same-Spin Scale       =       0.3333333333333333 [-]
	 SCS Opposite-Spin Scale   =       1.2000000000000000 [-]
	 SCS Same-Spin Energy      =      -0.0208394644014329 [Eh]
	 SCS Opposite-Spin Energy  =      -0.2154219233858598 [Eh]
	 SCS Correlation Energy    =      -0.2362613877872927 [Eh]
	 SCS Total Energy          =    -459.8097602963052282 [Eh]
	-----------------------------------------------------------


*** tstop() called on moses-razer at Thu Dec 28 16:21:04 2023
Module time:
	user time   =       1.71 seconds =       0.03 minutes
	system time =       0.12 seconds =       0.00 minutes
	total time  =          1 seconds =       0.02 minutes
Total time:
	user time   =       6.23 seconds =       0.10 minutes
	system time =       0.50 seconds =       0.01 minutes
	total time  =          1 seconds =       0.02 minutes

    Psi4 stopped on: Thursday, 28 December 2023 04:21PM
    Psi4 wall time for execution: 0:00:01.37


    -----------------------------------------------------------------------
          Psi4: An Open-Source Ab Initio Electronic Structure Package
                               Psi4 1.9 release

                         Git: Rev {} zzzzzzz 


    D. G. A. Smith, L. A. Burns, A. C. Simmonett, R. M. Parrish,
    M. C. Schieber, R. Galvelis, P. Kraus, H. Kruse, R. Di Remigio,
    A. Alenaizan, A. M. James, S. Lehtola, J. P. Misiewicz, M. Scheurer,
    R. A. Shaw, J. B. Schriber, Y. Xie, Z. L. Glick, D. A. Sirianni,
    J. S. O'Brien, J. M. Waldrop, A. Kumar, E. G. Hohenstein,
    B. P. Pritchard, B. R. Brooks, H. F. Schaefer III, A. Yu. Sokolov,
    K. Patkowski, A. E. DePrince III, U. Bozkaya, R. A. King,
    F. A. Evangelista, J. M. Turney, T. D. Crawford, C. D. Sherrill,
    J. Chem. Phys. 152(18) 184108 (2020). https://doi.org/10.1063/5.0006002

                            Additional Code Authors
    E. T. Seidl, C. L. Janssen, E. F. Valeev, M. L. Leininger,
    J. F. Gonthier, R. M. Richard, H. R. McAlexander, M. Saitow, X. Wang,
    P. Verma, M. H. Lechner, A. Jiang, S. Behnle, A. G. Heide,
    M. F. Herbst, and D. L. Poole

             Previous Authors, Complete List of Code Contributors,
                       and Citations for Specific Modules
    https://github.com/psi4/psi4/blob/master/codemeta.json
    https://github.com/psi4/psi4/graphs/contributors
    http://psicode.org/psi4manual/master/introduction.html#citing-psifour

    -----------------------------------------------------------------------


    Psi4 started on: Thursday, 28 December 2023 04:21PM

    Process ID: 81550
    Host:       moses-razer
    PSIDATADIR: /home/kchung25/anaconda3/envs/psi4_19/share/psi4
    Memory:     55.9 GiB
    Threads:    6
    
  ==> Input QCSchema <==

--------------------------------------------------------------------------
{'driver': 'energy',
 'extras': {'psiapi': True, 'wfn_qcvars_only': True},
 'id': None,
 'keywords': {'SCF_TYPE': 'DF', 'function_kwargs': {}},
 'model': {'basis': 'aug-cc-pvtz', 'method': 'mp2'},
 'molecule': {'atom_labels': ['', ''],
              'atomic_numbers': [3, 17],
              'extras': {},
              'fix_com': True,
              'fix_orientation': True,
              'fix_symmetry': 'c1',
              'fragment_charges': [1.0, 0.0],
              'fragment_multiplicities': [1, 1],
              'fragments': [[0], [1]],
              'geometry': [0.0, 0.0, 0.0, 5.370064966331517, 0.0, 0.0],
              'mass_numbers': [7, 35],
              'masses': [7.0160034366, 34.968852682],
              'molecular_charge': 1.0,
              'molecular_multiplicity': 1,
              'name': 'dimer',
              'provenance': {'creator': 'QCElemental',
                             'routine': 'qcelemental.molparse.from_string',
                             'version': '0.27.1'},
              'real': [True, False],
              'schema_name': 'qcschema_molecule',
              'schema_version': 2,
              'symbols': ['Li', 'Cl'],
              'validated': True},
 'protocols': {'stdout': True},
 'provenance': {'creator': 'QCElemental', 'routine': 'qcelemental.models.results', 'version': '0.27.1'},
 'schema_name': 'qcschema_input',
 'schema_version': 1}
--------------------------------------------------------------------------

Scratch directory: /scratch/
   => Libint2 <=

    Primary   basis highest AM E, G, H:  5, 4, 3
    Auxiliary basis highest AM E, G, H:  6, 5, 4
    Onebody   basis highest AM E, G, H:  6, 5, 4
    Solid Harmonics ordering:            gaussian

*** tstart() called on moses-razer
*** at Thu Dec 28 16:21:04 2023

   => Loading Basis Set <=

    Name: AUG-CC-PVTZ
    Role: ORBITAL
    Keyword: BASIS
    atoms 1 entry LI         line    85 file /home/kchung25/anaconda3/envs/p415env/share/psi4/basis/aug-cc-pvtz.gbs 
    atoms 2 entry CL         line   988 file /home/kchung25/anaconda3/envs/p415env/share/psi4/basis/aug-cc-pvtz.gbs 


         ---------------------------------------------------------
                                   SCF
               by Justin Turney, Rob Parrish, Andy Simmonett
                          and Daniel G. A. Smith
                              RHF Reference
                        6 Threads,  57220 MiB Core
         ---------------------------------------------------------

  ==> Geometry <==

    Molecular point group: c1
    Full point group: C_inf_v

    Geometry (in Bohr), charge = 1, multiplicity = 1:

       Center              X                  Y                   Z               Mass       
    ------------   -----------------  -----------------  -----------------  -----------------
         LI           0.000000000000     0.000000000000     0.000000000000     7.016003436600
      Gh(CL)          5.370064966332     0.000000000000     0.000000000000    34.968852682000

  Running in c1 symmetry.

  Rotational constants: A = ************  B =      0.05970  C =      0.05970 [cm^-1]
  Rotational constants: A = ************  B =   1789.67623  C =   1789.67623 [MHz]
  Nuclear repulsion =    0.000000000000000

  Charge       = 1
  Multiplicity = 1
  Electrons    = 2
  Nalpha       = 1
  Nbeta        = 1

  ==> Algorithm <==

  SCF Algorithm Type is DF.
  DIIS enabled.
  MOM disabled.
  Fractional occupation disabled.
  Guess Type is SAD.
  Energy threshold   = 1.00e-08
  Density threshold  = 1.00e-08
  Integral threshold = 1.00e-12

  ==> Primary Basis <==

  Basis Set: AUG-CC-PVTZ
    Blend: AUG-CC-PVTZ
    Number of shells: 30
    Number of basis functions: 96
    Number of Cartesian functions: 114
    Spherical Harmonics?: true
    Max angular momentum: 3

   => Loading Basis Set <=

    Name: (AUG-CC-PVTZ AUX)
    Role: JKFIT
    Keyword: DF_BASIS_SCF
    atoms 1 entry LI         line    54 file /home/kchung25/anaconda3/envs/p415env/share/psi4/basis/def2-universal-jkfit.gbs 
    atoms 2 entry CL         line   816 file /home/kchung25/anaconda3/envs/p415env/share/psi4/basis/aug-cc-pvtz-jkfit.gbs 

  ==> Integral Setup <==

  DFHelper Memory: AOs need 0.016 GiB; user supplied 41.910 GiB. 
  Using in-core AOs.

  ==> MemDFJK: Density-Fitted J/K Matrices <==

    J tasked:                   Yes
    K tasked:                   Yes
    wK tasked:                   No
    OpenMP threads:               6
    Memory [MiB]:             42915
    Algorithm:                 Core
    Schwarz Cutoff:           1E-12
    Mask sparsity (%):       0.0000
    Fitting Condition:        1E-10

   => Auxiliary Basis Set <=

  Basis Set: (AUG-CC-PVTZ AUX)
    Blend: AUG-CC-PVTZ-JKFIT + DEF2-UNIVERSAL-JKFIT
    Number of shells: 59
    Number of basis functions: 197
    Number of Cartesian functions: 240
    Spherical Harmonics?: true
    Max angular momentum: 4

  Minimum eigenvalue in the overlap matrix is 9.8807520357E-04.
  Reciprocal condition number of the overlap matrix is 1.9380176244E-04.
    Using symmetric orthogonalization.

  ==> Pre-Iterations <==

  SCF Guess: Superposition of Atomic Densities via on-the-fly atomic UHF (no occupation information).

   -------------------------
    Irrep   Nso     Nmo    
   -------------------------
     A         96      96 
   -------------------------
    Total      96      96
   -------------------------

  ==> Iterations <==

                           Total Energy        Delta E     RMS |[F,P]|

   @DF-RHF iter SAD:    -7.31453674929584   -7.31454e+00   0.00000e+00 
   @DF-RHF iter   1:    -7.23638091603261    7.81558e-02   2.37845e-05 DIIS
   @DF-RHF iter   2:    -7.23638279028146   -1.87425e-06   2.61797e-06 DIIS
   @DF-RHF iter   3:    -7.23638281686861   -2.65871e-08   1.14932e-07 DIIS
   @DF-RHF iter   4:    -7.23638281691091   -4.23039e-11   1.05038e-09 DIIS
  Energy and wave function converged.


  ==> Post-Iterations <==

    Orbital Energies [Eh]
    ---------------------

    Doubly Occupied:                                                      

       1A     -2.792366  

    Virtual:                                                              

       2A     -0.196296     3A     -0.128598     4A     -0.128594  
       5A     -0.128594     6A     -0.073618     7A     -0.056362  
       8A     -0.056336     9A     -0.056336    10A     -0.038228  
      11A     -0.033866    12A     -0.033866    13A     -0.031257  
      14A     -0.031257    15A     -0.007600    16A     -0.003319  
      17A     -0.003319    18A     -0.001372    19A      0.028290  
      20A      0.028290    21A      0.033047    22A      0.077151  
      23A      0.127093    24A      0.127093    25A      0.127821  
      26A      0.127821    27A      0.130915    28A      0.130915  
      29A      0.135844    30A      0.135844    31A      0.154095  
      32A      0.177826    33A      0.181223    34A      0.181223  
      35A      0.244525    36A      0.244525    37A      0.259235  
      38A      0.307557    39A      0.307557    40A      0.338302  
      41A      0.338302    42A      0.340223    43A      0.383187  
      44A      0.456795    45A      0.456795    46A      0.492143  
      47A      0.533716    48A      0.533716    49A      0.533972  
      50A      0.533972    51A      0.572250    52A      0.572250  
      53A      0.578619    54A      0.578619    55A      0.588110  
      56A      0.594589    57A      0.594589    58A      0.657100  
      59A      1.129484    60A      1.129484    61A      1.167058  
      62A      1.167058    63A      1.167554    64A      1.167554  
      65A      1.198502    66A      1.304357    67A      1.304357  
      68A      1.316830    69A      1.337763    70A      1.337763  
      71A      1.418248    72A      1.453400    73A      1.453400  
      74A      1.506986    75A      2.822906    76A      3.747886  
      77A      3.747886    78A      3.772891    79A      3.772891  
      80A      3.786335    81A      3.786335    82A      3.802212  
      83A      3.877352    84A      3.877352    85A      3.959960  
      86A      4.061669    87A      4.502747    88A      4.502747  
      89A      4.569016    90A      4.569016    91A      4.578950  
      92A     13.916580    93A     27.589373    94A     27.589373  
      95A     27.755993    96A    160.598261  

    Final Occupation by Irrep:
              A 
    DOCC [     1 ]
    NA   [     1 ]
    NB   [     1 ]

  @DF-RHF Final Energy:    -7.23638281691091

   => Energetics <=

    Nuclear Repulsion Energy =              0.0000000000000000
    One-Electron Energy =                  -8.8880332707886112
    Two-Electron Energy =                   1.6516504538777010
    Total Energy =                         -7.2363828169109103

Computation Completed


Properties will be evaluated at   0.000000,   0.000000,   0.000000 [a0]

Properties computed using the SCF density matrix


 Multipole Moments:

 ------------------------------------------------------------------------------------
     Multipole            Electronic (a.u.)      Nuclear  (a.u.)        Total (a.u.)
 ------------------------------------------------------------------------------------

 L = 1.  Multiply by 2.5417464519 to convert [e a0] to [Debye]
 Dipole X            :          0.0000740            0.0000000            0.0000740
 Dipole Y            :         -0.0000000            0.0000000           -0.0000000
 Dipole Z            :          0.0000000            0.0000000            0.0000000
 Magnitude           :                                                    0.0000740

 ------------------------------------------------------------------------------------

*** tstop() called on moses-razer at Thu Dec 28 16:21:05 2023
Module time:
	user time   =       3.23 seconds =       0.05 minutes
	system time =       0.25 seconds =       0.00 minutes
	total time  =          1 seconds =       0.02 minutes
Total time:
	user time   =       9.77 seconds =       0.16 minutes
	system time =       0.76 seconds =       0.01 minutes
	total time  =          2 seconds =       0.03 minutes

*** tstart() called on moses-razer
*** at Thu Dec 28 16:21:05 2023


  //>>>>>>>>>>>>>>>>>>>>>>>>>>>>>>>>>>>//
  //               DFMP2               //
  //<<<<<<<<<<<<<<<<<<<<<<<<<<<<<<<<<<<//

   => Loading Basis Set <=

    Name: (AUG-CC-PVTZ AUX)
    Role: RIFIT
    Keyword: DF_BASIS_MP2
    atoms 1 entry LI         line    90 file /home/kchung25/anaconda3/envs/p415env/share/psi4/basis/def2-qzvpp-ri.gbs 
    atoms 2 entry CL         line   742 file /home/kchung25/anaconda3/envs/p415env/share/psi4/basis/aug-cc-pvtz-ri.gbs 

	 --------------------------------------------------------
	                          DF-MP2                         
	      2nd-Order Density-Fitted Moller-Plesset Theory     
	              RMP2 Wavefunction,   6 Threads             
	                                                         
	        Rob Parrish, Justin Turney, Andy Simmonett,      
	           Ed Hohenstein, and C. David Sherrill          
	 --------------------------------------------------------

   => Auxiliary Basis Set <=

  Basis Set: (AUG-CC-PVTZ AUX)
    Blend: AUG-CC-PVTZ-RI + DEF2-QZVPP-RI
    Number of shells: 64
    Number of basis functions: 248
    Number of Cartesian functions: 321
    Spherical Harmonics?: true
    Max angular momentum: 4

	 --------------------------------------------------------
	                 NBF =    96, NAUX =   248
	 --------------------------------------------------------
	   CLASS    FOCC     OCC    AOCC    AVIR     VIR    FVIR
	   PAIRS       0       1       1      95      95       0
	 --------------------------------------------------------

	-----------------------------------------------------------
	 ==================> DF-MP2 Energies <==================== 
	-----------------------------------------------------------
	 Reference Energy          =      -7.2363828169109095 [Eh]
	 Singles Energy            =      -0.0000000000000000 [Eh]
	 Same-Spin Energy          =      -0.0000000000000000 [Eh]
	 Opposite-Spin Energy      =      -0.0113903457836726 [Eh]
	 Correlation Energy        =      -0.0113903457836726 [Eh]
	 Total Energy              =      -7.2477731626945818 [Eh]
	-----------------------------------------------------------
	 ================> DF-SCS-MP2 Energies <================== 
	-----------------------------------------------------------
	 SCS Same-Spin Scale       =       0.3333333333333333 [-]
	 SCS Opposite-Spin Scale   =       1.2000000000000000 [-]
	 SCS Same-Spin Energy      =      -0.0000000000000000 [Eh]
	 SCS Opposite-Spin Energy  =      -0.0136684149404072 [Eh]
	 SCS Correlation Energy    =      -0.0136684149404072 [Eh]
	 SCS Total Energy          =      -7.2500512318513168 [Eh]
	-----------------------------------------------------------


*** tstop() called on moses-razer at Thu Dec 28 16:21:05 2023
Module time:
	user time   =       1.48 seconds =       0.02 minutes
	system time =       0.12 seconds =       0.00 minutes
	total time  =          0 seconds =       0.00 minutes
Total time:
	user time   =      11.26 seconds =       0.19 minutes
	system time =       0.88 seconds =       0.01 minutes
	total time  =          2 seconds =       0.03 minutes

    Psi4 stopped on: Thursday, 28 December 2023 04:21PM
    Psi4 wall time for execution: 0:00:01.09


    -----------------------------------------------------------------------
          Psi4: An Open-Source Ab Initio Electronic Structure Package
                               Psi4 1.9 release

                         Git: Rev {} zzzzzzz 


    D. G. A. Smith, L. A. Burns, A. C. Simmonett, R. M. Parrish,
    M. C. Schieber, R. Galvelis, P. Kraus, H. Kruse, R. Di Remigio,
    A. Alenaizan, A. M. James, S. Lehtola, J. P. Misiewicz, M. Scheurer,
    R. A. Shaw, J. B. Schriber, Y. Xie, Z. L. Glick, D. A. Sirianni,
    J. S. O'Brien, J. M. Waldrop, A. Kumar, E. G. Hohenstein,
    B. P. Pritchard, B. R. Brooks, H. F. Schaefer III, A. Yu. Sokolov,
    K. Patkowski, A. E. DePrince III, U. Bozkaya, R. A. King,
    F. A. Evangelista, J. M. Turney, T. D. Crawford, C. D. Sherrill,
    J. Chem. Phys. 152(18) 184108 (2020). https://doi.org/10.1063/5.0006002

                            Additional Code Authors
    E. T. Seidl, C. L. Janssen, E. F. Valeev, M. L. Leininger,
    J. F. Gonthier, R. M. Richard, H. R. McAlexander, M. Saitow, X. Wang,
    P. Verma, M. H. Lechner, A. Jiang, S. Behnle, A. G. Heide,
    M. F. Herbst, and D. L. Poole

             Previous Authors, Complete List of Code Contributors,
                       and Citations for Specific Modules
    https://github.com/psi4/psi4/blob/master/codemeta.json
    https://github.com/psi4/psi4/graphs/contributors
    http://psicode.org/psi4manual/master/introduction.html#citing-psifour

    -----------------------------------------------------------------------


    Psi4 started on: Thursday, 28 December 2023 04:21PM

    Process ID: 81550
    Host:       moses-razer
    PSIDATADIR: /home/kchung25/anaconda3/envs/psi4_19/share/psi4
    Memory:     55.9 GiB
    Threads:    6
    
  ==> Input QCSchema <==

--------------------------------------------------------------------------
{'driver': 'energy',
 'extras': {'psiapi': True, 'wfn_qcvars_only': True},
 'id': None,
 'keywords': {'SCF_TYPE': 'DF', 'function_kwargs': {}},
 'model': {'basis': 'aug-cc-pvtz', 'method': 'mp2'},
 'molecule': {'atom_labels': ['', ''],
              'atomic_numbers': [3, 17],
              'extras': {},
              'fix_com': True,
              'fix_orientation': True,
              'fix_symmetry': 'c1',
              'fragment_charges': [1.0, -1.0],
              'fragment_multiplicities': [1, 1],
              'fragments': [[0], [1]],
              'geometry': [0.0, 0.0, 0.0, 5.370064966331517, 0.0, 0.0],
              'mass_numbers': [7, 35],
              'masses': [7.0160034366, 34.968852682],
              'molecular_charge': 0.0,
              'molecular_multiplicity': 1,
              'name': 'dimer',
              'provenance': {'creator': 'QCElemental',
                             'routine': 'qcelemental.molparse.from_string',
                             'version': '0.27.1'},
              'real': [True, True],
              'schema_name': 'qcschema_molecule',
              'schema_version': 2,
              'symbols': ['Li', 'Cl'],
              'validated': True},
 'protocols': {'stdout': True},
 'provenance': {'creator': 'QCElemental', 'routine': 'qcelemental.models.results', 'version': '0.27.1'},
 'schema_name': 'qcschema_input',
 'schema_version': 1}
--------------------------------------------------------------------------

Scratch directory: /scratch/
   => Libint2 <=

    Primary   basis highest AM E, G, H:  5, 4, 3
    Auxiliary basis highest AM E, G, H:  6, 5, 4
    Onebody   basis highest AM E, G, H:  6, 5, 4
    Solid Harmonics ordering:            gaussian

*** tstart() called on moses-razer
*** at Thu Dec 28 16:21:05 2023

   => Loading Basis Set <=

    Name: AUG-CC-PVTZ
    Role: ORBITAL
    Keyword: BASIS
    atoms 1 entry LI         line    85 file /home/kchung25/anaconda3/envs/p415env/share/psi4/basis/aug-cc-pvtz.gbs 
    atoms 2 entry CL         line   988 file /home/kchung25/anaconda3/envs/p415env/share/psi4/basis/aug-cc-pvtz.gbs 


         ---------------------------------------------------------
                                   SCF
               by Justin Turney, Rob Parrish, Andy Simmonett
                          and Daniel G. A. Smith
                              RHF Reference
                        6 Threads,  57220 MiB Core
         ---------------------------------------------------------

  ==> Geometry <==

    Molecular point group: c1
    Full point group: C_inf_v

    Geometry (in Bohr), charge = 0, multiplicity = 1:

       Center              X                  Y                   Z               Mass       
    ------------   -----------------  -----------------  -----------------  -----------------
         LI           0.000000000000     0.000000000000     0.000000000000     7.016003436600
         CL           5.370064966332     0.000000000000     0.000000000000    34.968852682000

  Running in c1 symmetry.

  Rotational constants: A = ************  B =      0.05970  C =      0.05970 [cm^-1]
  Rotational constants: A = ************  B =   1789.67623  C =   1789.67623 [MHz]
  Nuclear repulsion =    9.497091807967440

  Charge       = 0
  Multiplicity = 1
  Electrons    = 20
  Nalpha       = 10
  Nbeta        = 10

  ==> Algorithm <==

  SCF Algorithm Type is DF.
  DIIS enabled.
  MOM disabled.
  Fractional occupation disabled.
  Guess Type is SAD.
  Energy threshold   = 1.00e-08
  Density threshold  = 1.00e-08
  Integral threshold = 1.00e-12

  ==> Primary Basis <==

  Basis Set: AUG-CC-PVTZ
    Blend: AUG-CC-PVTZ
    Number of shells: 30
    Number of basis functions: 96
    Number of Cartesian functions: 114
    Spherical Harmonics?: true
    Max angular momentum: 3

   => Loading Basis Set <=

    Name: (AUG-CC-PVTZ AUX)
    Role: JKFIT
    Keyword: DF_BASIS_SCF
    atoms 1 entry LI         line    54 file /home/kchung25/anaconda3/envs/p415env/share/psi4/basis/def2-universal-jkfit.gbs 
    atoms 2 entry CL         line   816 file /home/kchung25/anaconda3/envs/p415env/share/psi4/basis/aug-cc-pvtz-jkfit.gbs 

  ==> Integral Setup <==

  DFHelper Memory: AOs need 0.016 GiB; user supplied 41.910 GiB. 
  Using in-core AOs.

  ==> MemDFJK: Density-Fitted J/K Matrices <==

    J tasked:                   Yes
    K tasked:                   Yes
    wK tasked:                   No
    OpenMP threads:               6
    Memory [MiB]:             42915
    Algorithm:                 Core
    Schwarz Cutoff:           1E-12
    Mask sparsity (%):       0.0000
    Fitting Condition:        1E-10

   => Auxiliary Basis Set <=

  Basis Set: (AUG-CC-PVTZ AUX)
    Blend: AUG-CC-PVTZ-JKFIT + DEF2-UNIVERSAL-JKFIT
    Number of shells: 59
    Number of basis functions: 197
    Number of Cartesian functions: 240
    Spherical Harmonics?: true
    Max angular momentum: 4

  Minimum eigenvalue in the overlap matrix is 9.8807520357E-04.
  Reciprocal condition number of the overlap matrix is 1.9380176244E-04.
    Using symmetric orthogonalization.

  ==> Pre-Iterations <==

  SCF Guess: Superposition of Atomic Densities via on-the-fly atomic UHF (no occupation information).

   -------------------------
    Irrep   Nso     Nmo    
   -------------------------
     A         96      96 
   -------------------------
    Total      96      96
   -------------------------

  ==> Iterations <==

                           Total Energy        Delta E     RMS |[F,P]|

   @DF-RHF iter SAD:  -466.47436413659557   -4.66474e+02   0.00000e+00 
   @DF-RHF iter   1:  -466.95451243008381   -4.80148e-01   2.94341e-03 ADIIS/DIIS
   @DF-RHF iter   2:  -467.00084305236373   -4.63306e-02   1.53984e-03 ADIIS/DIIS
   @DF-RHF iter   3:  -467.00932403751546   -8.48099e-03   1.21920e-04 ADIIS/DIIS
   @DF-RHF iter   4:  -467.00946612883934   -1.42091e-04   3.65356e-05 DIIS
   @DF-RHF iter   5:  -467.00949168469043   -2.55559e-05   1.10174e-05 DIIS
   @DF-RHF iter   6:  -467.00949437201149   -2.68732e-06   3.55235e-06 DIIS
   @DF-RHF iter   7:  -467.00949475862240   -3.86611e-07   5.86732e-07 DIIS
   @DF-RHF iter   8:  -467.00949476890241   -1.02800e-08   8.29603e-08 DIIS
   @DF-RHF iter   9:  -467.00949476907959   -1.77181e-10   1.38626e-08 DIIS
   @DF-RHF iter  10:  -467.00949476908357   -3.97904e-12   2.17765e-09 DIIS
  Energy and wave function converged.


  ==> Post-Iterations <==

    Orbital Energies [Eh]
    ---------------------

    Doubly Occupied:                                                      

       1A   -104.699347     2A    -10.422311     3A     -7.888461  
       4A     -7.888153     5A     -7.888153     6A     -2.564937  
       7A     -0.923776     8A     -0.347630     9A     -0.337070  
      10A     -0.337070  

    Virtual:                                                              

      11A     -0.038471    12A      0.008968    13A      0.008968  
      14A      0.009742    15A      0.028768    16A      0.036468  
      17A      0.036468    18A      0.060595    19A      0.096836  
      20A      0.096836    21A      0.109402    22A      0.118028  
      23A      0.118028    24A      0.122545    25A      0.122545  
      26A      0.127459    27A      0.169668    28A      0.189447  
      29A      0.189447    30A      0.194145    31A      0.272369  
      32A      0.272369    33A      0.272695    34A      0.272695  
      35A      0.297045    36A      0.297045    37A      0.306363  
      38A      0.306363    39A      0.306904    40A      0.335377  
      41A      0.335377    42A      0.349519    43A      0.372131  
      44A      0.431187    45A      0.431187    46A      0.438471  
      47A      0.482845    48A      0.482845    49A      0.560253  
      50A      0.560253    51A      0.593837    52A      0.696777  
      53A      0.708139    54A      0.708139    55A      0.712954  
      56A      0.712954    57A      0.744608    58A      0.744608  
      59A      0.764310    60A      0.764310    61A      0.783788  
      62A      0.783788    63A      0.824158    64A      0.824158  
      65A      0.827030    66A      0.981445    67A      1.074033  
      68A      1.074033    69A      1.138773    70A      1.155458  
      71A      1.155458    72A      1.287002    73A      1.296991  
      74A      1.296991    75A      1.340661    76A      1.340661  
      77A      1.484980    78A      1.484980    79A      1.526045  
      80A      2.671302    81A      2.671302    82A      2.712896  
      83A      2.730650    84A      2.730650    85A      2.869492  
      86A      2.869492    87A      2.904733    88A      3.145035  
      89A      3.192813    90A      3.192813    91A      3.218166  
      92A      3.218166    93A      3.306422    94A      3.306422  
      95A      3.348924    96A      5.658208  

    Final Occupation by Irrep:
              A 
    DOCC [    10 ]
    NA   [    10 ]
    NB   [    10 ]

  @DF-RHF Final Energy:  -467.00949476908357

   => Energetics <=

    Nuclear Repulsion Energy =              9.4970918079674398
    One-Electron Energy =                -666.4193584524563221
    Two-Electron Energy =                 189.9127718754052978
    Total Energy =                       -467.0094947690836307

Computation Completed


Properties will be evaluated at   0.000000,   0.000000,   0.000000 [a0]

Properties computed using the SCF density matrix


 Multipole Moments:

 ------------------------------------------------------------------------------------
     Multipole            Electronic (a.u.)      Nuclear  (a.u.)        Total (a.u.)
 ------------------------------------------------------------------------------------

 L = 1.  Multiply by 2.5417464519 to convert [e a0] to [Debye]
 Dipole X            :        -95.6976266           91.2911044           -4.4065222
 Dipole Y            :         -0.0000000            0.0000000           -0.0000000
 Dipole Z            :          0.0000000            0.0000000            0.0000000
 Magnitude           :                                                    4.4065222

 ------------------------------------------------------------------------------------

*** tstop() called on moses-razer at Thu Dec 28 16:21:06 2023
Module time:
	user time   =       4.66 seconds =       0.08 minutes
	system time =       0.37 seconds =       0.01 minutes
	total time  =          1 seconds =       0.02 minutes
Total time:
	user time   =      16.24 seconds =       0.27 minutes
	system time =       1.25 seconds =       0.02 minutes
	total time  =          3 seconds =       0.05 minutes

*** tstart() called on moses-razer
*** at Thu Dec 28 16:21:06 2023


  //>>>>>>>>>>>>>>>>>>>>>>>>>>>>>>>>>>>//
  //               DFMP2               //
  //<<<<<<<<<<<<<<<<<<<<<<<<<<<<<<<<<<<//

   => Loading Basis Set <=

    Name: (AUG-CC-PVTZ AUX)
    Role: RIFIT
    Keyword: DF_BASIS_MP2
    atoms 1 entry LI         line    90 file /home/kchung25/anaconda3/envs/p415env/share/psi4/basis/def2-qzvpp-ri.gbs 
    atoms 2 entry CL         line   742 file /home/kchung25/anaconda3/envs/p415env/share/psi4/basis/aug-cc-pvtz-ri.gbs 

	 --------------------------------------------------------
	                          DF-MP2                         
	      2nd-Order Density-Fitted Moller-Plesset Theory     
	              RMP2 Wavefunction,   6 Threads             
	                                                         
	        Rob Parrish, Justin Turney, Andy Simmonett,      
	           Ed Hohenstein, and C. David Sherrill          
	 --------------------------------------------------------

   => Auxiliary Basis Set <=

  Basis Set: (AUG-CC-PVTZ AUX)
    Blend: AUG-CC-PVTZ-RI + DEF2-QZVPP-RI
    Number of shells: 64
    Number of basis functions: 248
    Number of Cartesian functions: 321
    Spherical Harmonics?: true
    Max angular momentum: 4

	 --------------------------------------------------------
	                 NBF =    96, NAUX =   248
	 --------------------------------------------------------
	   CLASS    FOCC     OCC    AOCC    AVIR     VIR    FVIR
	   PAIRS       0      10      10      86      86       0
	 --------------------------------------------------------

	-----------------------------------------------------------
	 ==================> DF-MP2 Energies <==================== 
	-----------------------------------------------------------
	 Reference Energy          =    -467.0094947690835738 [Eh]
	 Singles Energy            =      -0.0000000000000000 [Eh]
	 Same-Spin Energy          =      -0.0627069173621764 [Eh]
	 Opposite-Spin Energy      =      -0.1919384909254357 [Eh]
	 Correlation Energy        =      -0.2546454082876121 [Eh]
	 Total Energy              =    -467.2641401773711891 [Eh]
	-----------------------------------------------------------
	 ================> DF-SCS-MP2 Energies <================== 
	-----------------------------------------------------------
	 SCS Same-Spin Scale       =       0.3333333333333333 [-]
	 SCS Opposite-Spin Scale   =       1.2000000000000000 [-]
	 SCS Same-Spin Energy      =      -0.0209023057873921 [Eh]
	 SCS Opposite-Spin Energy  =      -0.2303261891105229 [Eh]
	 SCS Correlation Energy    =      -0.2512284948979150 [Eh]
	 SCS Total Energy          =    -467.2607232639815038 [Eh]
	-----------------------------------------------------------


*** tstop() called on moses-razer at Thu Dec 28 16:21:06 2023
Module time:
	user time   =       1.74 seconds =       0.03 minutes
	system time =       0.11 seconds =       0.00 minutes
	total time  =          0 seconds =       0.00 minutes
Total time:
	user time   =      17.98 seconds =       0.30 minutes
	system time =       1.36 seconds =       0.02 minutes
	total time  =          3 seconds =       0.05 minutes

    Psi4 stopped on: Thursday, 28 December 2023 04:21PM
    Psi4 wall time for execution: 0:00:01.39


  //>>>>>>>>>>>>>>>>>>>>>>>>>>>>>>>>>>>//
  //          ManyBody Results         //
  //<<<<<<<<<<<<<<<<<<<<<<<<<<<<<<<<<<<//


   ==> N-Body: Counterpoise Corrected (CP) energies <==

        n-Body     Total Energy            Interaction Energy                          N-body Contribution to Interaction Energy
                   [Eh]                    [Eh]                  [kcal/mol]            [Eh]                  [kcal/mol]
             1  N/A                         0.000000000000        0.000000000000        0.000000000000        0.000000000000
  FULL/RTN   2  N/A                        -0.200831443466     -126.023633407458       -0.200831443466     -126.023633407458


    Psi4 stopped on: Thursday, 28 December 2023 04:21PM
    Psi4 wall time for execution: 0:00:05.50

*** Psi4 exiting successfully. Buy a developer a beer!
