
    -----------------------------------------------------------------------
          Psi4: An Open-Source Ab Initio Electronic Structure Package
                               Psi4 1.9 release

                         Git: Rev {} zzzzzzz 


    D. G. A. Smith, L. A. Burns, A. C. Simmonett, R. M. Parrish,
    M. C. Schieber, R. Galvelis, P. Kraus, H. Kruse, R. Di Remigio,
    A. Alenaizan, A. M. James, S. Lehtola, J. P. Misiewicz, M. Scheurer,
    R. A. Shaw, J. B. Schriber, Y. Xie, Z. L. Glick, D. A. Sirianni,
    J. S. O'Brien, J. M. Waldrop, A. Kumar, E. G. Hohenstein,
    B. P. Pritchard, B. R. Brooks, H. F. Schaefer III, A. Yu. Sokolov,
    K. Patkowski, A. E. DePrince III, U. Bozkaya, R. A. King,
    F. A. Evangelista, J. M. Turney, T. D. Crawford, C. D. Sherrill,
    J. Chem. Phys. 152(18) 184108 (2020). https://doi.org/10.1063/5.0006002

                            Additional Code Authors
    E. T. Seidl, C. L. Janssen, E. F. Valeev, M. L. Leininger,
    J. F. Gonthier, R. M. Richard, H. R. McAlexander, M. Saitow, X. Wang,
    P. Verma, M. H. Lechner, A. Jiang, S. Behnle, A. G. Heide,
    M. F. Herbst, and D. L. Poole

             Previous Authors, Complete List of Code Contributors,
                       and Citations for Specific Modules
    https://github.com/psi4/psi4/blob/master/codemeta.json
    https://github.com/psi4/psi4/graphs/contributors
    http://psicode.org/psi4manual/master/introduction.html#citing-psifour

    -----------------------------------------------------------------------


    Psi4 started on: Thursday, 28 December 2023 04:22PM

    Process ID: 81960
    Host:       moses-razer
    PSIDATADIR: /home/kchung25/anaconda3/envs/psi4_19/share/psi4
    Memory:     500.0 MiB
    Threads:    6
    
  ==> Input File <==

--------------------------------------------------------------------------
MEMORY 60 GB

molecule dimer {
1 1
Li     0.000000     0.000000     0.000000
--
-1 1
Br     2.279271     0.000000     0.000000

units ang
no_reorient
no_com
symmetry c1
}

set {
basis        aug-cc-pVTZ
scf_type     df
}

energy("mp2", bsse_type="cp")
--------------------------------------------------------------------------

  Memory set to  55.879 GiB by Python driver.

Scratch directory: /scratch/

  //>>>>>>>>>>>>>>>>>>>>>>>>>>>>>>>>>>>>>//
  // ManyBody Setup: N-Body Levels [1, 2]//
  //<<<<<<<<<<<<<<<<<<<<<<<<<<<<<<<<<<<<<//

        Number of 1-body computations:     2
        Number of 2-body computations:     1

    -----------------------------------------------------------------------
          Psi4: An Open-Source Ab Initio Electronic Structure Package
                               Psi4 1.9 release

                         Git: Rev {} zzzzzzz 


    D. G. A. Smith, L. A. Burns, A. C. Simmonett, R. M. Parrish,
    M. C. Schieber, R. Galvelis, P. Kraus, H. Kruse, R. Di Remigio,
    A. Alenaizan, A. M. James, S. Lehtola, J. P. Misiewicz, M. Scheurer,
    R. A. Shaw, J. B. Schriber, Y. Xie, Z. L. Glick, D. A. Sirianni,
    J. S. O'Brien, J. M. Waldrop, A. Kumar, E. G. Hohenstein,
    B. P. Pritchard, B. R. Brooks, H. F. Schaefer III, A. Yu. Sokolov,
    K. Patkowski, A. E. DePrince III, U. Bozkaya, R. A. King,
    F. A. Evangelista, J. M. Turney, T. D. Crawford, C. D. Sherrill,
    J. Chem. Phys. 152(18) 184108 (2020). https://doi.org/10.1063/5.0006002

                            Additional Code Authors
    E. T. Seidl, C. L. Janssen, E. F. Valeev, M. L. Leininger,
    J. F. Gonthier, R. M. Richard, H. R. McAlexander, M. Saitow, X. Wang,
    P. Verma, M. H. Lechner, A. Jiang, S. Behnle, A. G. Heide,
    M. F. Herbst, and D. L. Poole

             Previous Authors, Complete List of Code Contributors,
                       and Citations for Specific Modules
    https://github.com/psi4/psi4/blob/master/codemeta.json
    https://github.com/psi4/psi4/graphs/contributors
    http://psicode.org/psi4manual/master/introduction.html#citing-psifour

    -----------------------------------------------------------------------


    Psi4 started on: Thursday, 28 December 2023 04:22PM

    Process ID: 81960
    Host:       moses-razer
    PSIDATADIR: /home/kchung25/anaconda3/envs/psi4_19/share/psi4
    Memory:     55.9 GiB
    Threads:    6
    
  ==> Input QCSchema <==

--------------------------------------------------------------------------
{'driver': 'energy',
 'extras': {'psiapi': True, 'wfn_qcvars_only': True},
 'id': None,
 'keywords': {'SCF_TYPE': 'DF', 'function_kwargs': {}},
 'model': {'basis': 'aug-cc-pvtz', 'method': 'mp2'},
 'molecule': {'atom_labels': ['', ''],
              'atomic_numbers': [3, 35],
              'extras': {},
              'fix_com': True,
              'fix_orientation': True,
              'fix_symmetry': 'c1',
              'fragment_charges': [0.0, -1.0],
              'fragment_multiplicities': [1, 1],
              'fragments': [[0], [1]],
              'geometry': [0.0, 0.0, 0.0, 4.307197955698389, 0.0, 0.0],
              'mass_numbers': [7, 79],
              'masses': [7.0160034366, 78.9183376],
              'molecular_charge': -1.0,
              'molecular_multiplicity': 1,
              'name': 'dimer',
              'provenance': {'creator': 'QCElemental',
                             'routine': 'qcelemental.molparse.from_string',
                             'version': '0.27.1'},
              'real': [False, True],
              'schema_name': 'qcschema_molecule',
              'schema_version': 2,
              'symbols': ['Li', 'Br'],
              'validated': True},
 'protocols': {'stdout': True},
 'provenance': {'creator': 'QCElemental', 'routine': 'qcelemental.models.results', 'version': '0.27.1'},
 'schema_name': 'qcschema_input',
 'schema_version': 1}
--------------------------------------------------------------------------

Scratch directory: /scratch/
   => Libint2 <=

    Primary   basis highest AM E, G, H:  5, 4, 3
    Auxiliary basis highest AM E, G, H:  6, 5, 4
    Onebody   basis highest AM E, G, H:  6, 5, 4
    Solid Harmonics ordering:            gaussian

*** tstart() called on moses-razer
*** at Thu Dec 28 16:22:21 2023

   => Loading Basis Set <=

    Name: AUG-CC-PVTZ
    Role: ORBITAL
    Keyword: BASIS
    atoms 1 entry LI         line    85 file /home/kchung25/anaconda3/envs/p415env/share/psi4/basis/aug-cc-pvtz.gbs 
    atoms 2 entry BR         line  4564 file /home/kchung25/anaconda3/envs/p415env/share/psi4/basis/aug-cc-pvtz.gbs 


         ---------------------------------------------------------
                                   SCF
               by Justin Turney, Rob Parrish, Andy Simmonett
                          and Daniel G. A. Smith
                              RHF Reference
                        6 Threads,  57220 MiB Core
         ---------------------------------------------------------

  ==> Geometry <==

    Molecular point group: c1
    Full point group: C_inf_v

    Geometry (in Bohr), charge = -1, multiplicity = 1:

       Center              X                  Y                   Z               Mass       
    ------------   -----------------  -----------------  -----------------  -----------------
      Gh(LI)          0.000000000000     0.000000000000     0.000000000000     7.016003436600
         BR           4.307197955698     0.000000000000     0.000000000000    78.918337600000

  Running in c1 symmetry.

  Rotational constants: A = ************  B =      0.04112  C =      0.04112 [cm^-1]
  Rotational constants: A = ************  B =   1232.67146  C =   1232.67146 [MHz]
  Nuclear repulsion =    0.000000000000000

  Charge       = -1
  Multiplicity = 1
  Electrons    = 36
  Nalpha       = 18
  Nbeta        = 18

  ==> Algorithm <==

  SCF Algorithm Type is DF.
  DIIS enabled.
  MOM disabled.
  Fractional occupation disabled.
  Guess Type is SAD.
  Energy threshold   = 1.00e-08
  Density threshold  = 1.00e-08
  Integral threshold = 1.00e-12

  ==> Primary Basis <==

  Basis Set: AUG-CC-PVTZ
    Blend: AUG-CC-PVTZ
    Number of shells: 33
    Number of basis functions: 105
    Number of Cartesian functions: 124
    Spherical Harmonics?: true
    Max angular momentum: 3

   => Loading Basis Set <=

    Name: (AUG-CC-PVTZ AUX)
    Role: JKFIT
    Keyword: DF_BASIS_SCF
    atoms 1 entry LI         line    54 file /home/kchung25/anaconda3/envs/p415env/share/psi4/basis/def2-universal-jkfit.gbs 
    atoms 2 entry BR         line  1492 file /home/kchung25/anaconda3/envs/p415env/share/psi4/basis/aug-cc-pvtz-jkfit.gbs 

  ==> Integral Setup <==

  DFHelper Memory: AOs need 0.028 GiB; user supplied 41.910 GiB. 
  Using in-core AOs.

  ==> MemDFJK: Density-Fitted J/K Matrices <==

    J tasked:                   Yes
    K tasked:                   Yes
    wK tasked:                   No
    OpenMP threads:               6
    Memory [MiB]:             42915
    Algorithm:                 Core
    Schwarz Cutoff:           1E-12
    Mask sparsity (%):       0.0000
    Fitting Condition:        1E-10

   => Auxiliary Basis Set <=

  Basis Set: (AUG-CC-PVTZ AUX)
    Blend: AUG-CC-PVTZ-JKFIT + DEF2-UNIVERSAL-JKFIT
    Number of shells: 75
    Number of basis functions: 299
    Number of Cartesian functions: 389
    Spherical Harmonics?: true
    Max angular momentum: 4

  Minimum eigenvalue in the overlap matrix is 5.8911141067E-04.
  Reciprocal condition number of the overlap matrix is 1.0849368001E-04.
    Using symmetric orthogonalization.

  ==> Pre-Iterations <==

  SCF Guess: Superposition of Atomic Densities via on-the-fly atomic UHF (no occupation information).

   -------------------------
    Irrep   Nso     Nmo    
   -------------------------
     A        105     105 
   -------------------------
    Total     105     105
   -------------------------

  ==> Iterations <==

                           Total Energy        Delta E     RMS |[F,P]|

   @DF-RHF iter SAD: -2570.41423534420528   -2.57041e+03   0.00000e+00 
   @DF-RHF iter   1: -2572.25431201081392   -1.84008e+00   1.01159e-02 ADIIS/DIIS
   @DF-RHF iter   2: -2572.46352866205007   -2.09217e-01   5.63379e-03 ADIIS/DIIS
   @DF-RHF iter   3: -2572.53362135624593   -7.00927e-02   1.35001e-04 ADIIS/DIIS
   @DF-RHF iter   4: -2572.53368684130282   -6.54851e-05   1.19122e-05 DIIS
   @DF-RHF iter   5: -2572.53368895853009   -2.11723e-06   2.94094e-06 DIIS
   @DF-RHF iter   6: -2572.53368910220388   -1.43674e-07   5.92922e-07 DIIS
   @DF-RHF iter   7: -2572.53368911788857   -1.56847e-08   3.81918e-08 DIIS
   @DF-RHF iter   8: -2572.53368911792222   -3.36513e-11   7.33630e-09 DIIS
  Energy and wave function converged.


  ==> Post-Iterations <==

    Orbital Energies [Eh]
    ---------------------

    Doubly Occupied:                                                      

       1A   -489.721090     2A    -64.860962     3A    -58.215460  
       4A    -58.215460     5A    -58.215458     6A     -9.533009  
       7A     -7.140353     8A     -7.140353     9A     -7.140337  
      10A     -2.882039    11A     -2.882039    12A     -2.882029  
      13A     -2.882029    14A     -2.882024    15A     -0.685999  
      16A     -0.139341    17A     -0.139341    18A     -0.139337  

    Virtual:                                                              

      19A      0.083694    20A      0.093754    21A      0.093754  
      22A      0.101307    23A      0.161553    24A      0.176641  
      25A      0.176641    26A      0.194736    27A      0.240823  
      28A      0.242470    29A      0.242470    30A      0.258755  
      31A      0.258755    32A      0.267067    33A      0.270592  
      34A      0.270592    35A      0.318011    36A      0.362222  
      37A      0.362222    38A      0.384089    39A      0.446613  
      40A      0.446613    41A      0.449812    42A      0.449812  
      43A      0.482888    44A      0.500440    45A      0.500440  
      46A      0.500988    47A      0.500988    48A      0.503659  
      49A      0.551951    50A      0.551951    51A      0.580036  
      52A      0.584437    53A      0.584437    54A      0.590985  
      55A      0.593231    56A      0.593231    57A      0.827538  
      58A      0.827538    59A      0.833982    60A      0.939253  
      61A      0.939253    62A      0.965043    63A      0.979013  
      64A      0.979013    65A      0.982692    66A      0.982692  
      67A      1.028635    68A      1.028635    69A      1.063590  
      70A      1.091693    71A      1.091693    72A      1.106906  
      73A      1.106906    74A      1.110201    75A      1.150437  
      76A      1.150437    77A      1.228163    78A      1.228163  
      79A      1.245433    80A      1.310362    81A      1.310362  
      82A      1.374336    83A      1.374336    84A      1.405081  
      85A      1.658727    86A      1.658727    87A      1.814610  
      88A      2.109911    89A      2.518614    90A      2.518614  
      91A      2.586204    92A      2.596523    93A      2.596523  
      94A      2.617040    95A      2.617040    96A      2.674178  
      97A      2.674178    98A      2.765011    99A      2.765011  
     100A      2.782884   101A      2.782884   102A      2.802365  
     103A      2.985522   104A      4.637333   105A     10.810269  

    Final Occupation by Irrep:
              A 
    DOCC [    18 ]
    NA   [    18 ]
    NB   [    18 ]

  @DF-RHF Final Energy: -2572.53368911792222

   => Energetics <=

    Nuclear Repulsion Energy =              0.0000000000000000
    One-Electron Energy =               -3593.6740615171033824
    Two-Electron Energy =                1021.1403723991808192
    Total Energy =                      -2572.5336891179226768

Computation Completed


Properties will be evaluated at   0.000000,   0.000000,   0.000000 [a0]

Properties computed using the SCF density matrix


 Multipole Moments:

 ------------------------------------------------------------------------------------
     Multipole            Electronic (a.u.)      Nuclear  (a.u.)        Total (a.u.)
 ------------------------------------------------------------------------------------

 L = 1.  Multiply by 2.5417464519 to convert [e a0] to [Debye]
 Dipole X            :       -155.0597079          150.7519284           -4.3077795
 Dipole Y            :         -0.0000000            0.0000000           -0.0000000
 Dipole Z            :         -0.0000000            0.0000000           -0.0000000
 Magnitude           :                                                    4.3077795

 ------------------------------------------------------------------------------------

*** tstop() called on moses-razer at Thu Dec 28 16:22:24 2023
Module time:
	user time   =       7.77 seconds =       0.13 minutes
	system time =       1.14 seconds =       0.02 minutes
	total time  =          3 seconds =       0.05 minutes
Total time:
	user time   =       7.77 seconds =       0.13 minutes
	system time =       1.14 seconds =       0.02 minutes
	total time  =          3 seconds =       0.05 minutes

*** tstart() called on moses-razer
*** at Thu Dec 28 16:22:24 2023


  //>>>>>>>>>>>>>>>>>>>>>>>>>>>>>>>>>>>//
  //               DFMP2               //
  //<<<<<<<<<<<<<<<<<<<<<<<<<<<<<<<<<<<//

   => Loading Basis Set <=

    Name: (AUG-CC-PVTZ AUX)
    Role: RIFIT
    Keyword: DF_BASIS_MP2
    atoms 1 entry LI         line    90 file /home/kchung25/anaconda3/envs/p415env/share/psi4/basis/def2-qzvpp-ri.gbs 
    atoms 2 entry BR         line  1248 file /home/kchung25/anaconda3/envs/p415env/share/psi4/basis/aug-cc-pvtz-ri.gbs 

	 --------------------------------------------------------
	                          DF-MP2                         
	      2nd-Order Density-Fitted Moller-Plesset Theory     
	              RMP2 Wavefunction,   6 Threads             
	                                                         
	        Rob Parrish, Justin Turney, Andy Simmonett,      
	           Ed Hohenstein, and C. David Sherrill          
	 --------------------------------------------------------

   => Auxiliary Basis Set <=

  Basis Set: (AUG-CC-PVTZ AUX)
    Blend: AUG-CC-PVTZ-RI + DEF2-QZVPP-RI
    Number of shells: 70
    Number of basis functions: 292
    Number of Cartesian functions: 391
    Spherical Harmonics?: true
    Max angular momentum: 5

	 --------------------------------------------------------
	                 NBF =   105, NAUX =   292
	 --------------------------------------------------------
	   CLASS    FOCC     OCC    AOCC    AVIR     VIR    FVIR
	   PAIRS       0      18      18      87      87       0
	 --------------------------------------------------------

	-----------------------------------------------------------
	 ==================> DF-MP2 Energies <==================== 
	-----------------------------------------------------------
	 Reference Energy          =   -2572.5336891179222221 [Eh]
	 Singles Energy            =      -0.0000000000000000 [Eh]
	 Same-Spin Energy          =      -0.0883257083962163 [Eh]
	 Opposite-Spin Energy      =      -0.2048439921088490 [Eh]
	 Correlation Energy        =      -0.2931697005050652 [Eh]
	 Total Energy              =   -2572.8268588184273540 [Eh]
	-----------------------------------------------------------
	 ================> DF-SCS-MP2 Energies <================== 
	-----------------------------------------------------------
	 SCS Same-Spin Scale       =       0.3333333333333333 [-]
	 SCS Opposite-Spin Scale   =       1.2000000000000000 [-]
	 SCS Same-Spin Energy      =      -0.0294419027987388 [Eh]
	 SCS Opposite-Spin Energy  =      -0.2458127905306187 [Eh]
	 SCS Correlation Energy    =      -0.2752546933293575 [Eh]
	 SCS Total Energy          =   -2572.8089438112515381 [Eh]
	-----------------------------------------------------------


*** tstop() called on moses-razer at Thu Dec 28 16:22:26 2023
Module time:
	user time   =       3.14 seconds =       0.05 minutes
	system time =       0.35 seconds =       0.01 minutes
	total time  =          2 seconds =       0.03 minutes
Total time:
	user time   =      10.92 seconds =       0.18 minutes
	system time =       1.49 seconds =       0.02 minutes
	total time  =          5 seconds =       0.08 minutes

    Psi4 stopped on: Thursday, 28 December 2023 04:22PM
    Psi4 wall time for execution: 0:00:04.67


    -----------------------------------------------------------------------
          Psi4: An Open-Source Ab Initio Electronic Structure Package
                               Psi4 1.9 release

                         Git: Rev {} zzzzzzz 


    D. G. A. Smith, L. A. Burns, A. C. Simmonett, R. M. Parrish,
    M. C. Schieber, R. Galvelis, P. Kraus, H. Kruse, R. Di Remigio,
    A. Alenaizan, A. M. James, S. Lehtola, J. P. Misiewicz, M. Scheurer,
    R. A. Shaw, J. B. Schriber, Y. Xie, Z. L. Glick, D. A. Sirianni,
    J. S. O'Brien, J. M. Waldrop, A. Kumar, E. G. Hohenstein,
    B. P. Pritchard, B. R. Brooks, H. F. Schaefer III, A. Yu. Sokolov,
    K. Patkowski, A. E. DePrince III, U. Bozkaya, R. A. King,
    F. A. Evangelista, J. M. Turney, T. D. Crawford, C. D. Sherrill,
    J. Chem. Phys. 152(18) 184108 (2020). https://doi.org/10.1063/5.0006002

                            Additional Code Authors
    E. T. Seidl, C. L. Janssen, E. F. Valeev, M. L. Leininger,
    J. F. Gonthier, R. M. Richard, H. R. McAlexander, M. Saitow, X. Wang,
    P. Verma, M. H. Lechner, A. Jiang, S. Behnle, A. G. Heide,
    M. F. Herbst, and D. L. Poole

             Previous Authors, Complete List of Code Contributors,
                       and Citations for Specific Modules
    https://github.com/psi4/psi4/blob/master/codemeta.json
    https://github.com/psi4/psi4/graphs/contributors
    http://psicode.org/psi4manual/master/introduction.html#citing-psifour

    -----------------------------------------------------------------------


    Psi4 started on: Thursday, 28 December 2023 04:22PM

    Process ID: 81960
    Host:       moses-razer
    PSIDATADIR: /home/kchung25/anaconda3/envs/psi4_19/share/psi4
    Memory:     55.9 GiB
    Threads:    6
    
  ==> Input QCSchema <==

--------------------------------------------------------------------------
{'driver': 'energy',
 'extras': {'psiapi': True, 'wfn_qcvars_only': True},
 'id': None,
 'keywords': {'SCF_TYPE': 'DF', 'function_kwargs': {}},
 'model': {'basis': 'aug-cc-pvtz', 'method': 'mp2'},
 'molecule': {'atom_labels': ['', ''],
              'atomic_numbers': [3, 35],
              'extras': {},
              'fix_com': True,
              'fix_orientation': True,
              'fix_symmetry': 'c1',
              'fragment_charges': [1.0, 0.0],
              'fragment_multiplicities': [1, 1],
              'fragments': [[0], [1]],
              'geometry': [0.0, 0.0, 0.0, 4.307197955698389, 0.0, 0.0],
              'mass_numbers': [7, 79],
              'masses': [7.0160034366, 78.9183376],
              'molecular_charge': 1.0,
              'molecular_multiplicity': 1,
              'name': 'dimer',
              'provenance': {'creator': 'QCElemental',
                             'routine': 'qcelemental.molparse.from_string',
                             'version': '0.27.1'},
              'real': [True, False],
              'schema_name': 'qcschema_molecule',
              'schema_version': 2,
              'symbols': ['Li', 'Br'],
              'validated': True},
 'protocols': {'stdout': True},
 'provenance': {'creator': 'QCElemental', 'routine': 'qcelemental.models.results', 'version': '0.27.1'},
 'schema_name': 'qcschema_input',
 'schema_version': 1}
--------------------------------------------------------------------------

Scratch directory: /scratch/
   => Libint2 <=

    Primary   basis highest AM E, G, H:  5, 4, 3
    Auxiliary basis highest AM E, G, H:  6, 5, 4
    Onebody   basis highest AM E, G, H:  6, 5, 4
    Solid Harmonics ordering:            gaussian

*** tstart() called on moses-razer
*** at Thu Dec 28 16:22:26 2023

   => Loading Basis Set <=

    Name: AUG-CC-PVTZ
    Role: ORBITAL
    Keyword: BASIS
    atoms 1 entry LI         line    85 file /home/kchung25/anaconda3/envs/p415env/share/psi4/basis/aug-cc-pvtz.gbs 
    atoms 2 entry BR         line  4564 file /home/kchung25/anaconda3/envs/p415env/share/psi4/basis/aug-cc-pvtz.gbs 


         ---------------------------------------------------------
                                   SCF
               by Justin Turney, Rob Parrish, Andy Simmonett
                          and Daniel G. A. Smith
                              RHF Reference
                        6 Threads,  57220 MiB Core
         ---------------------------------------------------------

  ==> Geometry <==

    Molecular point group: c1
    Full point group: C_inf_v

    Geometry (in Bohr), charge = 1, multiplicity = 1:

       Center              X                  Y                   Z               Mass       
    ------------   -----------------  -----------------  -----------------  -----------------
         LI           0.000000000000     0.000000000000     0.000000000000     7.016003436600
      Gh(BR)          4.307197955698     0.000000000000     0.000000000000    78.918337600000

  Running in c1 symmetry.

  Rotational constants: A = ************  B =      0.04112  C =      0.04112 [cm^-1]
  Rotational constants: A = ************  B =   1232.67146  C =   1232.67146 [MHz]
  Nuclear repulsion =    0.000000000000000

  Charge       = 1
  Multiplicity = 1
  Electrons    = 2
  Nalpha       = 1
  Nbeta        = 1

  ==> Algorithm <==

  SCF Algorithm Type is DF.
  DIIS enabled.
  MOM disabled.
  Fractional occupation disabled.
  Guess Type is SAD.
  Energy threshold   = 1.00e-08
  Density threshold  = 1.00e-08
  Integral threshold = 1.00e-12

  ==> Primary Basis <==

  Basis Set: AUG-CC-PVTZ
    Blend: AUG-CC-PVTZ
    Number of shells: 33
    Number of basis functions: 105
    Number of Cartesian functions: 124
    Spherical Harmonics?: true
    Max angular momentum: 3

   => Loading Basis Set <=

    Name: (AUG-CC-PVTZ AUX)
    Role: JKFIT
    Keyword: DF_BASIS_SCF
    atoms 1 entry LI         line    54 file /home/kchung25/anaconda3/envs/p415env/share/psi4/basis/def2-universal-jkfit.gbs 
    atoms 2 entry BR         line  1492 file /home/kchung25/anaconda3/envs/p415env/share/psi4/basis/aug-cc-pvtz-jkfit.gbs 

  ==> Integral Setup <==

  DFHelper Memory: AOs need 0.028 GiB; user supplied 41.910 GiB. 
  Using in-core AOs.

  ==> MemDFJK: Density-Fitted J/K Matrices <==

    J tasked:                   Yes
    K tasked:                   Yes
    wK tasked:                   No
    OpenMP threads:               6
    Memory [MiB]:             42915
    Algorithm:                 Core
    Schwarz Cutoff:           1E-12
    Mask sparsity (%):       0.0000
    Fitting Condition:        1E-10

   => Auxiliary Basis Set <=

  Basis Set: (AUG-CC-PVTZ AUX)
    Blend: AUG-CC-PVTZ-JKFIT + DEF2-UNIVERSAL-JKFIT
    Number of shells: 75
    Number of basis functions: 299
    Number of Cartesian functions: 389
    Spherical Harmonics?: true
    Max angular momentum: 4

  Minimum eigenvalue in the overlap matrix is 5.8911141067E-04.
  Reciprocal condition number of the overlap matrix is 1.0849368001E-04.
    Using symmetric orthogonalization.

  ==> Pre-Iterations <==

  SCF Guess: Superposition of Atomic Densities via on-the-fly atomic UHF (no occupation information).

   -------------------------
    Irrep   Nso     Nmo    
   -------------------------
     A        105     105 
   -------------------------
    Total     105     105
   -------------------------

  ==> Iterations <==

                           Total Energy        Delta E     RMS |[F,P]|

   @DF-RHF iter SAD:    -7.31451479787803   -7.31451e+00   0.00000e+00 
   @DF-RHF iter   1:    -7.23638115284802    7.81336e-02   2.16390e-05 DIIS
   @DF-RHF iter   2:    -7.23638301313759   -1.86029e-06   2.40974e-06 DIIS
   @DF-RHF iter   3:    -7.23638304016423   -2.70266e-08   1.12681e-07 DIIS
   @DF-RHF iter   4:    -7.23638304021232   -4.80913e-11   7.59320e-10 DIIS
  Energy and wave function converged.


  ==> Post-Iterations <==

    Orbital Energies [Eh]
    ---------------------

    Doubly Occupied:                                                      

       1A     -2.792371  

    Virtual:                                                              

       2A     -0.196296     3A     -0.128600     4A     -0.128594  
       5A     -0.128594     6A     -0.073670     7A     -0.056377  
       8A     -0.056342     9A     -0.056342    10A     -0.039547  
      11A     -0.037244    12A     -0.037244    13A     -0.031284  
      14A     -0.031284    15A     -0.012863    16A     -0.004414  
      17A     -0.003946    18A     -0.003946    19A      0.022847  
      20A      0.022847    21A      0.026219    22A      0.074387  
      23A      0.121366    24A      0.121366    25A      0.126410  
      26A      0.126410    27A      0.127804    28A      0.127804  
      29A      0.135626    30A      0.135626    31A      0.138480  
      32A      0.174195    33A      0.182692    34A      0.182692  
      35A      0.222350    36A      0.222350    37A      0.233491  
      38A      0.251735    39A      0.261069    40A      0.261069  
      41A      0.268799    42A      0.268799    43A      0.312119  
      44A      0.391954    45A      0.391954    46A      0.504223  
      47A      0.532893    48A      0.532893    49A      0.533862  
      50A      0.533862    51A      0.570209    52A      0.570209  
      53A      0.570474    54A      0.570474    55A      0.570926  
      56A      0.597606    57A      0.597606    58A      0.685547  
      59A      0.883453    60A      0.883453    61A      0.901608  
      62A      0.901608    63A      0.934784    64A      0.980277  
      65A      0.980277    66A      0.984498    67A      1.027866  
      68A      1.027866    69A      1.123241    70A      1.123241  
      71A      1.177827    72A      1.194874    73A      1.194874  
      74A      1.392091    75A      2.752801    76A      2.752801  
      77A      2.766647    78A      2.836967    79A      2.921575  
      80A      2.921575    81A      2.987356    82A      2.987356  
      83A      3.013988    84A      3.064126    85A      3.064126  
      86A      3.123637    87A      3.123637    88A      3.209277  
      89A      3.209277    90A      3.244045    91A      3.413004  
      92A      9.655559    93A     13.354077    94A     13.354077  
      95A     13.513190    96A     25.949863    97A     25.949863  
      98A     26.043877    99A     26.043877   100A     26.081128  
     101A     45.512577   102A    138.377394   103A    138.377394  
     104A    138.634879   105A    709.165154  

    Final Occupation by Irrep:
              A 
    DOCC [     1 ]
    NA   [     1 ]
    NB   [     1 ]

  @DF-RHF Final Energy:    -7.23638304021232

   => Energetics <=

    Nuclear Repulsion Energy =              0.0000000000000000
    One-Electron Energy =                  -8.8880246473819611
    Two-Electron Energy =                   1.6516416071696438
    Total Energy =                         -7.2363830402123170

Computation Completed


Properties will be evaluated at   0.000000,   0.000000,   0.000000 [a0]

Properties computed using the SCF density matrix


 Multipole Moments:

 ------------------------------------------------------------------------------------
     Multipole            Electronic (a.u.)      Nuclear  (a.u.)        Total (a.u.)
 ------------------------------------------------------------------------------------

 L = 1.  Multiply by 2.5417464519 to convert [e a0] to [Debye]
 Dipole X            :          0.0000506            0.0000000            0.0000506
 Dipole Y            :          0.0000000            0.0000000            0.0000000
 Dipole Z            :          0.0000000            0.0000000            0.0000000
 Magnitude           :                                                    0.0000506

 ------------------------------------------------------------------------------------

*** tstop() called on moses-razer at Thu Dec 28 16:22:28 2023
Module time:
	user time   =       5.34 seconds =       0.09 minutes
	system time =       0.61 seconds =       0.01 minutes
	total time  =          2 seconds =       0.03 minutes
Total time:
	user time   =      16.50 seconds =       0.28 minutes
	system time =       2.10 seconds =       0.04 minutes
	total time  =          7 seconds =       0.12 minutes

*** tstart() called on moses-razer
*** at Thu Dec 28 16:22:28 2023


  //>>>>>>>>>>>>>>>>>>>>>>>>>>>>>>>>>>>//
  //               DFMP2               //
  //<<<<<<<<<<<<<<<<<<<<<<<<<<<<<<<<<<<//

   => Loading Basis Set <=

    Name: (AUG-CC-PVTZ AUX)
    Role: RIFIT
    Keyword: DF_BASIS_MP2
    atoms 1 entry LI         line    90 file /home/kchung25/anaconda3/envs/p415env/share/psi4/basis/def2-qzvpp-ri.gbs 
    atoms 2 entry BR         line  1248 file /home/kchung25/anaconda3/envs/p415env/share/psi4/basis/aug-cc-pvtz-ri.gbs 

	 --------------------------------------------------------
	                          DF-MP2                         
	      2nd-Order Density-Fitted Moller-Plesset Theory     
	              RMP2 Wavefunction,   6 Threads             
	                                                         
	        Rob Parrish, Justin Turney, Andy Simmonett,      
	           Ed Hohenstein, and C. David Sherrill          
	 --------------------------------------------------------

   => Auxiliary Basis Set <=

  Basis Set: (AUG-CC-PVTZ AUX)
    Blend: AUG-CC-PVTZ-RI + DEF2-QZVPP-RI
    Number of shells: 70
    Number of basis functions: 292
    Number of Cartesian functions: 391
    Spherical Harmonics?: true
    Max angular momentum: 5

	 --------------------------------------------------------
	                 NBF =   105, NAUX =   292
	 --------------------------------------------------------
	   CLASS    FOCC     OCC    AOCC    AVIR     VIR    FVIR
	   PAIRS       0       1       1     104     104       0
	 --------------------------------------------------------

	-----------------------------------------------------------
	 ==================> DF-MP2 Energies <==================== 
	-----------------------------------------------------------
	 Reference Energy          =      -7.2363830402123170 [Eh]
	 Singles Energy            =      -0.0000000000000000 [Eh]
	 Same-Spin Energy          =       0.0000000000000000 [Eh]
	 Opposite-Spin Energy      =      -0.0122327360384765 [Eh]
	 Correlation Energy        =      -0.0122327360384765 [Eh]
	 Total Energy              =      -7.2486157762507935 [Eh]
	-----------------------------------------------------------
	 ================> DF-SCS-MP2 Energies <================== 
	-----------------------------------------------------------
	 SCS Same-Spin Scale       =       0.3333333333333333 [-]
	 SCS Opposite-Spin Scale   =       1.2000000000000000 [-]
	 SCS Same-Spin Energy      =       0.0000000000000000 [Eh]
	 SCS Opposite-Spin Energy  =      -0.0146792832461717 [Eh]
	 SCS Correlation Energy    =      -0.0146792832461717 [Eh]
	 SCS Total Energy          =      -7.2510623234584886 [Eh]
	-----------------------------------------------------------


*** tstop() called on moses-razer at Thu Dec 28 16:22:30 2023
Module time:
	user time   =       3.25 seconds =       0.05 minutes
	system time =       0.29 seconds =       0.00 minutes
	total time  =          2 seconds =       0.03 minutes
Total time:
	user time   =      19.76 seconds =       0.33 minutes
	system time =       2.39 seconds =       0.04 minutes
	total time  =          9 seconds =       0.15 minutes

    Psi4 stopped on: Thursday, 28 December 2023 04:22PM
    Psi4 wall time for execution: 0:00:03.80


    -----------------------------------------------------------------------
          Psi4: An Open-Source Ab Initio Electronic Structure Package
                               Psi4 1.9 release

                         Git: Rev {} zzzzzzz 


    D. G. A. Smith, L. A. Burns, A. C. Simmonett, R. M. Parrish,
    M. C. Schieber, R. Galvelis, P. Kraus, H. Kruse, R. Di Remigio,
    A. Alenaizan, A. M. James, S. Lehtola, J. P. Misiewicz, M. Scheurer,
    R. A. Shaw, J. B. Schriber, Y. Xie, Z. L. Glick, D. A. Sirianni,
    J. S. O'Brien, J. M. Waldrop, A. Kumar, E. G. Hohenstein,
    B. P. Pritchard, B. R. Brooks, H. F. Schaefer III, A. Yu. Sokolov,
    K. Patkowski, A. E. DePrince III, U. Bozkaya, R. A. King,
    F. A. Evangelista, J. M. Turney, T. D. Crawford, C. D. Sherrill,
    J. Chem. Phys. 152(18) 184108 (2020). https://doi.org/10.1063/5.0006002

                            Additional Code Authors
    E. T. Seidl, C. L. Janssen, E. F. Valeev, M. L. Leininger,
    J. F. Gonthier, R. M. Richard, H. R. McAlexander, M. Saitow, X. Wang,
    P. Verma, M. H. Lechner, A. Jiang, S. Behnle, A. G. Heide,
    M. F. Herbst, and D. L. Poole

             Previous Authors, Complete List of Code Contributors,
                       and Citations for Specific Modules
    https://github.com/psi4/psi4/blob/master/codemeta.json
    https://github.com/psi4/psi4/graphs/contributors
    http://psicode.org/psi4manual/master/introduction.html#citing-psifour

    -----------------------------------------------------------------------


    Psi4 started on: Thursday, 28 December 2023 04:22PM

    Process ID: 81960
    Host:       moses-razer
    PSIDATADIR: /home/kchung25/anaconda3/envs/psi4_19/share/psi4
    Memory:     55.9 GiB
    Threads:    6
    
  ==> Input QCSchema <==

--------------------------------------------------------------------------
{'driver': 'energy',
 'extras': {'psiapi': True, 'wfn_qcvars_only': True},
 'id': None,
 'keywords': {'SCF_TYPE': 'DF', 'function_kwargs': {}},
 'model': {'basis': 'aug-cc-pvtz', 'method': 'mp2'},
 'molecule': {'atom_labels': ['', ''],
              'atomic_numbers': [3, 35],
              'extras': {},
              'fix_com': True,
              'fix_orientation': True,
              'fix_symmetry': 'c1',
              'fragment_charges': [1.0, -1.0],
              'fragment_multiplicities': [1, 1],
              'fragments': [[0], [1]],
              'geometry': [0.0, 0.0, 0.0, 4.307197955698389, 0.0, 0.0],
              'mass_numbers': [7, 79],
              'masses': [7.0160034366, 78.9183376],
              'molecular_charge': 0.0,
              'molecular_multiplicity': 1,
              'name': 'dimer',
              'provenance': {'creator': 'QCElemental',
                             'routine': 'qcelemental.molparse.from_string',
                             'version': '0.27.1'},
              'real': [True, True],
              'schema_name': 'qcschema_molecule',
              'schema_version': 2,
              'symbols': ['Li', 'Br'],
              'validated': True},
 'protocols': {'stdout': True},
 'provenance': {'creator': 'QCElemental', 'routine': 'qcelemental.models.results', 'version': '0.27.1'},
 'schema_name': 'qcschema_input',
 'schema_version': 1}
--------------------------------------------------------------------------

Scratch directory: /scratch/
   => Libint2 <=

    Primary   basis highest AM E, G, H:  5, 4, 3
    Auxiliary basis highest AM E, G, H:  6, 5, 4
    Onebody   basis highest AM E, G, H:  6, 5, 4
    Solid Harmonics ordering:            gaussian

*** tstart() called on moses-razer
*** at Thu Dec 28 16:22:30 2023

   => Loading Basis Set <=

    Name: AUG-CC-PVTZ
    Role: ORBITAL
    Keyword: BASIS
    atoms 1 entry LI         line    85 file /home/kchung25/anaconda3/envs/p415env/share/psi4/basis/aug-cc-pvtz.gbs 
    atoms 2 entry BR         line  4564 file /home/kchung25/anaconda3/envs/p415env/share/psi4/basis/aug-cc-pvtz.gbs 


         ---------------------------------------------------------
                                   SCF
               by Justin Turney, Rob Parrish, Andy Simmonett
                          and Daniel G. A. Smith
                              RHF Reference
                        6 Threads,  57220 MiB Core
         ---------------------------------------------------------

  ==> Geometry <==

    Molecular point group: c1
    Full point group: C_inf_v

    Geometry (in Bohr), charge = 0, multiplicity = 1:

       Center              X                  Y                   Z               Mass       
    ------------   -----------------  -----------------  -----------------  -----------------
         LI           0.000000000000     0.000000000000     0.000000000000     7.016003436600
         BR           4.307197955698     0.000000000000     0.000000000000    78.918337600000

  Running in c1 symmetry.

  Rotational constants: A = ************  B =      0.04112  C =      0.04112 [cm^-1]
  Rotational constants: A = ************  B =   1232.67146  C =   1232.67146 [MHz]
  Nuclear repulsion =   24.377797602983588

  Charge       = 0
  Multiplicity = 1
  Electrons    = 38
  Nalpha       = 19
  Nbeta        = 19

  ==> Algorithm <==

  SCF Algorithm Type is DF.
  DIIS enabled.
  MOM disabled.
  Fractional occupation disabled.
  Guess Type is SAD.
  Energy threshold   = 1.00e-08
  Density threshold  = 1.00e-08
  Integral threshold = 1.00e-12

  ==> Primary Basis <==

  Basis Set: AUG-CC-PVTZ
    Blend: AUG-CC-PVTZ
    Number of shells: 33
    Number of basis functions: 105
    Number of Cartesian functions: 124
    Spherical Harmonics?: true
    Max angular momentum: 3

   => Loading Basis Set <=

    Name: (AUG-CC-PVTZ AUX)
    Role: JKFIT
    Keyword: DF_BASIS_SCF
    atoms 1 entry LI         line    54 file /home/kchung25/anaconda3/envs/p415env/share/psi4/basis/def2-universal-jkfit.gbs 
    atoms 2 entry BR         line  1492 file /home/kchung25/anaconda3/envs/p415env/share/psi4/basis/aug-cc-pvtz-jkfit.gbs 

  ==> Integral Setup <==

  DFHelper Memory: AOs need 0.028 GiB; user supplied 41.910 GiB. 
  Using in-core AOs.

  ==> MemDFJK: Density-Fitted J/K Matrices <==

    J tasked:                   Yes
    K tasked:                   Yes
    wK tasked:                   No
    OpenMP threads:               6
    Memory [MiB]:             42915
    Algorithm:                 Core
    Schwarz Cutoff:           1E-12
    Mask sparsity (%):       0.0000
    Fitting Condition:        1E-10

   => Auxiliary Basis Set <=

  Basis Set: (AUG-CC-PVTZ AUX)
    Blend: AUG-CC-PVTZ-JKFIT + DEF2-UNIVERSAL-JKFIT
    Number of shells: 75
    Number of basis functions: 299
    Number of Cartesian functions: 389
    Spherical Harmonics?: true
    Max angular momentum: 4

  Minimum eigenvalue in the overlap matrix is 5.8911141067E-04.
  Reciprocal condition number of the overlap matrix is 1.0849368001E-04.
    Using symmetric orthogonalization.

  ==> Pre-Iterations <==

  SCF Guess: Superposition of Atomic Densities via on-the-fly atomic UHF (no occupation information).

   -------------------------
    Irrep   Nso     Nmo    
   -------------------------
     A        105     105 
   -------------------------
    Total     105     105
   -------------------------

  ==> Iterations <==

                           Total Energy        Delta E     RMS |[F,P]|

   @DF-RHF iter SAD: -2577.83510513187139   -2.57784e+03   0.00000e+00 
   @DF-RHF iter   1: -2579.74058897923715   -1.90548e+00   9.97035e-03 ADIIS/DIIS
   @DF-RHF iter   2: -2579.93970636393306   -1.99117e-01   5.34500e-03 ADIIS/DIIS
   @DF-RHF iter   3: -2579.99869028190051   -5.89839e-02   1.24573e-04 ADIIS/DIIS
   @DF-RHF iter   4: -2579.99875778267642   -6.75008e-05   2.57637e-05 DIIS
   @DF-RHF iter   5: -2579.99876364219972   -5.85952e-06   8.04577e-06 DIIS
   @DF-RHF iter   6: -2579.99876447176803   -8.29568e-07   2.08758e-06 DIIS
   @DF-RHF iter   7: -2579.99876459037705   -1.18609e-07   3.46491e-07 DIIS
   @DF-RHF iter   8: -2579.99876459399502   -3.61797e-09   5.62438e-08 DIIS
   @DF-RHF iter   9: -2579.99876459408461   -8.95852e-11   9.63191e-09 DIIS
  Energy and wave function converged.


  ==> Post-Iterations <==

    Orbital Energies [Eh]
    ---------------------

    Doubly Occupied:                                                      

       1A   -489.929660     2A    -65.069972     3A    -58.424477  
       4A    -58.424409     5A    -58.424409     6A     -9.742491  
       7A     -7.350440     8A     -7.349598     9A     -7.349598  
      10A     -3.092208    11A     -3.091793    12A     -3.091793  
      13A     -3.090873    14A     -3.090873    15A     -2.501131  
      16A     -0.903503    17A     -0.375241    18A     -0.347780  
      19A     -0.347780  

    Virtual:                                                              

      20A     -0.019214    21A      0.015031    22A      0.015031  
      23A      0.017979    24A      0.026138    25A      0.047734  
      26A      0.047734    27A      0.069641    28A      0.105728  
      29A      0.105728    30A      0.111933    31A      0.117093  
      32A      0.126504    33A      0.126504    34A      0.137885  
      35A      0.137885    36A      0.151717    37A      0.151717  
      38A      0.155143    39A      0.213168    40A      0.278878  
      41A      0.278878    42A      0.286197    43A      0.286197  
      44A      0.302609    45A      0.303325    46A      0.303325  
      47A      0.322509    48A      0.325675    49A      0.325675  
      50A      0.356480    51A      0.356480    52A      0.373754  
      53A      0.406486    54A      0.406486    55A      0.415465  
      56A      0.415465    57A      0.415914    58A      0.478783  
      59A      0.478783    60A      0.537321    61A      0.698922  
      62A      0.698922    63A      0.704465    64A      0.704465  
      65A      0.735371    66A      0.735371    67A      0.741300  
      68A      0.762308    69A      0.762308    70A      0.787477  
      71A      0.787477    72A      0.790346    73A      0.790346  
      74A      0.803892    75A      0.818974    76A      0.932669  
      77A      0.932669    78A      1.034419    79A      1.034419  
      80A      1.055261    81A      1.071928    82A      1.071928  
      83A      1.141391    84A      1.162252    85A      1.162252  
      86A      1.329489    87A      1.329489    88A      1.492430  
      89A      2.319154    90A      2.319154    91A      2.383790  
      92A      2.393543    93A      2.393543    94A      2.412184  
      95A      2.412184    96A      2.452845    97A      2.466892  
      98A      2.466892    99A      2.530230   100A      2.530230  
     101A      2.568099   102A      2.568099   103A      2.682805  
     104A      3.326903   105A      4.402782  

    Final Occupation by Irrep:
              A 
    DOCC [    19 ]
    NA   [    19 ]
    NB   [    19 ]

  @DF-RHF Final Energy: -2579.99876459408461

   => Energetics <=

    Nuclear Repulsion Energy =             24.3777976029835877
    One-Electron Energy =               -3644.7570710702384531
    Two-Electron Energy =                1040.3805088731701289
    Total Energy =                      -2579.9987645940846051

Computation Completed


Properties will be evaluated at   0.000000,   0.000000,   0.000000 [a0]

Properties computed using the SCF density matrix


 Multipole Moments:

 ------------------------------------------------------------------------------------
     Multipole            Electronic (a.u.)      Nuclear  (a.u.)        Total (a.u.)
 ------------------------------------------------------------------------------------

 L = 1.  Multiply by 2.5417464519 to convert [e a0] to [Debye]
 Dipole X            :       -153.8688190          150.7519284           -3.1168906
 Dipole Y            :         -0.0000000            0.0000000           -0.0000000
 Dipole Z            :         -0.0000000            0.0000000           -0.0000000
 Magnitude           :                                                    3.1168906

 ------------------------------------------------------------------------------------

*** tstop() called on moses-razer at Thu Dec 28 16:22:33 2023
Module time:
	user time   =       8.38 seconds =       0.14 minutes
	system time =       1.14 seconds =       0.02 minutes
	total time  =          3 seconds =       0.05 minutes
Total time:
	user time   =      28.43 seconds =       0.47 minutes
	system time =       3.53 seconds =       0.06 minutes
	total time  =         12 seconds =       0.20 minutes

*** tstart() called on moses-razer
*** at Thu Dec 28 16:22:33 2023


  //>>>>>>>>>>>>>>>>>>>>>>>>>>>>>>>>>>>//
  //               DFMP2               //
  //<<<<<<<<<<<<<<<<<<<<<<<<<<<<<<<<<<<//

   => Loading Basis Set <=

    Name: (AUG-CC-PVTZ AUX)
    Role: RIFIT
    Keyword: DF_BASIS_MP2
    atoms 1 entry LI         line    90 file /home/kchung25/anaconda3/envs/p415env/share/psi4/basis/def2-qzvpp-ri.gbs 
    atoms 2 entry BR         line  1248 file /home/kchung25/anaconda3/envs/p415env/share/psi4/basis/aug-cc-pvtz-ri.gbs 

	 --------------------------------------------------------
	                          DF-MP2                         
	      2nd-Order Density-Fitted Moller-Plesset Theory     
	              RMP2 Wavefunction,   6 Threads             
	                                                         
	        Rob Parrish, Justin Turney, Andy Simmonett,      
	           Ed Hohenstein, and C. David Sherrill          
	 --------------------------------------------------------

   => Auxiliary Basis Set <=

  Basis Set: (AUG-CC-PVTZ AUX)
    Blend: AUG-CC-PVTZ-RI + DEF2-QZVPP-RI
    Number of shells: 70
    Number of basis functions: 292
    Number of Cartesian functions: 391
    Spherical Harmonics?: true
    Max angular momentum: 5

	 --------------------------------------------------------
	                 NBF =   105, NAUX =   292
	 --------------------------------------------------------
	   CLASS    FOCC     OCC    AOCC    AVIR     VIR    FVIR
	   PAIRS       0      19      19      86      86       0
	 --------------------------------------------------------

	-----------------------------------------------------------
	 ==================> DF-MP2 Energies <==================== 
	-----------------------------------------------------------
	 Reference Energy          =   -2579.9987645940846051 [Eh]
	 Singles Energy            =      -0.0000000000000000 [Eh]
	 Same-Spin Energy          =      -0.0885095774139129 [Eh]
	 Opposite-Spin Energy      =      -0.2172311080183511 [Eh]
	 Correlation Energy        =      -0.3057406854322640 [Eh]
	 Total Energy              =   -2580.3045052795168885 [Eh]
	-----------------------------------------------------------
	 ================> DF-SCS-MP2 Energies <================== 
	-----------------------------------------------------------
	 SCS Same-Spin Scale       =       0.3333333333333333 [-]
	 SCS Opposite-Spin Scale   =       1.2000000000000000 [-]
	 SCS Same-Spin Energy      =      -0.0295031924713043 [Eh]
	 SCS Opposite-Spin Energy  =      -0.2606773296220213 [Eh]
	 SCS Correlation Energy    =      -0.2901805220933256 [Eh]
	 SCS Total Energy          =   -2580.2889451161777288 [Eh]
	-----------------------------------------------------------


*** tstop() called on moses-razer at Thu Dec 28 16:22:35 2023
Module time:
	user time   =       3.17 seconds =       0.05 minutes
	system time =       0.33 seconds =       0.01 minutes
	total time  =          2 seconds =       0.03 minutes
Total time:
	user time   =      31.60 seconds =       0.53 minutes
	system time =       3.86 seconds =       0.06 minutes
	total time  =         14 seconds =       0.23 minutes

    Psi4 stopped on: Thursday, 28 December 2023 04:22PM
    Psi4 wall time for execution: 0:00:04.81


  //>>>>>>>>>>>>>>>>>>>>>>>>>>>>>>>>>>>//
  //          ManyBody Results         //
  //<<<<<<<<<<<<<<<<<<<<<<<<<<<<<<<<<<<//


   ==> N-Body: Counterpoise Corrected (CP) energies <==

        n-Body     Total Energy            Interaction Energy                          N-body Contribution to Interaction Energy
                   [Eh]                    [Eh]                  [kcal/mol]            [Eh]                  [kcal/mol]
             1  N/A                         0.000000000000        0.000000000000        0.000000000000        0.000000000000
  FULL/RTN   2  N/A                        -0.229030684839     -143.718924521955       -0.229030684839     -143.718924521955


    Psi4 stopped on: Thursday, 28 December 2023 04:22PM
    Psi4 wall time for execution: 0:00:14.92

*** Psi4 exiting successfully. Buy a developer a beer!
