
    -----------------------------------------------------------------------
          Psi4: An Open-Source Ab Initio Electronic Structure Package
                               Psi4 1.9 release

                         Git: Rev {} zzzzzzz 


    D. G. A. Smith, L. A. Burns, A. C. Simmonett, R. M. Parrish,
    M. C. Schieber, R. Galvelis, P. Kraus, H. Kruse, R. Di Remigio,
    A. Alenaizan, A. M. James, S. Lehtola, J. P. Misiewicz, M. Scheurer,
    R. A. Shaw, J. B. Schriber, Y. Xie, Z. L. Glick, D. A. Sirianni,
    J. S. O'Brien, J. M. Waldrop, A. Kumar, E. G. Hohenstein,
    B. P. Pritchard, B. R. Brooks, H. F. Schaefer III, A. Yu. Sokolov,
    K. Patkowski, A. E. DePrince III, U. Bozkaya, R. A. King,
    F. A. Evangelista, J. M. Turney, T. D. Crawford, C. D. Sherrill,
    J. Chem. Phys. 152(18) 184108 (2020). https://doi.org/10.1063/5.0006002

                            Additional Code Authors
    E. T. Seidl, C. L. Janssen, E. F. Valeev, M. L. Leininger,
    J. F. Gonthier, R. M. Richard, H. R. McAlexander, M. Saitow, X. Wang,
    P. Verma, M. H. Lechner, A. Jiang, S. Behnle, A. G. Heide,
    M. F. Herbst, and D. L. Poole

             Previous Authors, Complete List of Code Contributors,
                       and Citations for Specific Modules
    https://github.com/psi4/psi4/blob/master/codemeta.json
    https://github.com/psi4/psi4/graphs/contributors
    http://psicode.org/psi4manual/master/introduction.html#citing-psifour

    -----------------------------------------------------------------------


    Psi4 started on: Thursday, 28 December 2023 04:25PM

    Process ID: 82939
    Host:       moses-razer
    PSIDATADIR: /home/kchung25/anaconda3/envs/psi4_19/share/psi4
    Memory:     500.0 MiB
    Threads:    6
    
  ==> Input File <==

--------------------------------------------------------------------------
MEMORY 60 GB

molecule dimer {
1 1
Na     0.000000     0.000000     0.000000
--
-1 1
F     3.879160     0.000000     0.000000

units ang
no_reorient
no_com
symmetry c1
}

set {
basis        aug-cc-pVTZ
scf_type     df
}

energy("mp2", bsse_type="cp")
--------------------------------------------------------------------------

  Memory set to  55.879 GiB by Python driver.

Scratch directory: /scratch/

  //>>>>>>>>>>>>>>>>>>>>>>>>>>>>>>>>>>>>>//
  // ManyBody Setup: N-Body Levels [1, 2]//
  //<<<<<<<<<<<<<<<<<<<<<<<<<<<<<<<<<<<<<//

        Number of 1-body computations:     2
        Number of 2-body computations:     1

    -----------------------------------------------------------------------
          Psi4: An Open-Source Ab Initio Electronic Structure Package
                               Psi4 1.9 release

                         Git: Rev {} zzzzzzz 


    D. G. A. Smith, L. A. Burns, A. C. Simmonett, R. M. Parrish,
    M. C. Schieber, R. Galvelis, P. Kraus, H. Kruse, R. Di Remigio,
    A. Alenaizan, A. M. James, S. Lehtola, J. P. Misiewicz, M. Scheurer,
    R. A. Shaw, J. B. Schriber, Y. Xie, Z. L. Glick, D. A. Sirianni,
    J. S. O'Brien, J. M. Waldrop, A. Kumar, E. G. Hohenstein,
    B. P. Pritchard, B. R. Brooks, H. F. Schaefer III, A. Yu. Sokolov,
    K. Patkowski, A. E. DePrince III, U. Bozkaya, R. A. King,
    F. A. Evangelista, J. M. Turney, T. D. Crawford, C. D. Sherrill,
    J. Chem. Phys. 152(18) 184108 (2020). https://doi.org/10.1063/5.0006002

                            Additional Code Authors
    E. T. Seidl, C. L. Janssen, E. F. Valeev, M. L. Leininger,
    J. F. Gonthier, R. M. Richard, H. R. McAlexander, M. Saitow, X. Wang,
    P. Verma, M. H. Lechner, A. Jiang, S. Behnle, A. G. Heide,
    M. F. Herbst, and D. L. Poole

             Previous Authors, Complete List of Code Contributors,
                       and Citations for Specific Modules
    https://github.com/psi4/psi4/blob/master/codemeta.json
    https://github.com/psi4/psi4/graphs/contributors
    http://psicode.org/psi4manual/master/introduction.html#citing-psifour

    -----------------------------------------------------------------------


    Psi4 started on: Thursday, 28 December 2023 04:25PM

    Process ID: 82939
    Host:       moses-razer
    PSIDATADIR: /home/kchung25/anaconda3/envs/psi4_19/share/psi4
    Memory:     55.9 GiB
    Threads:    6
    
  ==> Input QCSchema <==

--------------------------------------------------------------------------
{'driver': 'energy',
 'extras': {'psiapi': True, 'wfn_qcvars_only': True},
 'id': None,
 'keywords': {'SCF_TYPE': 'DF', 'function_kwargs': {}},
 'model': {'basis': 'aug-cc-pvtz', 'method': 'mp2'},
 'molecule': {'atom_labels': ['', ''],
              'atomic_numbers': [11, 9],
              'extras': {},
              'fix_com': True,
              'fix_orientation': True,
              'fix_symmetry': 'c1',
              'fragment_charges': [0.0, -1.0],
              'fragment_multiplicities': [1, 1],
              'fragments': [[0], [1]],
              'geometry': [0.0, 0.0, 0.0, 7.330549996830989, 0.0, 0.0],
              'mass_numbers': [23, 19],
              'masses': [22.989769282, 18.99840316273],
              'molecular_charge': -1.0,
              'molecular_multiplicity': 1,
              'name': 'dimer',
              'provenance': {'creator': 'QCElemental',
                             'routine': 'qcelemental.molparse.from_string',
                             'version': '0.27.1'},
              'real': [False, True],
              'schema_name': 'qcschema_molecule',
              'schema_version': 2,
              'symbols': ['Na', 'F'],
              'validated': True},
 'protocols': {'stdout': True},
 'provenance': {'creator': 'QCElemental', 'routine': 'qcelemental.models.results', 'version': '0.27.1'},
 'schema_name': 'qcschema_input',
 'schema_version': 1}
--------------------------------------------------------------------------

Scratch directory: /scratch/
   => Libint2 <=

    Primary   basis highest AM E, G, H:  5, 4, 3
    Auxiliary basis highest AM E, G, H:  6, 5, 4
    Onebody   basis highest AM E, G, H:  6, 5, 4
    Solid Harmonics ordering:            gaussian

*** tstart() called on moses-razer
*** at Thu Dec 28 16:25:28 2023

   => Loading Basis Set <=

    Name: AUG-CC-PVTZ
    Role: ORBITAL
    Keyword: BASIS
    atoms 1 entry NA         line   469 file /home/kchung25/anaconda3/envs/p415env/share/psi4/basis/aug-cc-pvtz.gbs 
    atoms 2 entry F          line   377 file /home/kchung25/anaconda3/envs/p415env/share/psi4/basis/aug-cc-pvtz.gbs 


         ---------------------------------------------------------
                                   SCF
               by Justin Turney, Rob Parrish, Andy Simmonett
                          and Daniel G. A. Smith
                              RHF Reference
                        6 Threads,  57220 MiB Core
         ---------------------------------------------------------

  ==> Geometry <==

    Molecular point group: c1
    Full point group: C_inf_v

    Geometry (in Bohr), charge = -1, multiplicity = 1:

       Center              X                  Y                   Z               Mass       
    ------------   -----------------  -----------------  -----------------  -----------------
      Gh(NA)          0.000000000000     0.000000000000     0.000000000000    22.989769282000
         F            7.330549996831     0.000000000000     0.000000000000    18.998403162730

  Running in c1 symmetry.

  Rotational constants: A = ************  B =      0.05897  C =      0.05897 [cm^-1]
  Rotational constants: A = ************  B =   1767.76574  C =   1767.76574 [MHz]
  Nuclear repulsion =    0.000000000000000

  Charge       = -1
  Multiplicity = 1
  Electrons    = 10
  Nalpha       = 5
  Nbeta        = 5

  ==> Algorithm <==

  SCF Algorithm Type is DF.
  DIIS enabled.
  MOM disabled.
  Fractional occupation disabled.
  Guess Type is SAD.
  Energy threshold   = 1.00e-08
  Density threshold  = 1.00e-08
  Integral threshold = 1.00e-12

  ==> Primary Basis <==

  Basis Set: AUG-CC-PVTZ
    Blend: AUG-CC-PVTZ
    Number of shells: 30
    Number of basis functions: 96
    Number of Cartesian functions: 114
    Spherical Harmonics?: true
    Max angular momentum: 3

   => Loading Basis Set <=

    Name: (AUG-CC-PVTZ AUX)
    Role: JKFIT
    Keyword: DF_BASIS_SCF
    atoms 1 entry NA         line   498 file /home/kchung25/anaconda3/envs/p415env/share/psi4/basis/def2-universal-jkfit.gbs 
    atoms 2 entry F          line   348 file /home/kchung25/anaconda3/envs/p415env/share/psi4/basis/aug-cc-pvtz-jkfit.gbs 

  ==> Integral Setup <==

  DFHelper Memory: AOs need 0.017 GiB; user supplied 41.910 GiB. 
  Using in-core AOs.

  ==> MemDFJK: Density-Fitted J/K Matrices <==

    J tasked:                   Yes
    K tasked:                   Yes
    wK tasked:                   No
    OpenMP threads:               6
    Memory [MiB]:             42915
    Algorithm:                 Core
    Schwarz Cutoff:           1E-12
    Mask sparsity (%):       0.0000
    Fitting Condition:        1E-10

   => Auxiliary Basis Set <=

  Basis Set: (AUG-CC-PVTZ AUX)
    Blend: AUG-CC-PVTZ-JKFIT + DEF2-UNIVERSAL-JKFIT
    Number of shells: 64
    Number of basis functions: 216
    Number of Cartesian functions: 268
    Spherical Harmonics?: true
    Max angular momentum: 4

  Minimum eigenvalue in the overlap matrix is 3.0512321643E-03.
  Reciprocal condition number of the overlap matrix is 7.2148837161E-04.
    Using symmetric orthogonalization.

  ==> Pre-Iterations <==

  SCF Guess: Superposition of Atomic Densities via on-the-fly atomic UHF (no occupation information).

   -------------------------
    Irrep   Nso     Nmo    
   -------------------------
     A         96      96 
   -------------------------
    Total      96      96
   -------------------------

  ==> Iterations <==

                           Total Energy        Delta E     RMS |[F,P]|

   @DF-RHF iter SAD:   -98.82535127954017   -9.88254e+01   0.00000e+00 
   @DF-RHF iter   1:   -99.33790192334240   -5.12551e-01   5.68919e-03 DIIS/ADIIS
   @DF-RHF iter   2:   -99.37326873840706   -3.53668e-02   5.54200e-03 DIIS/ADIIS
   @DF-RHF iter   3:   -99.45075117945370   -7.74824e-02   1.55107e-04 DIIS/ADIIS
   @DF-RHF iter   4:   -99.45081109763288   -5.99182e-05   6.39546e-05 DIIS
   @DF-RHF iter   5:   -99.45082098079875   -9.88317e-06   4.72760e-06 DIIS
   @DF-RHF iter   6:   -99.45082109898746   -1.18189e-07   3.36059e-07 DIIS
   @DF-RHF iter   7:   -99.45082109967669   -6.89226e-10   3.82299e-08 DIIS
   @DF-RHF iter   8:   -99.45082109969954   -2.28511e-11   5.84000e-09 DIIS
  Energy and wave function converged.


  ==> Post-Iterations <==

    Orbital Energies [Eh]
    ---------------------

    Doubly Occupied:                                                      

       1A    -25.833853     2A     -1.076110     3A     -0.181037  
       4A     -0.181029     5A     -0.181029  

    Virtual:                                                              

       6A      0.071823     7A      0.084377     8A      0.084377  
       9A      0.107984    10A      0.133074    11A      0.137999  
      12A      0.137999    13A      0.160600    14A      0.162612  
      15A      0.162612    16A      0.185377    17A      0.185377  
      18A      0.216967    19A      0.257057    20A      0.257057  
      21A      0.274198    22A      0.305295    23A      0.356469  
      24A      0.356469    25A      0.365245    26A      0.365245  
      27A      0.371393    28A      0.387445    29A      0.387445  
      30A      0.410058    31A      0.410058    32A      0.439332  
      33A      0.443566    34A      0.443566    35A      0.503260  
      36A      0.503260    37A      0.512356    38A      0.530629  
      39A      0.530629    40A      0.562558    41A      0.692112  
      42A      0.838902    43A      0.838902    44A      0.845542  
      45A      0.845542    46A      0.870923    47A      0.891532  
      48A      0.891532    49A      0.904740    50A      0.904740  
      51A      0.930839    52A      0.932148    53A      0.932148  
      54A      1.024924    55A      1.236060    56A      1.236060  
      57A      1.282125    58A      1.282125    59A      1.354221  
      60A      1.555970    61A      1.555970    62A      1.575511  
      63A      2.270651    64A      3.288253    65A      3.288253  
      66A      3.314296    67A      3.314296    68A      3.328992  
      69A      3.332092    70A      3.332092    71A      3.333143  
      72A      3.333143    73A      3.339993    74A      3.339993  
      75A      3.364184    76A      4.425915    77A      5.694343  
      78A      5.694343    79A      5.708730    80A      6.442507  
      81A      6.442507    82A      6.453591    83A      9.275627  
      84A      9.275627    85A      9.276182    86A      9.276182  
      87A      9.277574    88A      9.277574    89A      9.279744  
      90A      9.759496    91A      9.759496    92A      9.779418  
      93A      9.779418    94A      9.799238    95A     11.448018  
      96A     64.473469  

    Final Occupation by Irrep:
              A 
    DOCC [     5 ]
    NA   [     5 ]
    NB   [     5 ]

  @DF-RHF Final Energy:   -99.45082109969954

   => Energetics <=

    Nuclear Repulsion Energy =              0.0000000000000000
    One-Electron Energy =                -143.9955235241604612
    Two-Electron Energy =                  44.5447024244609153
    Total Energy =                        -99.4508210996995388

Computation Completed


Properties will be evaluated at   0.000000,   0.000000,   0.000000 [a0]

Properties computed using the SCF density matrix


 Multipole Moments:

 ------------------------------------------------------------------------------------
     Multipole            Electronic (a.u.)      Nuclear  (a.u.)        Total (a.u.)
 ------------------------------------------------------------------------------------

 L = 1.  Multiply by 2.5417464519 to convert [e a0] to [Debye]
 Dipole X            :        -73.3055498           65.9749500           -7.3305998
 Dipole Y            :          0.0000000            0.0000000            0.0000000
 Dipole Z            :         -0.0000000            0.0000000           -0.0000000
 Magnitude           :                                                    7.3305998

 ------------------------------------------------------------------------------------

*** tstop() called on moses-razer at Thu Dec 28 16:25:29 2023
Module time:
	user time   =       4.68 seconds =       0.08 minutes
	system time =       0.45 seconds =       0.01 minutes
	total time  =          1 seconds =       0.02 minutes
Total time:
	user time   =       4.68 seconds =       0.08 minutes
	system time =       0.45 seconds =       0.01 minutes
	total time  =          1 seconds =       0.02 minutes

*** tstart() called on moses-razer
*** at Thu Dec 28 16:25:29 2023


  //>>>>>>>>>>>>>>>>>>>>>>>>>>>>>>>>>>>//
  //               DFMP2               //
  //<<<<<<<<<<<<<<<<<<<<<<<<<<<<<<<<<<<//

   => Loading Basis Set <=

    Name: (AUG-CC-PVTZ AUX)
    Role: RIFIT
    Keyword: DF_BASIS_MP2
    atoms 1 entry NA         line   610 file /home/kchung25/anaconda3/envs/p415env/share/psi4/basis/def2-qzvpp-ri.gbs 
    atoms 2 entry F          line   322 file /home/kchung25/anaconda3/envs/p415env/share/psi4/basis/aug-cc-pvtz-ri.gbs 

	 --------------------------------------------------------
	                          DF-MP2                         
	      2nd-Order Density-Fitted Moller-Plesset Theory     
	              RMP2 Wavefunction,   6 Threads             
	                                                         
	        Rob Parrish, Justin Turney, Andy Simmonett,      
	           Ed Hohenstein, and C. David Sherrill          
	 --------------------------------------------------------

   => Auxiliary Basis Set <=

  Basis Set: (AUG-CC-PVTZ AUX)
    Blend: AUG-CC-PVTZ-RI + DEF2-QZVPP-RI
    Number of shells: 70
    Number of basis functions: 272
    Number of Cartesian functions: 350
    Spherical Harmonics?: true
    Max angular momentum: 4

	 --------------------------------------------------------
	                 NBF =    96, NAUX =   272
	 --------------------------------------------------------
	   CLASS    FOCC     OCC    AOCC    AVIR     VIR    FVIR
	   PAIRS       0       5       5      91      91       0
	 --------------------------------------------------------

	-----------------------------------------------------------
	 ==================> DF-MP2 Energies <==================== 
	-----------------------------------------------------------
	 Reference Energy          =     -99.4508210996995388 [Eh]
	 Singles Energy            =      -0.0000000000000000 [Eh]
	 Same-Spin Energy          =      -0.0815924237779385 [Eh]
	 Opposite-Spin Energy      =      -0.2264280911118433 [Eh]
	 Correlation Energy        =      -0.3080205148897818 [Eh]
	 Total Energy              =     -99.7588416145893149 [Eh]
	-----------------------------------------------------------
	 ================> DF-SCS-MP2 Energies <================== 
	-----------------------------------------------------------
	 SCS Same-Spin Scale       =       0.3333333333333333 [-]
	 SCS Opposite-Spin Scale   =       1.2000000000000000 [-]
	 SCS Same-Spin Energy      =      -0.0271974745926462 [Eh]
	 SCS Opposite-Spin Energy  =      -0.2717137093342119 [Eh]
	 SCS Correlation Energy    =      -0.2989111839268581 [Eh]
	 SCS Total Energy          =     -99.7497322836264004 [Eh]
	-----------------------------------------------------------


*** tstop() called on moses-razer at Thu Dec 28 16:25:30 2023
Module time:
	user time   =       1.78 seconds =       0.03 minutes
	system time =       0.24 seconds =       0.00 minutes
	total time  =          1 seconds =       0.02 minutes
Total time:
	user time   =       6.47 seconds =       0.11 minutes
	system time =       0.70 seconds =       0.01 minutes
	total time  =          2 seconds =       0.03 minutes

    Psi4 stopped on: Thursday, 28 December 2023 04:25PM
    Psi4 wall time for execution: 0:00:01.81


    -----------------------------------------------------------------------
          Psi4: An Open-Source Ab Initio Electronic Structure Package
                               Psi4 1.9 release

                         Git: Rev {} zzzzzzz 


    D. G. A. Smith, L. A. Burns, A. C. Simmonett, R. M. Parrish,
    M. C. Schieber, R. Galvelis, P. Kraus, H. Kruse, R. Di Remigio,
    A. Alenaizan, A. M. James, S. Lehtola, J. P. Misiewicz, M. Scheurer,
    R. A. Shaw, J. B. Schriber, Y. Xie, Z. L. Glick, D. A. Sirianni,
    J. S. O'Brien, J. M. Waldrop, A. Kumar, E. G. Hohenstein,
    B. P. Pritchard, B. R. Brooks, H. F. Schaefer III, A. Yu. Sokolov,
    K. Patkowski, A. E. DePrince III, U. Bozkaya, R. A. King,
    F. A. Evangelista, J. M. Turney, T. D. Crawford, C. D. Sherrill,
    J. Chem. Phys. 152(18) 184108 (2020). https://doi.org/10.1063/5.0006002

                            Additional Code Authors
    E. T. Seidl, C. L. Janssen, E. F. Valeev, M. L. Leininger,
    J. F. Gonthier, R. M. Richard, H. R. McAlexander, M. Saitow, X. Wang,
    P. Verma, M. H. Lechner, A. Jiang, S. Behnle, A. G. Heide,
    M. F. Herbst, and D. L. Poole

             Previous Authors, Complete List of Code Contributors,
                       and Citations for Specific Modules
    https://github.com/psi4/psi4/blob/master/codemeta.json
    https://github.com/psi4/psi4/graphs/contributors
    http://psicode.org/psi4manual/master/introduction.html#citing-psifour

    -----------------------------------------------------------------------


    Psi4 started on: Thursday, 28 December 2023 04:25PM

    Process ID: 82939
    Host:       moses-razer
    PSIDATADIR: /home/kchung25/anaconda3/envs/psi4_19/share/psi4
    Memory:     55.9 GiB
    Threads:    6
    
  ==> Input QCSchema <==

--------------------------------------------------------------------------
{'driver': 'energy',
 'extras': {'psiapi': True, 'wfn_qcvars_only': True},
 'id': None,
 'keywords': {'SCF_TYPE': 'DF', 'function_kwargs': {}},
 'model': {'basis': 'aug-cc-pvtz', 'method': 'mp2'},
 'molecule': {'atom_labels': ['', ''],
              'atomic_numbers': [11, 9],
              'extras': {},
              'fix_com': True,
              'fix_orientation': True,
              'fix_symmetry': 'c1',
              'fragment_charges': [1.0, 0.0],
              'fragment_multiplicities': [1, 1],
              'fragments': [[0], [1]],
              'geometry': [0.0, 0.0, 0.0, 7.330549996830989, 0.0, 0.0],
              'mass_numbers': [23, 19],
              'masses': [22.989769282, 18.99840316273],
              'molecular_charge': 1.0,
              'molecular_multiplicity': 1,
              'name': 'dimer',
              'provenance': {'creator': 'QCElemental',
                             'routine': 'qcelemental.molparse.from_string',
                             'version': '0.27.1'},
              'real': [True, False],
              'schema_name': 'qcschema_molecule',
              'schema_version': 2,
              'symbols': ['Na', 'F'],
              'validated': True},
 'protocols': {'stdout': True},
 'provenance': {'creator': 'QCElemental', 'routine': 'qcelemental.models.results', 'version': '0.27.1'},
 'schema_name': 'qcschema_input',
 'schema_version': 1}
--------------------------------------------------------------------------

Scratch directory: /scratch/
   => Libint2 <=

    Primary   basis highest AM E, G, H:  5, 4, 3
    Auxiliary basis highest AM E, G, H:  6, 5, 4
    Onebody   basis highest AM E, G, H:  6, 5, 4
    Solid Harmonics ordering:            gaussian

*** tstart() called on moses-razer
*** at Thu Dec 28 16:25:30 2023

   => Loading Basis Set <=

    Name: AUG-CC-PVTZ
    Role: ORBITAL
    Keyword: BASIS
    atoms 1 entry NA         line   469 file /home/kchung25/anaconda3/envs/p415env/share/psi4/basis/aug-cc-pvtz.gbs 
    atoms 2 entry F          line   377 file /home/kchung25/anaconda3/envs/p415env/share/psi4/basis/aug-cc-pvtz.gbs 


         ---------------------------------------------------------
                                   SCF
               by Justin Turney, Rob Parrish, Andy Simmonett
                          and Daniel G. A. Smith
                              RHF Reference
                        6 Threads,  57220 MiB Core
         ---------------------------------------------------------

  ==> Geometry <==

    Molecular point group: c1
    Full point group: C_inf_v

    Geometry (in Bohr), charge = 1, multiplicity = 1:

       Center              X                  Y                   Z               Mass       
    ------------   -----------------  -----------------  -----------------  -----------------
         NA           0.000000000000     0.000000000000     0.000000000000    22.989769282000
      Gh(F)           7.330549996831     0.000000000000     0.000000000000    18.998403162730

  Running in c1 symmetry.

  Rotational constants: A = ************  B =      0.05897  C =      0.05897 [cm^-1]
  Rotational constants: A = ************  B =   1767.76574  C =   1767.76574 [MHz]
  Nuclear repulsion =    0.000000000000000

  Charge       = 1
  Multiplicity = 1
  Electrons    = 10
  Nalpha       = 5
  Nbeta        = 5

  ==> Algorithm <==

  SCF Algorithm Type is DF.
  DIIS enabled.
  MOM disabled.
  Fractional occupation disabled.
  Guess Type is SAD.
  Energy threshold   = 1.00e-08
  Density threshold  = 1.00e-08
  Integral threshold = 1.00e-12

  ==> Primary Basis <==

  Basis Set: AUG-CC-PVTZ
    Blend: AUG-CC-PVTZ
    Number of shells: 30
    Number of basis functions: 96
    Number of Cartesian functions: 114
    Spherical Harmonics?: true
    Max angular momentum: 3

   => Loading Basis Set <=

    Name: (AUG-CC-PVTZ AUX)
    Role: JKFIT
    Keyword: DF_BASIS_SCF
    atoms 1 entry NA         line   498 file /home/kchung25/anaconda3/envs/p415env/share/psi4/basis/def2-universal-jkfit.gbs 
    atoms 2 entry F          line   348 file /home/kchung25/anaconda3/envs/p415env/share/psi4/basis/aug-cc-pvtz-jkfit.gbs 

  ==> Integral Setup <==

  DFHelper Memory: AOs need 0.017 GiB; user supplied 41.910 GiB. 
  Using in-core AOs.

  ==> MemDFJK: Density-Fitted J/K Matrices <==

    J tasked:                   Yes
    K tasked:                   Yes
    wK tasked:                   No
    OpenMP threads:               6
    Memory [MiB]:             42915
    Algorithm:                 Core
    Schwarz Cutoff:           1E-12
    Mask sparsity (%):       0.0000
    Fitting Condition:        1E-10

   => Auxiliary Basis Set <=

  Basis Set: (AUG-CC-PVTZ AUX)
    Blend: AUG-CC-PVTZ-JKFIT + DEF2-UNIVERSAL-JKFIT
    Number of shells: 64
    Number of basis functions: 216
    Number of Cartesian functions: 268
    Spherical Harmonics?: true
    Max angular momentum: 4

  Minimum eigenvalue in the overlap matrix is 3.0512321643E-03.
  Reciprocal condition number of the overlap matrix is 7.2148837161E-04.
    Using symmetric orthogonalization.

  ==> Pre-Iterations <==

  SCF Guess: Superposition of Atomic Densities via on-the-fly atomic UHF (no occupation information).

   -------------------------
    Irrep   Nso     Nmo    
   -------------------------
     A         96      96 
   -------------------------
    Total      96      96
   -------------------------

  ==> Iterations <==

                           Total Energy        Delta E     RMS |[F,P]|

   @DF-RHF iter SAD:  -161.74553379506887   -1.61746e+02   0.00000e+00 
   @DF-RHF iter   1:  -161.67600628282941    6.95275e-02   5.93989e-05 DIIS
   @DF-RHF iter   2:  -161.67602412815705   -1.78453e-05   1.12636e-05 DIIS
   @DF-RHF iter   3:  -161.67602456151425   -4.33357e-07   4.91105e-07 DIIS
   @DF-RHF iter   4:  -161.67602456235537   -8.41112e-10   2.34102e-08 DIIS
   @DF-RHF iter   5:  -161.67602456235721   -1.84741e-12   9.61991e-10 DIIS
  Energy and wave function converged.


  ==> Post-Iterations <==

    Orbital Energies [Eh]
    ---------------------

    Doubly Occupied:                                                      

       1A    -40.763805     2A     -3.075365     3A     -1.798519  
       4A     -1.798507     5A     -1.798507  

    Virtual:                                                              

       6A     -0.181846     7A     -0.109443     8A     -0.109442  
       9A     -0.109442    10A     -0.069864    11A     -0.050370  
      12A     -0.050255    13A     -0.050255    14A     -0.050231  
      15A     -0.050231    16A     -0.048945    17A     -0.048935  
      18A     -0.048935    19A     -0.002379    20A      0.000142  
      21A      0.000282    22A      0.000282    23A      0.051368  
      24A      0.056777    25A      0.056777    26A      0.056983  
      27A      0.058938    28A      0.058938    29A      0.074239  
      30A      0.074239    31A      0.105350    32A      0.105350  
      33A      0.105391    34A      0.105391    35A      0.143549  
      36A      0.157594    37A      0.157594    38A      0.164423  
      39A      0.169661    40A      0.169661    41A      0.222095  
      42A      0.374116    43A      0.374116    44A      0.374917  
      45A      0.374917    46A      0.405027    47A      0.494971  
      48A      0.494971    49A      0.495286    50A      0.495286  
      51A      0.498083    52A      0.508656    53A      0.508656  
      54A      0.685548    55A      0.694555    56A      0.694555  
      57A      0.712814    58A      0.833746    59A      0.833746  
      60A      0.885023    61A      0.885023    62A      0.943655  
      63A      1.528188    64A      2.898966    65A      2.898966  
      66A      2.909729    67A      2.947524    68A      2.947524  
      69A      2.947950    70A      2.947950    71A      2.949252  
      72A      2.949252    73A      2.950941    74A      3.041903  
      75A      3.415091    76A      3.415091    77A      3.446226  
      78A      3.446226    79A      3.492650    80A      9.270348  
      81A     10.018664    82A     10.018664    83A     10.019201  
      84A     10.019201    85A     10.019376    86A     10.019376  
      87A     10.021314    88A     12.807733    89A     12.807733  
      90A     12.825726    91A     12.825726    92A     12.848614  
      93A     14.089958    94A     14.089958    95A     14.103920  
      96A     67.012315  

    Final Occupation by Irrep:
              A 
    DOCC [     5 ]
    NA   [     5 ]
    NB   [     5 ]

  @DF-RHF Final Energy:  -161.67602456235721

   => Energetics <=

    Nuclear Repulsion Energy =              0.0000000000000000
    One-Electron Energy =                -224.8826422943049010
    Two-Electron Energy =                  63.2066177319477163
    Total Energy =                       -161.6760245623571848

Computation Completed


Properties will be evaluated at   0.000000,   0.000000,   0.000000 [a0]

Properties computed using the SCF density matrix


 Multipole Moments:

 ------------------------------------------------------------------------------------
     Multipole            Electronic (a.u.)      Nuclear  (a.u.)        Total (a.u.)
 ------------------------------------------------------------------------------------

 L = 1.  Multiply by 2.5417464519 to convert [e a0] to [Debye]
 Dipole X            :          0.0000614            0.0000000            0.0000614
 Dipole Y            :         -0.0000000            0.0000000           -0.0000000
 Dipole Z            :          0.0000000            0.0000000            0.0000000
 Magnitude           :                                                    0.0000614

 ------------------------------------------------------------------------------------

*** tstop() called on moses-razer at Thu Dec 28 16:25:31 2023
Module time:
	user time   =       5.27 seconds =       0.09 minutes
	system time =       0.77 seconds =       0.01 minutes
	total time  =          1 seconds =       0.02 minutes
Total time:
	user time   =      11.99 seconds =       0.20 minutes
	system time =       1.48 seconds =       0.02 minutes
	total time  =          3 seconds =       0.05 minutes

*** tstart() called on moses-razer
*** at Thu Dec 28 16:25:31 2023


  //>>>>>>>>>>>>>>>>>>>>>>>>>>>>>>>>>>>//
  //               DFMP2               //
  //<<<<<<<<<<<<<<<<<<<<<<<<<<<<<<<<<<<//

   => Loading Basis Set <=

    Name: (AUG-CC-PVTZ AUX)
    Role: RIFIT
    Keyword: DF_BASIS_MP2
    atoms 1 entry NA         line   610 file /home/kchung25/anaconda3/envs/p415env/share/psi4/basis/def2-qzvpp-ri.gbs 
    atoms 2 entry F          line   322 file /home/kchung25/anaconda3/envs/p415env/share/psi4/basis/aug-cc-pvtz-ri.gbs 

	 --------------------------------------------------------
	                          DF-MP2                         
	      2nd-Order Density-Fitted Moller-Plesset Theory     
	              RMP2 Wavefunction,   6 Threads             
	                                                         
	        Rob Parrish, Justin Turney, Andy Simmonett,      
	           Ed Hohenstein, and C. David Sherrill          
	 --------------------------------------------------------

   => Auxiliary Basis Set <=

  Basis Set: (AUG-CC-PVTZ AUX)
    Blend: AUG-CC-PVTZ-RI + DEF2-QZVPP-RI
    Number of shells: 70
    Number of basis functions: 272
    Number of Cartesian functions: 350
    Spherical Harmonics?: true
    Max angular momentum: 4

	 --------------------------------------------------------
	                 NBF =    96, NAUX =   272
	 --------------------------------------------------------
	   CLASS    FOCC     OCC    AOCC    AVIR     VIR    FVIR
	   PAIRS       0       5       5      91      91       0
	 --------------------------------------------------------

	-----------------------------------------------------------
	 ==================> DF-MP2 Energies <==================== 
	-----------------------------------------------------------
	 Reference Energy          =    -161.6760245623572132 [Eh]
	 Singles Energy            =      -0.0000000000000000 [Eh]
	 Same-Spin Energy          =      -0.0019243564206439 [Eh]
	 Opposite-Spin Energy      =      -0.0078223027221930 [Eh]
	 Correlation Energy        =      -0.0097466591428369 [Eh]
	 Total Energy              =    -161.6857712215000618 [Eh]
	-----------------------------------------------------------
	 ================> DF-SCS-MP2 Energies <================== 
	-----------------------------------------------------------
	 SCS Same-Spin Scale       =       0.3333333333333333 [-]
	 SCS Opposite-Spin Scale   =       1.2000000000000000 [-]
	 SCS Same-Spin Energy      =      -0.0006414521402146 [Eh]
	 SCS Opposite-Spin Energy  =      -0.0093867632666316 [Eh]
	 SCS Correlation Energy    =      -0.0100282154068462 [Eh]
	 SCS Total Energy          =    -161.6860527777640471 [Eh]
	-----------------------------------------------------------


*** tstop() called on moses-razer at Thu Dec 28 16:25:32 2023
Module time:
	user time   =       1.92 seconds =       0.03 minutes
	system time =       0.20 seconds =       0.00 minutes
	total time  =          1 seconds =       0.02 minutes
Total time:
	user time   =      13.91 seconds =       0.23 minutes
	system time =       1.68 seconds =       0.03 minutes
	total time  =          4 seconds =       0.07 minutes

    Psi4 stopped on: Thursday, 28 December 2023 04:25PM
    Psi4 wall time for execution: 0:00:02.08


    -----------------------------------------------------------------------
          Psi4: An Open-Source Ab Initio Electronic Structure Package
                               Psi4 1.9 release

                         Git: Rev {} zzzzzzz 


    D. G. A. Smith, L. A. Burns, A. C. Simmonett, R. M. Parrish,
    M. C. Schieber, R. Galvelis, P. Kraus, H. Kruse, R. Di Remigio,
    A. Alenaizan, A. M. James, S. Lehtola, J. P. Misiewicz, M. Scheurer,
    R. A. Shaw, J. B. Schriber, Y. Xie, Z. L. Glick, D. A. Sirianni,
    J. S. O'Brien, J. M. Waldrop, A. Kumar, E. G. Hohenstein,
    B. P. Pritchard, B. R. Brooks, H. F. Schaefer III, A. Yu. Sokolov,
    K. Patkowski, A. E. DePrince III, U. Bozkaya, R. A. King,
    F. A. Evangelista, J. M. Turney, T. D. Crawford, C. D. Sherrill,
    J. Chem. Phys. 152(18) 184108 (2020). https://doi.org/10.1063/5.0006002

                            Additional Code Authors
    E. T. Seidl, C. L. Janssen, E. F. Valeev, M. L. Leininger,
    J. F. Gonthier, R. M. Richard, H. R. McAlexander, M. Saitow, X. Wang,
    P. Verma, M. H. Lechner, A. Jiang, S. Behnle, A. G. Heide,
    M. F. Herbst, and D. L. Poole

             Previous Authors, Complete List of Code Contributors,
                       and Citations for Specific Modules
    https://github.com/psi4/psi4/blob/master/codemeta.json
    https://github.com/psi4/psi4/graphs/contributors
    http://psicode.org/psi4manual/master/introduction.html#citing-psifour

    -----------------------------------------------------------------------


    Psi4 started on: Thursday, 28 December 2023 04:25PM

    Process ID: 82939
    Host:       moses-razer
    PSIDATADIR: /home/kchung25/anaconda3/envs/psi4_19/share/psi4
    Memory:     55.9 GiB
    Threads:    6
    
  ==> Input QCSchema <==

--------------------------------------------------------------------------
{'driver': 'energy',
 'extras': {'psiapi': True, 'wfn_qcvars_only': True},
 'id': None,
 'keywords': {'SCF_TYPE': 'DF', 'function_kwargs': {}},
 'model': {'basis': 'aug-cc-pvtz', 'method': 'mp2'},
 'molecule': {'atom_labels': ['', ''],
              'atomic_numbers': [11, 9],
              'extras': {},
              'fix_com': True,
              'fix_orientation': True,
              'fix_symmetry': 'c1',
              'fragment_charges': [1.0, -1.0],
              'fragment_multiplicities': [1, 1],
              'fragments': [[0], [1]],
              'geometry': [0.0, 0.0, 0.0, 7.330549996830989, 0.0, 0.0],
              'mass_numbers': [23, 19],
              'masses': [22.989769282, 18.99840316273],
              'molecular_charge': 0.0,
              'molecular_multiplicity': 1,
              'name': 'dimer',
              'provenance': {'creator': 'QCElemental',
                             'routine': 'qcelemental.molparse.from_string',
                             'version': '0.27.1'},
              'real': [True, True],
              'schema_name': 'qcschema_molecule',
              'schema_version': 2,
              'symbols': ['Na', 'F'],
              'validated': True},
 'protocols': {'stdout': True},
 'provenance': {'creator': 'QCElemental', 'routine': 'qcelemental.models.results', 'version': '0.27.1'},
 'schema_name': 'qcschema_input',
 'schema_version': 1}
--------------------------------------------------------------------------

Scratch directory: /scratch/
   => Libint2 <=

    Primary   basis highest AM E, G, H:  5, 4, 3
    Auxiliary basis highest AM E, G, H:  6, 5, 4
    Onebody   basis highest AM E, G, H:  6, 5, 4
    Solid Harmonics ordering:            gaussian

*** tstart() called on moses-razer
*** at Thu Dec 28 16:25:32 2023

   => Loading Basis Set <=

    Name: AUG-CC-PVTZ
    Role: ORBITAL
    Keyword: BASIS
    atoms 1 entry NA         line   469 file /home/kchung25/anaconda3/envs/p415env/share/psi4/basis/aug-cc-pvtz.gbs 
    atoms 2 entry F          line   377 file /home/kchung25/anaconda3/envs/p415env/share/psi4/basis/aug-cc-pvtz.gbs 


         ---------------------------------------------------------
                                   SCF
               by Justin Turney, Rob Parrish, Andy Simmonett
                          and Daniel G. A. Smith
                              RHF Reference
                        6 Threads,  57220 MiB Core
         ---------------------------------------------------------

  ==> Geometry <==

    Molecular point group: c1
    Full point group: C_inf_v

    Geometry (in Bohr), charge = 0, multiplicity = 1:

       Center              X                  Y                   Z               Mass       
    ------------   -----------------  -----------------  -----------------  -----------------
         NA           0.000000000000     0.000000000000     0.000000000000    22.989769282000
         F            7.330549996831     0.000000000000     0.000000000000    18.998403162730

  Running in c1 symmetry.

  Rotational constants: A = ************  B =      0.05897  C =      0.05897 [cm^-1]
  Rotational constants: A = ************  B =   1767.76574  C =   1767.76574 [MHz]
  Nuclear repulsion =   13.505125814952207

  Charge       = 0
  Multiplicity = 1
  Electrons    = 20
  Nalpha       = 10
  Nbeta        = 10

  ==> Algorithm <==

  SCF Algorithm Type is DF.
  DIIS enabled.
  MOM disabled.
  Fractional occupation disabled.
  Guess Type is SAD.
  Energy threshold   = 1.00e-08
  Density threshold  = 1.00e-08
  Integral threshold = 1.00e-12

  ==> Primary Basis <==

  Basis Set: AUG-CC-PVTZ
    Blend: AUG-CC-PVTZ
    Number of shells: 30
    Number of basis functions: 96
    Number of Cartesian functions: 114
    Spherical Harmonics?: true
    Max angular momentum: 3

   => Loading Basis Set <=

    Name: (AUG-CC-PVTZ AUX)
    Role: JKFIT
    Keyword: DF_BASIS_SCF
    atoms 1 entry NA         line   498 file /home/kchung25/anaconda3/envs/p415env/share/psi4/basis/def2-universal-jkfit.gbs 
    atoms 2 entry F          line   348 file /home/kchung25/anaconda3/envs/p415env/share/psi4/basis/aug-cc-pvtz-jkfit.gbs 

  ==> Integral Setup <==

  DFHelper Memory: AOs need 0.017 GiB; user supplied 41.910 GiB. 
  Using in-core AOs.

  ==> MemDFJK: Density-Fitted J/K Matrices <==

    J tasked:                   Yes
    K tasked:                   Yes
    wK tasked:                   No
    OpenMP threads:               6
    Memory [MiB]:             42915
    Algorithm:                 Core
    Schwarz Cutoff:           1E-12
    Mask sparsity (%):       0.0000
    Fitting Condition:        1E-10

   => Auxiliary Basis Set <=

  Basis Set: (AUG-CC-PVTZ AUX)
    Blend: AUG-CC-PVTZ-JKFIT + DEF2-UNIVERSAL-JKFIT
    Number of shells: 64
    Number of basis functions: 216
    Number of Cartesian functions: 268
    Spherical Harmonics?: true
    Max angular momentum: 4

  Minimum eigenvalue in the overlap matrix is 3.0512321643E-03.
  Reciprocal condition number of the overlap matrix is 7.2148837161E-04.
    Using symmetric orthogonalization.

  ==> Pre-Iterations <==

  SCF Guess: Superposition of Atomic Densities via on-the-fly atomic UHF (no occupation information).

   -------------------------
    Irrep   Nso     Nmo    
   -------------------------
     A         96      96 
   -------------------------
    Total      96      96
   -------------------------

  ==> Iterations <==

                           Total Energy        Delta E     RMS |[F,P]|

   @DF-RHF iter SAD:  -260.57853390720476   -2.60579e+02   0.00000e+00 
   @DF-RHF iter   1:  -261.15350197793913   -5.74968e-01   5.64182e-03 DIIS/ADIIS
   @DF-RHF iter   2:  -261.17825699507750   -2.47550e-02   5.76044e-03 DIIS/ADIIS
   @DF-RHF iter   3:  -261.26526923893829   -8.70122e-02   1.42956e-04 DIIS/ADIIS
   @DF-RHF iter   4:  -261.26539679924281   -1.27560e-04   7.38636e-05 DIIS
   @DF-RHF iter   5:  -261.26541869372443   -2.18945e-05   7.28863e-06 DIIS
   @DF-RHF iter   6:  -261.26541971058094   -1.01686e-06   1.51889e-06 DIIS
   @DF-RHF iter   7:  -261.26541974425265   -3.36717e-08   3.80735e-07 DIIS
   @DF-RHF iter   8:  -261.26541974743031   -3.17766e-09   1.02199e-07 DIIS
   @DF-RHF iter   9:  -261.26541974778314   -3.52827e-10   4.17441e-08 DIIS
   @DF-RHF iter  10:  -261.26541974783419   -5.10454e-11   4.30781e-09 DIIS
  Energy and wave function converged.


  ==> Post-Iterations <==

    Orbital Energies [Eh]
    ---------------------

    Doubly Occupied:                                                      

       1A    -40.622254     2A    -25.975858     3A     -2.933917  
       4A     -1.657397     5A     -1.657397     6A     -1.656157  
       7A     -1.216762     8A     -0.322124     9A     -0.322124  
      10A     -0.319087  

    Virtual:                                                              

      11A     -0.063037    12A     -0.007257    13A     -0.007257  
      14A     -0.003903    15A      0.016267    16A      0.025728  
      17A      0.025728    18A      0.042561    19A      0.045932  
      20A      0.045932    21A      0.062117    22A      0.062117  
      23A      0.081463    24A      0.090934    25A      0.090934  
      26A      0.092088    27A      0.131880    28A      0.167838  
      29A      0.167838    30A      0.180384    31A      0.180384  
      32A      0.196172    33A      0.218501    34A      0.218501  
      35A      0.237670    36A      0.237670    37A      0.264786  
      38A      0.264786    39A      0.279325    40A      0.288444  
      41A      0.288444    42A      0.299288    43A      0.380608  
      44A      0.380608    45A      0.387516    46A      0.499359  
      47A      0.499359    48A      0.512529    49A      0.512529  
      50A      0.526817    51A      0.576418    52A      0.620342  
      53A      0.620342    54A      0.632216    55A      0.632216  
      56A      0.656761    57A      0.656761    58A      0.657533  
      59A      1.101829    60A      1.101829    61A      1.139159  
      62A      1.139159    63A      1.176888    64A      1.421910  
      65A      1.421910    66A      1.436683    67A      1.665611  
      68A      2.135739    69A      3.149715    70A      3.149715  
      71A      3.171252    72A      3.171252    73A      3.185210  
      74A      3.194106    75A      3.194106    76A      3.195273  
      77A      3.195273    78A      3.200892    79A      3.200892  
      80A      3.228849    81A      5.554392    82A      5.554392  
      83A      5.567319    84A      9.135361    85A      9.135361  
      86A      9.135486    87A      9.135486    88A      9.136694  
      89A      9.136694    90A      9.137032    91A      9.619472  
      92A      9.619472    93A      9.637666    94A      9.637666  
      95A      9.656121    96A     11.307118  

    Final Occupation by Irrep:
              A 
    DOCC [    10 ]
    NA   [    10 ]
    NB   [    10 ]

  @DF-RHF Final Energy:  -261.26541974783419

   => Energetics <=

    Nuclear Repulsion Energy =             13.5051258149522067
    One-Electron Energy =                -396.1749353169171854
    Two-Electron Energy =                 121.4043897541308183
    Total Energy =                       -261.2654197478341871

Computation Completed


Properties will be evaluated at   0.000000,   0.000000,   0.000000 [a0]

Properties computed using the SCF density matrix


 Multipole Moments:

 ------------------------------------------------------------------------------------
     Multipole            Electronic (a.u.)      Nuclear  (a.u.)        Total (a.u.)
 ------------------------------------------------------------------------------------

 L = 1.  Multiply by 2.5417464519 to convert [e a0] to [Debye]
 Dipole X            :        -73.0776541           65.9749500           -7.1027042
 Dipole Y            :          0.0000000            0.0000000            0.0000000
 Dipole Z            :         -0.0000000            0.0000000           -0.0000000
 Magnitude           :                                                    7.1027042

 ------------------------------------------------------------------------------------

*** tstop() called on moses-razer at Thu Dec 28 16:25:34 2023
Module time:
	user time   =       5.49 seconds =       0.09 minutes
	system time =       0.69 seconds =       0.01 minutes
	total time  =          2 seconds =       0.03 minutes
Total time:
	user time   =      19.70 seconds =       0.33 minutes
	system time =       2.38 seconds =       0.04 minutes
	total time  =          6 seconds =       0.10 minutes

*** tstart() called on moses-razer
*** at Thu Dec 28 16:25:34 2023


  //>>>>>>>>>>>>>>>>>>>>>>>>>>>>>>>>>>>//
  //               DFMP2               //
  //<<<<<<<<<<<<<<<<<<<<<<<<<<<<<<<<<<<//

   => Loading Basis Set <=

    Name: (AUG-CC-PVTZ AUX)
    Role: RIFIT
    Keyword: DF_BASIS_MP2
    atoms 1 entry NA         line   610 file /home/kchung25/anaconda3/envs/p415env/share/psi4/basis/def2-qzvpp-ri.gbs 
    atoms 2 entry F          line   322 file /home/kchung25/anaconda3/envs/p415env/share/psi4/basis/aug-cc-pvtz-ri.gbs 

	 --------------------------------------------------------
	                          DF-MP2                         
	      2nd-Order Density-Fitted Moller-Plesset Theory     
	              RMP2 Wavefunction,   6 Threads             
	                                                         
	        Rob Parrish, Justin Turney, Andy Simmonett,      
	           Ed Hohenstein, and C. David Sherrill          
	 --------------------------------------------------------

   => Auxiliary Basis Set <=

  Basis Set: (AUG-CC-PVTZ AUX)
    Blend: AUG-CC-PVTZ-RI + DEF2-QZVPP-RI
    Number of shells: 70
    Number of basis functions: 272
    Number of Cartesian functions: 350
    Spherical Harmonics?: true
    Max angular momentum: 4

	 --------------------------------------------------------
	                 NBF =    96, NAUX =   272
	 --------------------------------------------------------
	   CLASS    FOCC     OCC    AOCC    AVIR     VIR    FVIR
	   PAIRS       0      10      10      86      86       0
	 --------------------------------------------------------

	-----------------------------------------------------------
	 ==================> DF-MP2 Energies <==================== 
	-----------------------------------------------------------
	 Reference Energy          =    -261.2654197478341871 [Eh]
	 Singles Energy            =      -0.0000000000000000 [Eh]
	 Same-Spin Energy          =      -0.0839367666628077 [Eh]
	 Opposite-Spin Energy      =      -0.2351475917599722 [Eh]
	 Correlation Energy        =      -0.3190843584227799 [Eh]
	 Total Energy              =    -261.5845041062569862 [Eh]
	-----------------------------------------------------------
	 ================> DF-SCS-MP2 Energies <================== 
	-----------------------------------------------------------
	 SCS Same-Spin Scale       =       0.3333333333333333 [-]
	 SCS Opposite-Spin Scale   =       1.2000000000000000 [-]
	 SCS Same-Spin Energy      =      -0.0279789222209359 [Eh]
	 SCS Opposite-Spin Energy  =      -0.2821771101119666 [Eh]
	 SCS Correlation Energy    =      -0.3101560323329025 [Eh]
	 SCS Total Energy          =    -261.5755757801670711 [Eh]
	-----------------------------------------------------------


*** tstop() called on moses-razer at Thu Dec 28 16:25:34 2023
Module time:
	user time   =       1.98 seconds =       0.03 minutes
	system time =       0.19 seconds =       0.00 minutes
	total time  =          0 seconds =       0.00 minutes
Total time:
	user time   =      21.69 seconds =       0.36 minutes
	system time =       2.57 seconds =       0.04 minutes
	total time  =          6 seconds =       0.10 minutes

    Psi4 stopped on: Thursday, 28 December 2023 04:25PM
    Psi4 wall time for execution: 0:00:02.05


  //>>>>>>>>>>>>>>>>>>>>>>>>>>>>>>>>>>>//
  //          ManyBody Results         //
  //<<<<<<<<<<<<<<<<<<<<<<<<<<<<<<<<<<<//


   ==> N-Body: Counterpoise Corrected (CP) energies <==

        n-Body     Total Energy            Interaction Energy                          N-body Contribution to Interaction Energy
                   [Eh]                    [Eh]                  [kcal/mol]            [Eh]                  [kcal/mol]
             1  N/A                         0.000000000000        0.000000000000        0.000000000000        0.000000000000
  FULL/RTN   2  N/A                        -0.139891270168      -87.783097328939       -0.139891270168      -87.783097328939


    Psi4 stopped on: Thursday, 28 December 2023 04:25PM
    Psi4 wall time for execution: 0:00:07.58

*** Psi4 exiting successfully. Buy a developer a beer!
