
    -----------------------------------------------------------------------
          Psi4: An Open-Source Ab Initio Electronic Structure Package
                               Psi4 1.9 release

                         Git: Rev {} zzzzzzz 


    D. G. A. Smith, L. A. Burns, A. C. Simmonett, R. M. Parrish,
    M. C. Schieber, R. Galvelis, P. Kraus, H. Kruse, R. Di Remigio,
    A. Alenaizan, A. M. James, S. Lehtola, J. P. Misiewicz, M. Scheurer,
    R. A. Shaw, J. B. Schriber, Y. Xie, Z. L. Glick, D. A. Sirianni,
    J. S. O'Brien, J. M. Waldrop, A. Kumar, E. G. Hohenstein,
    B. P. Pritchard, B. R. Brooks, H. F. Schaefer III, A. Yu. Sokolov,
    K. Patkowski, A. E. DePrince III, U. Bozkaya, R. A. King,
    F. A. Evangelista, J. M. Turney, T. D. Crawford, C. D. Sherrill,
    J. Chem. Phys. 152(18) 184108 (2020). https://doi.org/10.1063/5.0006002

                            Additional Code Authors
    E. T. Seidl, C. L. Janssen, E. F. Valeev, M. L. Leininger,
    J. F. Gonthier, R. M. Richard, H. R. McAlexander, M. Saitow, X. Wang,
    P. Verma, M. H. Lechner, A. Jiang, S. Behnle, A. G. Heide,
    M. F. Herbst, and D. L. Poole

             Previous Authors, Complete List of Code Contributors,
                       and Citations for Specific Modules
    https://github.com/psi4/psi4/blob/master/codemeta.json
    https://github.com/psi4/psi4/graphs/contributors
    http://psicode.org/psi4manual/master/introduction.html#citing-psifour

    -----------------------------------------------------------------------


    Psi4 started on: Thursday, 28 December 2023 04:28PM

    Process ID: 83836
    Host:       moses-razer
    PSIDATADIR: /home/kchung25/anaconda3/envs/psi4_19/share/psi4
    Memory:     500.0 MiB
    Threads:    6
    
  ==> Input File <==

--------------------------------------------------------------------------
MEMORY 60 GB

molecule dimer {
1 1
Na     0.000000     0.000000     0.000000
--
-1 1
Br     2.514159     0.000000     0.000000

units ang
no_reorient
no_com
symmetry c1
}

set {
basis        aug-cc-pVTZ
scf_type     df
}

energy("mp2", bsse_type="cp")
--------------------------------------------------------------------------

  Memory set to  55.879 GiB by Python driver.

Scratch directory: /scratch/

  //>>>>>>>>>>>>>>>>>>>>>>>>>>>>>>>>>>>>>//
  // ManyBody Setup: N-Body Levels [1, 2]//
  //<<<<<<<<<<<<<<<<<<<<<<<<<<<<<<<<<<<<<//

        Number of 1-body computations:     2
        Number of 2-body computations:     1

    -----------------------------------------------------------------------
          Psi4: An Open-Source Ab Initio Electronic Structure Package
                               Psi4 1.9 release

                         Git: Rev {} zzzzzzz 


    D. G. A. Smith, L. A. Burns, A. C. Simmonett, R. M. Parrish,
    M. C. Schieber, R. Galvelis, P. Kraus, H. Kruse, R. Di Remigio,
    A. Alenaizan, A. M. James, S. Lehtola, J. P. Misiewicz, M. Scheurer,
    R. A. Shaw, J. B. Schriber, Y. Xie, Z. L. Glick, D. A. Sirianni,
    J. S. O'Brien, J. M. Waldrop, A. Kumar, E. G. Hohenstein,
    B. P. Pritchard, B. R. Brooks, H. F. Schaefer III, A. Yu. Sokolov,
    K. Patkowski, A. E. DePrince III, U. Bozkaya, R. A. King,
    F. A. Evangelista, J. M. Turney, T. D. Crawford, C. D. Sherrill,
    J. Chem. Phys. 152(18) 184108 (2020). https://doi.org/10.1063/5.0006002

                            Additional Code Authors
    E. T. Seidl, C. L. Janssen, E. F. Valeev, M. L. Leininger,
    J. F. Gonthier, R. M. Richard, H. R. McAlexander, M. Saitow, X. Wang,
    P. Verma, M. H. Lechner, A. Jiang, S. Behnle, A. G. Heide,
    M. F. Herbst, and D. L. Poole

             Previous Authors, Complete List of Code Contributors,
                       and Citations for Specific Modules
    https://github.com/psi4/psi4/blob/master/codemeta.json
    https://github.com/psi4/psi4/graphs/contributors
    http://psicode.org/psi4manual/master/introduction.html#citing-psifour

    -----------------------------------------------------------------------


    Psi4 started on: Thursday, 28 December 2023 04:28PM

    Process ID: 83836
    Host:       moses-razer
    PSIDATADIR: /home/kchung25/anaconda3/envs/psi4_19/share/psi4
    Memory:     55.9 GiB
    Threads:    6
    
  ==> Input QCSchema <==

--------------------------------------------------------------------------
{'driver': 'energy',
 'extras': {'psiapi': True, 'wfn_qcvars_only': True},
 'id': None,
 'keywords': {'SCF_TYPE': 'DF', 'function_kwargs': {}},
 'model': {'basis': 'aug-cc-pvtz', 'method': 'mp2'},
 'molecule': {'atom_labels': ['', ''],
              'atomic_numbers': [11, 35],
              'extras': {},
              'fix_com': True,
              'fix_orientation': True,
              'fix_symmetry': 'c1',
              'fragment_charges': [0.0, -1.0],
              'fragment_multiplicities': [1, 1],
              'fragments': [[0], [1]],
              'geometry': [0.0, 0.0, 0.0, 4.751071945854927, 0.0, 0.0],
              'mass_numbers': [23, 79],
              'masses': [22.989769282, 78.9183376],
              'molecular_charge': -1.0,
              'molecular_multiplicity': 1,
              'name': 'dimer',
              'provenance': {'creator': 'QCElemental',
                             'routine': 'qcelemental.molparse.from_string',
                             'version': '0.27.1'},
              'real': [False, True],
              'schema_name': 'qcschema_molecule',
              'schema_version': 2,
              'symbols': ['Na', 'Br'],
              'validated': True},
 'protocols': {'stdout': True},
 'provenance': {'creator': 'QCElemental', 'routine': 'qcelemental.models.results', 'version': '0.27.1'},
 'schema_name': 'qcschema_input',
 'schema_version': 1}
--------------------------------------------------------------------------

Scratch directory: /scratch/
   => Libint2 <=

    Primary   basis highest AM E, G, H:  5, 4, 3
    Auxiliary basis highest AM E, G, H:  6, 5, 4
    Onebody   basis highest AM E, G, H:  6, 5, 4
    Solid Harmonics ordering:            gaussian

*** tstart() called on moses-razer
*** at Thu Dec 28 16:28:33 2023

   => Loading Basis Set <=

    Name: AUG-CC-PVTZ
    Role: ORBITAL
    Keyword: BASIS
    atoms 1 entry NA         line   469 file /home/kchung25/anaconda3/envs/p415env/share/psi4/basis/aug-cc-pvtz.gbs 
    atoms 2 entry BR         line  4564 file /home/kchung25/anaconda3/envs/p415env/share/psi4/basis/aug-cc-pvtz.gbs 


         ---------------------------------------------------------
                                   SCF
               by Justin Turney, Rob Parrish, Andy Simmonett
                          and Daniel G. A. Smith
                              RHF Reference
                        6 Threads,  57220 MiB Core
         ---------------------------------------------------------

  ==> Geometry <==

    Molecular point group: c1
    Full point group: C_inf_v

    Geometry (in Bohr), charge = -1, multiplicity = 1:

       Center              X                  Y                   Z               Mass       
    ------------   -----------------  -----------------  -----------------  -----------------
      Gh(NA)          0.000000000000     0.000000000000     0.000000000000    22.989769282000
         BR           4.751071945855     0.000000000000     0.000000000000    78.918337600000

  Running in c1 symmetry.

  Rotational constants: A = ************  B =      0.03379  C =      0.03379 [cm^-1]
  Rotational constants: A = ************  B =   1013.10344  C =   1013.10344 [MHz]
  Nuclear repulsion =    0.000000000000000

  Charge       = -1
  Multiplicity = 1
  Electrons    = 36
  Nalpha       = 18
  Nbeta        = 18

  ==> Algorithm <==

  SCF Algorithm Type is DF.
  DIIS enabled.
  MOM disabled.
  Fractional occupation disabled.
  Guess Type is SAD.
  Energy threshold   = 1.00e-08
  Density threshold  = 1.00e-08
  Integral threshold = 1.00e-12

  ==> Primary Basis <==

  Basis Set: AUG-CC-PVTZ
    Blend: AUG-CC-PVTZ
    Number of shells: 35
    Number of basis functions: 109
    Number of Cartesian functions: 128
    Spherical Harmonics?: true
    Max angular momentum: 3

   => Loading Basis Set <=

    Name: (AUG-CC-PVTZ AUX)
    Role: JKFIT
    Keyword: DF_BASIS_SCF
    atoms 1 entry NA         line   498 file /home/kchung25/anaconda3/envs/p415env/share/psi4/basis/def2-universal-jkfit.gbs 
    atoms 2 entry BR         line  1492 file /home/kchung25/anaconda3/envs/p415env/share/psi4/basis/aug-cc-pvtz-jkfit.gbs 

  ==> Integral Setup <==

  DFHelper Memory: AOs need 0.036 GiB; user supplied 41.910 GiB. 
  Using in-core AOs.

  ==> MemDFJK: Density-Fitted J/K Matrices <==

    J tasked:                   Yes
    K tasked:                   Yes
    wK tasked:                   No
    OpenMP threads:               6
    Memory [MiB]:             42915
    Algorithm:                 Core
    Schwarz Cutoff:           1E-12
    Mask sparsity (%):       0.0000
    Fitting Condition:        1E-10

   => Auxiliary Basis Set <=

  Basis Set: (AUG-CC-PVTZ AUX)
    Blend: AUG-CC-PVTZ-JKFIT + DEF2-UNIVERSAL-JKFIT
    Number of shells: 92
    Number of basis functions: 360
    Number of Cartesian functions: 466
    Spherical Harmonics?: true
    Max angular momentum: 4

  Minimum eigenvalue in the overlap matrix is 6.1847319076E-05.
  Reciprocal condition number of the overlap matrix is 1.1999368934E-05.
    Using symmetric orthogonalization.

  ==> Pre-Iterations <==

  SCF Guess: Superposition of Atomic Densities via on-the-fly atomic UHF (no occupation information).

   -------------------------
    Irrep   Nso     Nmo    
   -------------------------
     A        109     109 
   -------------------------
    Total     109     109
   -------------------------

  ==> Iterations <==

                           Total Energy        Delta E     RMS |[F,P]|

   @DF-RHF iter SAD: -2570.41423529412396   -2.57041e+03   0.00000e+00 
   @DF-RHF iter   1: -2572.25442771925373   -1.84019e+00   9.74523e-03 DIIS/ADIIS
   @DF-RHF iter   2: -2572.46358899010693   -2.09161e-01   5.42400e-03 DIIS/ADIIS
   @DF-RHF iter   3: -2572.53362192926124   -7.00329e-02   1.25863e-04 DIIS/ADIIS
   @DF-RHF iter   4: -2572.53368501665045   -6.30874e-05   1.15244e-05 DIIS
   @DF-RHF iter   5: -2572.53368721509332   -2.19844e-06   2.88526e-06 DIIS
   @DF-RHF iter   6: -2572.53368736859056   -1.53497e-07   5.91659e-07 DIIS
   @DF-RHF iter   7: -2572.53368738570725   -1.71167e-08   3.79739e-08 DIIS
   @DF-RHF iter   8: -2572.53368738574636   -3.91083e-11   7.22388e-09 DIIS
  Energy and wave function converged.


  ==> Post-Iterations <==

    Orbital Energies [Eh]
    ---------------------

    Doubly Occupied:                                                      

       1A   -489.721001     2A    -64.860900     3A    -58.215398  
       4A    -58.215398     5A    -58.215393     6A     -9.532986  
       7A     -7.140333     8A     -7.140333     9A     -7.140321  
      10A     -2.882017    11A     -2.882017    12A     -2.882007  
      13A     -2.882007    14A     -2.881998    15A     -0.685998  
      16A     -0.139340    17A     -0.139338    18A     -0.139338  

    Virtual:                                                              

      19A      0.076555    20A      0.087140    21A      0.087140  
      22A      0.099473    23A      0.135601    24A      0.148980  
      25A      0.148980    26A      0.168149    27A      0.173126  
      28A      0.173126    29A      0.178019    30A      0.178019  
      31A      0.197176    32A      0.236220    33A      0.277427  
      34A      0.277427    35A      0.286112    36A      0.288289  
      37A      0.288289    38A      0.343676    39A      0.380731  
      40A      0.380731    41A      0.391743    42A      0.391743  
      43A      0.401902    44A      0.411847    45A      0.411847  
      46A      0.420944    47A      0.420944    48A      0.434206  
      49A      0.486064    50A      0.486199    51A      0.486199  
      52A      0.540520    53A      0.540520    54A      0.563757  
      55A      0.563757    56A      0.582277    57A      0.636711  
      58A      0.636711    59A      0.681943    60A      0.848768  
      61A      0.848768    62A      0.873427    63A      0.878971  
      64A      0.878971    65A      0.913982    66A      0.913982  
      67A      0.916101    68A      0.916101    69A      0.925022  
      70A      0.932606    71A      0.932606    72A      0.943706  
      73A      0.943706    74A      1.055792    75A      1.105327  
      76A      1.105327    77A      1.137858    78A      1.208852  
      79A      1.221223    80A      1.221223    81A      1.244346  
      82A      1.244346    83A      1.331300    84A      1.331300  
      85A      1.440569    86A      1.545608    87A      1.545608  
      88A      1.921201    89A      2.505367    90A      2.505367  
      91A      2.575566    92A      2.592706    93A      2.592706  
      94A      2.603819    95A      2.603819    96A      2.654808  
      97A      2.654808    98A      2.694433    99A      2.730445  
     100A      2.730445   101A      2.788059   102A      2.788059  
     103A      2.894396   104A      4.565722   105A      5.236691  
     106A      6.539783   107A      6.539783   108A      7.010943  
     109A     64.661401  

    Final Occupation by Irrep:
              A 
    DOCC [    18 ]
    NA   [    18 ]
    NB   [    18 ]

  @DF-RHF Final Energy: -2572.53368738574636

   => Energetics <=

    Nuclear Repulsion Energy =              0.0000000000000000
    One-Electron Energy =               -3593.6751285161221858
    Two-Electron Energy =                1021.1414411303755969
    Total Energy =                      -2572.5336873857468163

Computation Completed


Properties will be evaluated at   0.000000,   0.000000,   0.000000 [a0]

Properties computed using the SCF density matrix


 Multipole Moments:

 ------------------------------------------------------------------------------------
     Multipole            Electronic (a.u.)      Nuclear  (a.u.)        Total (a.u.)
 ------------------------------------------------------------------------------------

 L = 1.  Multiply by 2.5417464519 to convert [e a0] to [Debye]
 Dipole X            :       -171.0391614          166.2875181           -4.7516433
 Dipole Y            :          0.0000000            0.0000000            0.0000000
 Dipole Z            :         -0.0000000            0.0000000           -0.0000000
 Magnitude           :                                                    4.7516433

 ------------------------------------------------------------------------------------

*** tstop() called on moses-razer at Thu Dec 28 16:28:36 2023
Module time:
	user time   =       9.29 seconds =       0.15 minutes
	system time =       1.15 seconds =       0.02 minutes
	total time  =          3 seconds =       0.05 minutes
Total time:
	user time   =       9.29 seconds =       0.15 minutes
	system time =       1.15 seconds =       0.02 minutes
	total time  =          3 seconds =       0.05 minutes

*** tstart() called on moses-razer
*** at Thu Dec 28 16:28:36 2023


  //>>>>>>>>>>>>>>>>>>>>>>>>>>>>>>>>>>>//
  //               DFMP2               //
  //<<<<<<<<<<<<<<<<<<<<<<<<<<<<<<<<<<<//

   => Loading Basis Set <=

    Name: (AUG-CC-PVTZ AUX)
    Role: RIFIT
    Keyword: DF_BASIS_MP2
    atoms 1 entry NA         line   610 file /home/kchung25/anaconda3/envs/p415env/share/psi4/basis/def2-qzvpp-ri.gbs 
    atoms 2 entry BR         line  1248 file /home/kchung25/anaconda3/envs/p415env/share/psi4/basis/aug-cc-pvtz-ri.gbs 

	 --------------------------------------------------------
	                          DF-MP2                         
	      2nd-Order Density-Fitted Moller-Plesset Theory     
	              RMP2 Wavefunction,   6 Threads             
	                                                         
	        Rob Parrish, Justin Turney, Andy Simmonett,      
	           Ed Hohenstein, and C. David Sherrill          
	 --------------------------------------------------------

   => Auxiliary Basis Set <=

  Basis Set: (AUG-CC-PVTZ AUX)
    Blend: AUG-CC-PVTZ-RI + DEF2-QZVPP-RI
    Number of shells: 85
    Number of basis functions: 357
    Number of Cartesian functions: 475
    Spherical Harmonics?: true
    Max angular momentum: 5

	 --------------------------------------------------------
	                 NBF =   109, NAUX =   357
	 --------------------------------------------------------
	   CLASS    FOCC     OCC    AOCC    AVIR     VIR    FVIR
	   PAIRS       0      18      18      91      91       0
	 --------------------------------------------------------

	-----------------------------------------------------------
	 ==================> DF-MP2 Energies <==================== 
	-----------------------------------------------------------
	 Reference Energy          =   -2572.5336873857463615 [Eh]
	 Singles Energy            =      -0.0000000000000000 [Eh]
	 Same-Spin Energy          =      -0.0882500605654783 [Eh]
	 Opposite-Spin Energy      =      -0.2045662680770650 [Eh]
	 Correlation Energy        =      -0.2928163286425434 [Eh]
	 Total Energy              =   -2572.8265037143887639 [Eh]
	-----------------------------------------------------------
	 ================> DF-SCS-MP2 Energies <================== 
	-----------------------------------------------------------
	 SCS Same-Spin Scale       =       0.3333333333333333 [-]
	 SCS Opposite-Spin Scale   =       1.2000000000000000 [-]
	 SCS Same-Spin Energy      =      -0.0294166868551594 [Eh]
	 SCS Opposite-Spin Energy  =      -0.2454795216924781 [Eh]
	 SCS Correlation Energy    =      -0.2748962085476375 [Eh]
	 SCS Total Energy          =   -2572.8085835942938502 [Eh]
	-----------------------------------------------------------


*** tstop() called on moses-razer at Thu Dec 28 16:28:39 2023
Module time:
	user time   =       4.40 seconds =       0.07 minutes
	system time =       0.32 seconds =       0.01 minutes
	total time  =          3 seconds =       0.05 minutes
Total time:
	user time   =      13.69 seconds =       0.23 minutes
	system time =       1.47 seconds =       0.02 minutes
	total time  =          6 seconds =       0.10 minutes

    Psi4 stopped on: Thursday, 28 December 2023 04:28PM
    Psi4 wall time for execution: 0:00:06.68


    -----------------------------------------------------------------------
          Psi4: An Open-Source Ab Initio Electronic Structure Package
                               Psi4 1.9 release

                         Git: Rev {} zzzzzzz 


    D. G. A. Smith, L. A. Burns, A. C. Simmonett, R. M. Parrish,
    M. C. Schieber, R. Galvelis, P. Kraus, H. Kruse, R. Di Remigio,
    A. Alenaizan, A. M. James, S. Lehtola, J. P. Misiewicz, M. Scheurer,
    R. A. Shaw, J. B. Schriber, Y. Xie, Z. L. Glick, D. A. Sirianni,
    J. S. O'Brien, J. M. Waldrop, A. Kumar, E. G. Hohenstein,
    B. P. Pritchard, B. R. Brooks, H. F. Schaefer III, A. Yu. Sokolov,
    K. Patkowski, A. E. DePrince III, U. Bozkaya, R. A. King,
    F. A. Evangelista, J. M. Turney, T. D. Crawford, C. D. Sherrill,
    J. Chem. Phys. 152(18) 184108 (2020). https://doi.org/10.1063/5.0006002

                            Additional Code Authors
    E. T. Seidl, C. L. Janssen, E. F. Valeev, M. L. Leininger,
    J. F. Gonthier, R. M. Richard, H. R. McAlexander, M. Saitow, X. Wang,
    P. Verma, M. H. Lechner, A. Jiang, S. Behnle, A. G. Heide,
    M. F. Herbst, and D. L. Poole

             Previous Authors, Complete List of Code Contributors,
                       and Citations for Specific Modules
    https://github.com/psi4/psi4/blob/master/codemeta.json
    https://github.com/psi4/psi4/graphs/contributors
    http://psicode.org/psi4manual/master/introduction.html#citing-psifour

    -----------------------------------------------------------------------


    Psi4 started on: Thursday, 28 December 2023 04:28PM

    Process ID: 83836
    Host:       moses-razer
    PSIDATADIR: /home/kchung25/anaconda3/envs/psi4_19/share/psi4
    Memory:     55.9 GiB
    Threads:    6
    
  ==> Input QCSchema <==

--------------------------------------------------------------------------
{'driver': 'energy',
 'extras': {'psiapi': True, 'wfn_qcvars_only': True},
 'id': None,
 'keywords': {'SCF_TYPE': 'DF', 'function_kwargs': {}},
 'model': {'basis': 'aug-cc-pvtz', 'method': 'mp2'},
 'molecule': {'atom_labels': ['', ''],
              'atomic_numbers': [11, 35],
              'extras': {},
              'fix_com': True,
              'fix_orientation': True,
              'fix_symmetry': 'c1',
              'fragment_charges': [1.0, 0.0],
              'fragment_multiplicities': [1, 1],
              'fragments': [[0], [1]],
              'geometry': [0.0, 0.0, 0.0, 4.751071945854927, 0.0, 0.0],
              'mass_numbers': [23, 79],
              'masses': [22.989769282, 78.9183376],
              'molecular_charge': 1.0,
              'molecular_multiplicity': 1,
              'name': 'dimer',
              'provenance': {'creator': 'QCElemental',
                             'routine': 'qcelemental.molparse.from_string',
                             'version': '0.27.1'},
              'real': [True, False],
              'schema_name': 'qcschema_molecule',
              'schema_version': 2,
              'symbols': ['Na', 'Br'],
              'validated': True},
 'protocols': {'stdout': True},
 'provenance': {'creator': 'QCElemental', 'routine': 'qcelemental.models.results', 'version': '0.27.1'},
 'schema_name': 'qcschema_input',
 'schema_version': 1}
--------------------------------------------------------------------------

Scratch directory: /scratch/
   => Libint2 <=

    Primary   basis highest AM E, G, H:  5, 4, 3
    Auxiliary basis highest AM E, G, H:  6, 5, 4
    Onebody   basis highest AM E, G, H:  6, 5, 4
    Solid Harmonics ordering:            gaussian

*** tstart() called on moses-razer
*** at Thu Dec 28 16:28:39 2023

   => Loading Basis Set <=

    Name: AUG-CC-PVTZ
    Role: ORBITAL
    Keyword: BASIS
    atoms 1 entry NA         line   469 file /home/kchung25/anaconda3/envs/p415env/share/psi4/basis/aug-cc-pvtz.gbs 
    atoms 2 entry BR         line  4564 file /home/kchung25/anaconda3/envs/p415env/share/psi4/basis/aug-cc-pvtz.gbs 


         ---------------------------------------------------------
                                   SCF
               by Justin Turney, Rob Parrish, Andy Simmonett
                          and Daniel G. A. Smith
                              RHF Reference
                        6 Threads,  57220 MiB Core
         ---------------------------------------------------------

  ==> Geometry <==

    Molecular point group: c1
    Full point group: C_inf_v

    Geometry (in Bohr), charge = 1, multiplicity = 1:

       Center              X                  Y                   Z               Mass       
    ------------   -----------------  -----------------  -----------------  -----------------
         NA           0.000000000000     0.000000000000     0.000000000000    22.989769282000
      Gh(BR)          4.751071945855     0.000000000000     0.000000000000    78.918337600000

  Running in c1 symmetry.

  Rotational constants: A = ************  B =      0.03379  C =      0.03379 [cm^-1]
  Rotational constants: A = ************  B =   1013.10344  C =   1013.10344 [MHz]
  Nuclear repulsion =    0.000000000000000

  Charge       = 1
  Multiplicity = 1
  Electrons    = 10
  Nalpha       = 5
  Nbeta        = 5

  ==> Algorithm <==

  SCF Algorithm Type is DF.
  DIIS enabled.
  MOM disabled.
  Fractional occupation disabled.
  Guess Type is SAD.
  Energy threshold   = 1.00e-08
  Density threshold  = 1.00e-08
  Integral threshold = 1.00e-12

  ==> Primary Basis <==

  Basis Set: AUG-CC-PVTZ
    Blend: AUG-CC-PVTZ
    Number of shells: 35
    Number of basis functions: 109
    Number of Cartesian functions: 128
    Spherical Harmonics?: true
    Max angular momentum: 3

   => Loading Basis Set <=

    Name: (AUG-CC-PVTZ AUX)
    Role: JKFIT
    Keyword: DF_BASIS_SCF
    atoms 1 entry NA         line   498 file /home/kchung25/anaconda3/envs/p415env/share/psi4/basis/def2-universal-jkfit.gbs 
    atoms 2 entry BR         line  1492 file /home/kchung25/anaconda3/envs/p415env/share/psi4/basis/aug-cc-pvtz-jkfit.gbs 

  ==> Integral Setup <==

  DFHelper Memory: AOs need 0.036 GiB; user supplied 41.910 GiB. 
  Using in-core AOs.

  ==> MemDFJK: Density-Fitted J/K Matrices <==

    J tasked:                   Yes
    K tasked:                   Yes
    wK tasked:                   No
    OpenMP threads:               6
    Memory [MiB]:             42915
    Algorithm:                 Core
    Schwarz Cutoff:           1E-12
    Mask sparsity (%):       0.0000
    Fitting Condition:        1E-10

   => Auxiliary Basis Set <=

  Basis Set: (AUG-CC-PVTZ AUX)
    Blend: AUG-CC-PVTZ-JKFIT + DEF2-UNIVERSAL-JKFIT
    Number of shells: 92
    Number of basis functions: 360
    Number of Cartesian functions: 466
    Spherical Harmonics?: true
    Max angular momentum: 4

  Minimum eigenvalue in the overlap matrix is 6.1847319076E-05.
  Reciprocal condition number of the overlap matrix is 1.1999368934E-05.
    Using symmetric orthogonalization.

  ==> Pre-Iterations <==

  SCF Guess: Superposition of Atomic Densities via on-the-fly atomic UHF (no occupation information).

   -------------------------
    Irrep   Nso     Nmo    
   -------------------------
     A        109     109 
   -------------------------
    Total     109     109
   -------------------------

  ==> Iterations <==

                           Total Energy        Delta E     RMS |[F,P]|

   @DF-RHF iter SAD:  -161.74557722353782   -1.61746e+02   0.00000e+00 
   @DF-RHF iter   1:  -161.67601849847935    6.95587e-02   5.32893e-05 DIIS
   @DF-RHF iter   2:  -161.67603637865710   -1.78802e-05   1.02678e-05 DIIS
   @DF-RHF iter   3:  -161.67603682795934   -4.49302e-07   4.09031e-07 DIIS
   @DF-RHF iter   4:  -161.67603682872050   -7.61162e-10   3.20966e-08 DIIS
   @DF-RHF iter   5:  -161.67603682872524   -4.74643e-12   2.06565e-09 DIIS
  Energy and wave function converged.


  ==> Post-Iterations <==

    Orbital Energies [Eh]
    ---------------------

    Doubly Occupied:                                                      

       1A    -40.763135     2A     -3.075054     3A     -1.798311  
       4A     -1.798200     5A     -1.798200  

    Virtual:                                                              

       6A     -0.181839     7A     -0.109446     8A     -0.109437  
       9A     -0.109437    10A     -0.069993    11A     -0.050983  
      12A     -0.050381    13A     -0.050381    14A     -0.050230  
      15A     -0.050230    16A     -0.048982    17A     -0.048949  
      18A     -0.048949    19A     -0.016689    20A     -0.000740  
      21A     -0.000287    22A     -0.000287    23A      0.012186  
      24A      0.012186    25A      0.014292    26A      0.038768  
      27A      0.058855    28A      0.058855    29A      0.058967  
      30A      0.058967    31A      0.104900    32A      0.104900  
      33A      0.105376    34A      0.105376    35A      0.114282  
      36A      0.149340    37A      0.151818    38A      0.151818  
      39A      0.163529    40A      0.163529    41A      0.165636  
      42A      0.244056    43A      0.244056    44A      0.245821  
      45A      0.259939    46A      0.259939    47A      0.294225  
      48A      0.334110    49A      0.334110    50A      0.373829  
      51A      0.373829    52A      0.383443    53A      0.432630  
      54A      0.432630    55A      0.493975    56A      0.493975  
      57A      0.495169    58A      0.495169    59A      0.521736  
      60A      0.544568    61A      0.544568    62A      0.658515  
      63A      0.888851    64A      0.888851    65A      0.894809  
      66A      0.894809    67A      0.900302    68A      0.959717  
      69A      0.959717    70A      0.967375    71A      1.014631  
      72A      1.014631    73A      1.094851    74A      1.094851  
      75A      1.153714    76A      1.212378    77A      1.212378  
      78A      1.477598    79A      1.930716    80A      2.744799  
      81A      2.744799    82A      2.832495    83A      2.934762  
      84A      2.934762    85A      2.958679    86A      2.982261  
      87A      2.982261    88A      3.127067    89A      3.127067  
      90A      3.132935    91A      3.132935    92A      3.194767  
      93A      3.207140    94A      3.207140    95A      3.620549  
      96A     10.052583    97A     13.338887    98A     13.338887  
      99A     13.473879   100A     25.961699   101A     25.961699  
     102A     26.047656   103A     26.047656   104A     26.138320  
     105A     45.779645   106A    138.340531   107A    138.340531  
     108A    138.557895   109A    709.964677  

    Final Occupation by Irrep:
              A 
    DOCC [     5 ]
    NA   [     5 ]
    NB   [     5 ]

  @DF-RHF Final Energy:  -161.67603682872524

   => Energetics <=

    Nuclear Repulsion Energy =              0.0000000000000000
    One-Electron Energy =                -224.8862724729310116
    Two-Electron Energy =                  63.2102356442057456
    Total Energy =                       -161.6760368287252732

Computation Completed


Properties will be evaluated at   0.000000,   0.000000,   0.000000 [a0]

Properties computed using the SCF density matrix


 Multipole Moments:

 ------------------------------------------------------------------------------------
     Multipole            Electronic (a.u.)      Nuclear  (a.u.)        Total (a.u.)
 ------------------------------------------------------------------------------------

 L = 1.  Multiply by 2.5417464519 to convert [e a0] to [Debye]
 Dipole X            :          0.0006143            0.0000000            0.0006143
 Dipole Y            :         -0.0000000            0.0000000           -0.0000000
 Dipole Z            :          0.0000000            0.0000000            0.0000000
 Magnitude           :                                                    0.0006143

 ------------------------------------------------------------------------------------

*** tstop() called on moses-razer at Thu Dec 28 16:28:42 2023
Module time:
	user time   =       7.82 seconds =       0.13 minutes
	system time =       0.88 seconds =       0.01 minutes
	total time  =          3 seconds =       0.05 minutes
Total time:
	user time   =      21.81 seconds =       0.36 minutes
	system time =       2.36 seconds =       0.04 minutes
	total time  =          9 seconds =       0.15 minutes

*** tstart() called on moses-razer
*** at Thu Dec 28 16:28:42 2023


  //>>>>>>>>>>>>>>>>>>>>>>>>>>>>>>>>>>>//
  //               DFMP2               //
  //<<<<<<<<<<<<<<<<<<<<<<<<<<<<<<<<<<<//

   => Loading Basis Set <=

    Name: (AUG-CC-PVTZ AUX)
    Role: RIFIT
    Keyword: DF_BASIS_MP2
    atoms 1 entry NA         line   610 file /home/kchung25/anaconda3/envs/p415env/share/psi4/basis/def2-qzvpp-ri.gbs 
    atoms 2 entry BR         line  1248 file /home/kchung25/anaconda3/envs/p415env/share/psi4/basis/aug-cc-pvtz-ri.gbs 

	 --------------------------------------------------------
	                          DF-MP2                         
	      2nd-Order Density-Fitted Moller-Plesset Theory     
	              RMP2 Wavefunction,   6 Threads             
	                                                         
	        Rob Parrish, Justin Turney, Andy Simmonett,      
	           Ed Hohenstein, and C. David Sherrill          
	 --------------------------------------------------------

   => Auxiliary Basis Set <=

  Basis Set: (AUG-CC-PVTZ AUX)
    Blend: AUG-CC-PVTZ-RI + DEF2-QZVPP-RI
    Number of shells: 85
    Number of basis functions: 357
    Number of Cartesian functions: 475
    Spherical Harmonics?: true
    Max angular momentum: 5

	 --------------------------------------------------------
	                 NBF =   109, NAUX =   357
	 --------------------------------------------------------
	   CLASS    FOCC     OCC    AOCC    AVIR     VIR    FVIR
	   PAIRS       0       5       5     104     104       0
	 --------------------------------------------------------

	-----------------------------------------------------------
	 ==================> DF-MP2 Energies <==================== 
	-----------------------------------------------------------
	 Reference Energy          =    -161.6760368287252447 [Eh]
	 Singles Energy            =      -0.0000000000000000 [Eh]
	 Same-Spin Energy          =      -0.0024503018708367 [Eh]
	 Opposite-Spin Energy      =      -0.0092821321759780 [Eh]
	 Correlation Energy        =      -0.0117324340468147 [Eh]
	 Total Energy              =    -161.6877692627720648 [Eh]
	-----------------------------------------------------------
	 ================> DF-SCS-MP2 Energies <================== 
	-----------------------------------------------------------
	 SCS Same-Spin Scale       =       0.3333333333333333 [-]
	 SCS Opposite-Spin Scale   =       1.2000000000000000 [-]
	 SCS Same-Spin Energy      =      -0.0008167672902789 [Eh]
	 SCS Opposite-Spin Energy  =      -0.0111385586111736 [Eh]
	 SCS Correlation Energy    =      -0.0119553259014525 [Eh]
	 SCS Total Energy          =    -161.6879921546266985 [Eh]
	-----------------------------------------------------------


*** tstop() called on moses-razer at Thu Dec 28 16:28:45 2023
Module time:
	user time   =       4.07 seconds =       0.07 minutes
	system time =       0.33 seconds =       0.01 minutes
	total time  =          3 seconds =       0.05 minutes
Total time:
	user time   =      25.89 seconds =       0.43 minutes
	system time =       2.69 seconds =       0.04 minutes
	total time  =         12 seconds =       0.20 minutes

    Psi4 stopped on: Thursday, 28 December 2023 04:28PM
    Psi4 wall time for execution: 0:00:05.98


    -----------------------------------------------------------------------
          Psi4: An Open-Source Ab Initio Electronic Structure Package
                               Psi4 1.9 release

                         Git: Rev {} zzzzzzz 


    D. G. A. Smith, L. A. Burns, A. C. Simmonett, R. M. Parrish,
    M. C. Schieber, R. Galvelis, P. Kraus, H. Kruse, R. Di Remigio,
    A. Alenaizan, A. M. James, S. Lehtola, J. P. Misiewicz, M. Scheurer,
    R. A. Shaw, J. B. Schriber, Y. Xie, Z. L. Glick, D. A. Sirianni,
    J. S. O'Brien, J. M. Waldrop, A. Kumar, E. G. Hohenstein,
    B. P. Pritchard, B. R. Brooks, H. F. Schaefer III, A. Yu. Sokolov,
    K. Patkowski, A. E. DePrince III, U. Bozkaya, R. A. King,
    F. A. Evangelista, J. M. Turney, T. D. Crawford, C. D. Sherrill,
    J. Chem. Phys. 152(18) 184108 (2020). https://doi.org/10.1063/5.0006002

                            Additional Code Authors
    E. T. Seidl, C. L. Janssen, E. F. Valeev, M. L. Leininger,
    J. F. Gonthier, R. M. Richard, H. R. McAlexander, M. Saitow, X. Wang,
    P. Verma, M. H. Lechner, A. Jiang, S. Behnle, A. G. Heide,
    M. F. Herbst, and D. L. Poole

             Previous Authors, Complete List of Code Contributors,
                       and Citations for Specific Modules
    https://github.com/psi4/psi4/blob/master/codemeta.json
    https://github.com/psi4/psi4/graphs/contributors
    http://psicode.org/psi4manual/master/introduction.html#citing-psifour

    -----------------------------------------------------------------------


    Psi4 started on: Thursday, 28 December 2023 04:28PM

    Process ID: 83836
    Host:       moses-razer
    PSIDATADIR: /home/kchung25/anaconda3/envs/psi4_19/share/psi4
    Memory:     55.9 GiB
    Threads:    6
    
  ==> Input QCSchema <==

--------------------------------------------------------------------------
{'driver': 'energy',
 'extras': {'psiapi': True, 'wfn_qcvars_only': True},
 'id': None,
 'keywords': {'SCF_TYPE': 'DF', 'function_kwargs': {}},
 'model': {'basis': 'aug-cc-pvtz', 'method': 'mp2'},
 'molecule': {'atom_labels': ['', ''],
              'atomic_numbers': [11, 35],
              'extras': {},
              'fix_com': True,
              'fix_orientation': True,
              'fix_symmetry': 'c1',
              'fragment_charges': [1.0, -1.0],
              'fragment_multiplicities': [1, 1],
              'fragments': [[0], [1]],
              'geometry': [0.0, 0.0, 0.0, 4.751071945854927, 0.0, 0.0],
              'mass_numbers': [23, 79],
              'masses': [22.989769282, 78.9183376],
              'molecular_charge': 0.0,
              'molecular_multiplicity': 1,
              'name': 'dimer',
              'provenance': {'creator': 'QCElemental',
                             'routine': 'qcelemental.molparse.from_string',
                             'version': '0.27.1'},
              'real': [True, True],
              'schema_name': 'qcschema_molecule',
              'schema_version': 2,
              'symbols': ['Na', 'Br'],
              'validated': True},
 'protocols': {'stdout': True},
 'provenance': {'creator': 'QCElemental', 'routine': 'qcelemental.models.results', 'version': '0.27.1'},
 'schema_name': 'qcschema_input',
 'schema_version': 1}
--------------------------------------------------------------------------

Scratch directory: /scratch/
   => Libint2 <=

    Primary   basis highest AM E, G, H:  5, 4, 3
    Auxiliary basis highest AM E, G, H:  6, 5, 4
    Onebody   basis highest AM E, G, H:  6, 5, 4
    Solid Harmonics ordering:            gaussian

*** tstart() called on moses-razer
*** at Thu Dec 28 16:28:45 2023

   => Loading Basis Set <=

    Name: AUG-CC-PVTZ
    Role: ORBITAL
    Keyword: BASIS
    atoms 1 entry NA         line   469 file /home/kchung25/anaconda3/envs/p415env/share/psi4/basis/aug-cc-pvtz.gbs 
    atoms 2 entry BR         line  4564 file /home/kchung25/anaconda3/envs/p415env/share/psi4/basis/aug-cc-pvtz.gbs 


         ---------------------------------------------------------
                                   SCF
               by Justin Turney, Rob Parrish, Andy Simmonett
                          and Daniel G. A. Smith
                              RHF Reference
                        6 Threads,  57220 MiB Core
         ---------------------------------------------------------

  ==> Geometry <==

    Molecular point group: c1
    Full point group: C_inf_v

    Geometry (in Bohr), charge = 0, multiplicity = 1:

       Center              X                  Y                   Z               Mass       
    ------------   -----------------  -----------------  -----------------  -----------------
         NA           0.000000000000     0.000000000000     0.000000000000    22.989769282000
         BR           4.751071945855     0.000000000000     0.000000000000    78.918337600000

  Running in c1 symmetry.

  Rotational constants: A = ************  B =      0.03379  C =      0.03379 [cm^-1]
  Rotational constants: A = ************  B =   1013.10344  C =   1013.10344 [MHz]
  Nuclear repulsion =   81.034344330629054

  Charge       = 0
  Multiplicity = 1
  Electrons    = 46
  Nalpha       = 23
  Nbeta        = 23

  ==> Algorithm <==

  SCF Algorithm Type is DF.
  DIIS enabled.
  MOM disabled.
  Fractional occupation disabled.
  Guess Type is SAD.
  Energy threshold   = 1.00e-08
  Density threshold  = 1.00e-08
  Integral threshold = 1.00e-12

  ==> Primary Basis <==

  Basis Set: AUG-CC-PVTZ
    Blend: AUG-CC-PVTZ
    Number of shells: 35
    Number of basis functions: 109
    Number of Cartesian functions: 128
    Spherical Harmonics?: true
    Max angular momentum: 3

   => Loading Basis Set <=

    Name: (AUG-CC-PVTZ AUX)
    Role: JKFIT
    Keyword: DF_BASIS_SCF
    atoms 1 entry NA         line   498 file /home/kchung25/anaconda3/envs/p415env/share/psi4/basis/def2-universal-jkfit.gbs 
    atoms 2 entry BR         line  1492 file /home/kchung25/anaconda3/envs/p415env/share/psi4/basis/aug-cc-pvtz-jkfit.gbs 

  ==> Integral Setup <==

  DFHelper Memory: AOs need 0.036 GiB; user supplied 41.910 GiB. 
  Using in-core AOs.

  ==> MemDFJK: Density-Fitted J/K Matrices <==

    J tasked:                   Yes
    K tasked:                   Yes
    wK tasked:                   No
    OpenMP threads:               6
    Memory [MiB]:             42915
    Algorithm:                 Core
    Schwarz Cutoff:           1E-12
    Mask sparsity (%):       0.0000
    Fitting Condition:        1E-10

   => Auxiliary Basis Set <=

  Basis Set: (AUG-CC-PVTZ AUX)
    Blend: AUG-CC-PVTZ-JKFIT + DEF2-UNIVERSAL-JKFIT
    Number of shells: 92
    Number of basis functions: 360
    Number of Cartesian functions: 466
    Spherical Harmonics?: true
    Max angular momentum: 4

  Minimum eigenvalue in the overlap matrix is 6.1847319076E-05.
  Reciprocal condition number of the overlap matrix is 1.1999368934E-05.
    Using symmetric orthogonalization.

  ==> Pre-Iterations <==

  SCF Guess: Superposition of Atomic Densities via on-the-fly atomic UHF (no occupation information).

   -------------------------
    Irrep   Nso     Nmo    
   -------------------------
     A        109     109 
   -------------------------
    Total     109     109
   -------------------------

  ==> Iterations <==

                           Total Energy        Delta E     RMS |[F,P]|

   @DF-RHF iter SAD: -2732.24870720225681   -2.73225e+03   0.00000e+00 
   @DF-RHF iter   1: -2734.14162402718284   -1.89292e+00   9.66452e-03 DIIS/ADIIS
   @DF-RHF iter   2: -2734.34445485322976   -2.02831e-01   5.22028e-03 DIIS/ADIIS
   @DF-RHF iter   3: -2734.40579437579390   -6.13395e-02   1.17169e-04 DIIS/ADIIS
   @DF-RHF iter   4: -2734.40585729077475   -6.29150e-05   2.20393e-05 DIIS
   @DF-RHF iter   5: -2734.40586189116448   -4.60039e-06   6.50207e-06 DIIS
   @DF-RHF iter   6: -2734.40586243230882   -5.41144e-07   1.53260e-06 DIIS
   @DF-RHF iter   7: -2734.40586250085926   -6.85504e-08   2.67649e-07 DIIS
   @DF-RHF iter   8: -2734.40586250353635   -2.67710e-09   4.51690e-08 DIIS
   @DF-RHF iter   9: -2734.40586250362048   -8.41283e-11   8.20463e-09 DIIS
  Energy and wave function converged.


  ==> Post-Iterations <==

    Orbital Energies [Eh]
    ---------------------

    Doubly Occupied:                                                      

       1A   -489.909928     2A    -65.050377     3A    -58.404871  
       4A    -58.404803     5A    -58.404803     6A    -40.508213  
       7A     -9.723022     8A     -7.330968     9A     -7.330152  
      10A     -7.330152    11A     -3.072639    12A     -3.072289  
      13A     -3.072289    14A     -3.071473    15A     -3.071473  
      16A     -2.829344    17A     -1.552054    18A     -1.552054  
      19A     -1.551869    20A     -0.883368    21A     -0.348351  
      22A     -0.330535    23A     -0.330535  

    Virtual:                                                              

      24A     -0.021533    25A      0.011226    26A      0.011226  
      27A      0.013692    28A      0.024110    29A      0.039493  
      30A      0.039493    31A      0.051944    32A      0.062320  
      33A      0.062320    34A      0.071925    35A      0.071925  
      36A      0.081776    37A      0.093461    38A      0.114639  
      39A      0.114639    40A      0.160650    41A      0.162066  
      42A      0.166711    43A      0.166711    44A      0.203610  
      45A      0.203610    46A      0.219670    47A      0.219670  
      48A      0.246754    49A      0.252433    50A      0.252433  
      51A      0.255899    52A      0.255899    53A      0.267438  
      54A      0.312899    55A      0.319859    56A      0.319859  
      57A      0.324266    58A      0.324266    59A      0.403487  
      60A      0.403487    61A      0.414756    62A      0.448883  
      63A      0.448883    64A      0.472381    65A      0.559947  
      66A      0.559947    67A      0.582627    68A      0.582627  
      69A      0.604830    70A      0.673879    71A      0.673879  
      72A      0.679947    73A      0.679947    74A      0.701990  
      75A      0.701990    76A      0.717002    77A      0.717002  
      78A      0.741070    79A      0.837903    80A      0.915412  
      81A      0.915412    82A      0.970118    83A      1.032991  
      84A      1.032991    85A      1.041150    86A      1.041150  
      87A      1.124041    88A      1.135074    89A      1.135074  
      90A      1.331651    91A      1.331651    92A      1.570081  
      93A      2.134587    94A      2.322307    95A      2.322307  
      96A      2.390239    97A      2.406567    98A      2.406567  
      99A      2.414790   100A      2.414790   101A      2.465444  
     102A      2.465444   103A      2.518964   104A      2.532439  
     105A      2.532439   106A      2.588307   107A      2.588307  
     108A      2.688283   109A      4.853117  

    Final Occupation by Irrep:
              A 
    DOCC [    23 ]
    NA   [    23 ]
    NB   [    23 ]

  @DF-RHF Final Energy: -2734.40586250362048

   => Energetics <=

    Nuclear Repulsion Energy =             81.0343443306290538
    One-Electron Energy =               -3976.6092870345505617
    Two-Electron Energy =                1161.1690802003008685
    Total Energy =                      -2734.4058625036204830

Computation Completed


Properties will be evaluated at   0.000000,   0.000000,   0.000000 [a0]

Properties computed using the SCF density matrix


 Multipole Moments:

 ------------------------------------------------------------------------------------
     Multipole            Electronic (a.u.)      Nuclear  (a.u.)        Total (a.u.)
 ------------------------------------------------------------------------------------

 L = 1.  Multiply by 2.5417464519 to convert [e a0] to [Debye]
 Dipole X            :       -170.0379579          166.2875181           -3.7504398
 Dipole Y            :          0.0000000            0.0000000            0.0000000
 Dipole Z            :         -0.0000000            0.0000000           -0.0000000
 Magnitude           :                                                    3.7504398

 ------------------------------------------------------------------------------------

*** tstop() called on moses-razer at Thu Dec 28 16:28:49 2023
Module time:
	user time   =      10.52 seconds =       0.18 minutes
	system time =       1.42 seconds =       0.02 minutes
	total time  =          4 seconds =       0.07 minutes
Total time:
	user time   =      36.64 seconds =       0.61 minutes
	system time =       4.11 seconds =       0.07 minutes
	total time  =         16 seconds =       0.27 minutes

*** tstart() called on moses-razer
*** at Thu Dec 28 16:28:49 2023


  //>>>>>>>>>>>>>>>>>>>>>>>>>>>>>>>>>>>//
  //               DFMP2               //
  //<<<<<<<<<<<<<<<<<<<<<<<<<<<<<<<<<<<//

   => Loading Basis Set <=

    Name: (AUG-CC-PVTZ AUX)
    Role: RIFIT
    Keyword: DF_BASIS_MP2
    atoms 1 entry NA         line   610 file /home/kchung25/anaconda3/envs/p415env/share/psi4/basis/def2-qzvpp-ri.gbs 
    atoms 2 entry BR         line  1248 file /home/kchung25/anaconda3/envs/p415env/share/psi4/basis/aug-cc-pvtz-ri.gbs 

	 --------------------------------------------------------
	                          DF-MP2                         
	      2nd-Order Density-Fitted Moller-Plesset Theory     
	              RMP2 Wavefunction,   6 Threads             
	                                                         
	        Rob Parrish, Justin Turney, Andy Simmonett,      
	           Ed Hohenstein, and C. David Sherrill          
	 --------------------------------------------------------

   => Auxiliary Basis Set <=

  Basis Set: (AUG-CC-PVTZ AUX)
    Blend: AUG-CC-PVTZ-RI + DEF2-QZVPP-RI
    Number of shells: 85
    Number of basis functions: 357
    Number of Cartesian functions: 475
    Spherical Harmonics?: true
    Max angular momentum: 5

	 --------------------------------------------------------
	                 NBF =   109, NAUX =   357
	 --------------------------------------------------------
	   CLASS    FOCC     OCC    AOCC    AVIR     VIR    FVIR
	   PAIRS       0      23      23      86      86       0
	 --------------------------------------------------------

	-----------------------------------------------------------
	 ==================> DF-MP2 Energies <==================== 
	-----------------------------------------------------------
	 Reference Energy          =   -2734.4058625036204830 [Eh]
	 Singles Energy            =      -0.0000000000000000 [Eh]
	 Same-Spin Energy          =      -0.0910030436781759 [Eh]
	 Opposite-Spin Energy      =      -0.2138333151795120 [Eh]
	 Correlation Energy        =      -0.3048363588576879 [Eh]
	 Total Energy              =   -2734.7106988624782389 [Eh]
	-----------------------------------------------------------
	 ================> DF-SCS-MP2 Energies <================== 
	-----------------------------------------------------------
	 SCS Same-Spin Scale       =       0.3333333333333333 [-]
	 SCS Opposite-Spin Scale   =       1.2000000000000000 [-]
	 SCS Same-Spin Energy      =      -0.0303343478927253 [Eh]
	 SCS Opposite-Spin Energy  =      -0.2565999782154144 [Eh]
	 SCS Correlation Energy    =      -0.2869343261081397 [Eh]
	 SCS Total Energy          =   -2734.6927968297286498 [Eh]
	-----------------------------------------------------------


*** tstop() called on moses-razer at Thu Dec 28 16:28:52 2023
Module time:
	user time   =       4.35 seconds =       0.07 minutes
	system time =       0.31 seconds =       0.01 minutes
	total time  =          3 seconds =       0.05 minutes
Total time:
	user time   =      41.00 seconds =       0.68 minutes
	system time =       4.42 seconds =       0.07 minutes
	total time  =         19 seconds =       0.32 minutes

    Psi4 stopped on: Thursday, 28 December 2023 04:28PM
    Psi4 wall time for execution: 0:00:06.87


  //>>>>>>>>>>>>>>>>>>>>>>>>>>>>>>>>>>>//
  //          ManyBody Results         //
  //<<<<<<<<<<<<<<<<<<<<<<<<<<<<<<<<<<<//


   ==> N-Body: Counterpoise Corrected (CP) energies <==

        n-Body     Total Energy            Interaction Energy                          N-body Contribution to Interaction Energy
                   [Eh]                    [Eh]                  [kcal/mol]            [Eh]                  [kcal/mol]
             1  N/A                         0.000000000000        0.000000000000        0.000000000000        0.000000000000
  FULL/RTN   2  N/A                        -0.196425885317     -123.259103931708       -0.196425885317     -123.259103931708


    Psi4 stopped on: Thursday, 28 December 2023 04:28PM
    Psi4 wall time for execution: 0:00:21.16

*** Psi4 exiting successfully. Buy a developer a beer!
