
    -----------------------------------------------------------------------
          Psi4: An Open-Source Ab Initio Electronic Structure Package
                               Psi4 1.9 release

                         Git: Rev {} zzzzzzz 


    D. G. A. Smith, L. A. Burns, A. C. Simmonett, R. M. Parrish,
    M. C. Schieber, R. Galvelis, P. Kraus, H. Kruse, R. Di Remigio,
    A. Alenaizan, A. M. James, S. Lehtola, J. P. Misiewicz, M. Scheurer,
    R. A. Shaw, J. B. Schriber, Y. Xie, Z. L. Glick, D. A. Sirianni,
    J. S. O'Brien, J. M. Waldrop, A. Kumar, E. G. Hohenstein,
    B. P. Pritchard, B. R. Brooks, H. F. Schaefer III, A. Yu. Sokolov,
    K. Patkowski, A. E. DePrince III, U. Bozkaya, R. A. King,
    F. A. Evangelista, J. M. Turney, T. D. Crawford, C. D. Sherrill,
    J. Chem. Phys. 152(18) 184108 (2020). https://doi.org/10.1063/5.0006002

                            Additional Code Authors
    E. T. Seidl, C. L. Janssen, E. F. Valeev, M. L. Leininger,
    J. F. Gonthier, R. M. Richard, H. R. McAlexander, M. Saitow, X. Wang,
    P. Verma, M. H. Lechner, A. Jiang, S. Behnle, A. G. Heide,
    M. F. Herbst, and D. L. Poole

             Previous Authors, Complete List of Code Contributors,
                       and Citations for Specific Modules
    https://github.com/psi4/psi4/blob/master/codemeta.json
    https://github.com/psi4/psi4/graphs/contributors
    http://psicode.org/psi4manual/master/introduction.html#citing-psifour

    -----------------------------------------------------------------------


    Psi4 started on: Thursday, 28 December 2023 04:39PM

    Process ID: 86116
    Host:       moses-razer
    PSIDATADIR: /home/kchung25/anaconda3/envs/psi4_19/share/psi4
    Memory:     500.0 MiB
    Threads:    6
    
  ==> Input File <==

--------------------------------------------------------------------------
MEMORY 60 GB

molecule dimer {
1 1
K     0.000000     0.000000     0.000000
--
-1 1
Cl     2.765223     0.000000     0.000000

units ang
no_reorient
no_com
symmetry c1
}

set {
basis        aug-cc-pVTZ
scf_type     df
}

energy("mp2", bsse_type="cp")
--------------------------------------------------------------------------

  Memory set to  55.879 GiB by Python driver.

Scratch directory: /scratch/

  //>>>>>>>>>>>>>>>>>>>>>>>>>>>>>>>>>>>>>//
  // ManyBody Setup: N-Body Levels [1, 2]//
  //<<<<<<<<<<<<<<<<<<<<<<<<<<<<<<<<<<<<<//

        Number of 1-body computations:     2
        Number of 2-body computations:     1

    -----------------------------------------------------------------------
          Psi4: An Open-Source Ab Initio Electronic Structure Package
                               Psi4 1.9 release

                         Git: Rev {} zzzzzzz 


    D. G. A. Smith, L. A. Burns, A. C. Simmonett, R. M. Parrish,
    M. C. Schieber, R. Galvelis, P. Kraus, H. Kruse, R. Di Remigio,
    A. Alenaizan, A. M. James, S. Lehtola, J. P. Misiewicz, M. Scheurer,
    R. A. Shaw, J. B. Schriber, Y. Xie, Z. L. Glick, D. A. Sirianni,
    J. S. O'Brien, J. M. Waldrop, A. Kumar, E. G. Hohenstein,
    B. P. Pritchard, B. R. Brooks, H. F. Schaefer III, A. Yu. Sokolov,
    K. Patkowski, A. E. DePrince III, U. Bozkaya, R. A. King,
    F. A. Evangelista, J. M. Turney, T. D. Crawford, C. D. Sherrill,
    J. Chem. Phys. 152(18) 184108 (2020). https://doi.org/10.1063/5.0006002

                            Additional Code Authors
    E. T. Seidl, C. L. Janssen, E. F. Valeev, M. L. Leininger,
    J. F. Gonthier, R. M. Richard, H. R. McAlexander, M. Saitow, X. Wang,
    P. Verma, M. H. Lechner, A. Jiang, S. Behnle, A. G. Heide,
    M. F. Herbst, and D. L. Poole

             Previous Authors, Complete List of Code Contributors,
                       and Citations for Specific Modules
    https://github.com/psi4/psi4/blob/master/codemeta.json
    https://github.com/psi4/psi4/graphs/contributors
    http://psicode.org/psi4manual/master/introduction.html#citing-psifour

    -----------------------------------------------------------------------


    Psi4 started on: Thursday, 28 December 2023 04:39PM

    Process ID: 86116
    Host:       moses-razer
    PSIDATADIR: /home/kchung25/anaconda3/envs/psi4_19/share/psi4
    Memory:     55.9 GiB
    Threads:    6
    
  ==> Input QCSchema <==

--------------------------------------------------------------------------
{'driver': 'energy',
 'extras': {'psiapi': True, 'wfn_qcvars_only': True},
 'id': None,
 'keywords': {'SCF_TYPE': 'DF', 'function_kwargs': {}},
 'model': {'basis': 'aug-cc-pvtz', 'method': 'mp2'},
 'molecule': {'atom_labels': ['', ''],
              'atomic_numbers': [19, 17],
              'extras': {},
              'fix_com': True,
              'fix_orientation': True,
              'fix_symmetry': 'c1',
              'fragment_charges': [0.0, -1.0],
              'fragment_multiplicities': [1, 1],
              'fragments': [[0], [1]],
              'geometry': [0.0, 0.0, 0.0, 5.225514145816872, 0.0, 0.0],
              'mass_numbers': [39, 35],
              'masses': [38.9637064864, 34.968852682],
              'molecular_charge': -1.0,
              'molecular_multiplicity': 1,
              'name': 'dimer',
              'provenance': {'creator': 'QCElemental',
                             'routine': 'qcelemental.molparse.from_string',
                             'version': '0.27.1'},
              'real': [False, True],
              'schema_name': 'qcschema_molecule',
              'schema_version': 2,
              'symbols': ['K', 'Cl'],
              'validated': True},
 'protocols': {'stdout': True},
 'provenance': {'creator': 'QCElemental', 'routine': 'qcelemental.models.results', 'version': '0.27.1'},
 'schema_name': 'qcschema_input',
 'schema_version': 1}
--------------------------------------------------------------------------

Scratch directory: /scratch/
   => Libint2 <=

    Primary   basis highest AM E, G, H:  5, 4, 3
    Auxiliary basis highest AM E, G, H:  6, 5, 4
    Onebody   basis highest AM E, G, H:  6, 5, 4
    Solid Harmonics ordering:            gaussian

*** tstart() called on moses-razer
*** at Thu Dec 28 16:39:45 2023

   => Loading Basis Set <=

    Name: AUG-CC-PVTZ
    Role: ORBITAL
    Keyword: BASIS
    atoms 1 entry K          line  1152 file /home/kchung25/anaconda3/envs/p415env/share/psi4/basis/aug-cc-pvtz.gbs 
    atoms 2 entry CL         line   988 file /home/kchung25/anaconda3/envs/p415env/share/psi4/basis/aug-cc-pvtz.gbs 


         ---------------------------------------------------------
                                   SCF
               by Justin Turney, Rob Parrish, Andy Simmonett
                          and Daniel G. A. Smith
                              RHF Reference
                        6 Threads,  57220 MiB Core
         ---------------------------------------------------------

  ==> Geometry <==

    Molecular point group: c1
    Full point group: C_inf_v

    Geometry (in Bohr), charge = -1, multiplicity = 1:

       Center              X                  Y                   Z               Mass       
    ------------   -----------------  -----------------  -----------------  -----------------
      Gh(K)           0.000000000000     0.000000000000     0.000000000000    38.963706486400
         CL           5.225514145817     0.000000000000     0.000000000000    34.968852682000

  Running in c1 symmetry.

  Rotational constants: A = ************  B =      0.06305  C =      0.06305 [cm^-1]
  Rotational constants: A = ************  B =   1890.05958  C =   1890.05958 [MHz]
  Nuclear repulsion =    0.000000000000000

  Charge       = -1
  Multiplicity = 1
  Electrons    = 18
  Nalpha       = 9
  Nbeta        = 9

  ==> Algorithm <==

  SCF Algorithm Type is DF.
  DIIS enabled.
  MOM disabled.
  Fractional occupation disabled.
  Guess Type is SAD.
  Energy threshold   = 1.00e-08
  Density threshold  = 1.00e-08
  Integral threshold = 1.00e-12

  ==> Primary Basis <==

  Basis Set: AUG-CC-PVTZ
    Blend: AUG-CC-PVTZ
    Number of shells: 35
    Number of basis functions: 109
    Number of Cartesian functions: 128
    Spherical Harmonics?: true
    Max angular momentum: 3

   => Loading Basis Set <=

    Name: (AUG-CC-PVTZ AUX)
    Role: JKFIT
    Keyword: DF_BASIS_SCF
    atoms 1 entry K          line  1152 file /home/kchung25/anaconda3/envs/p415env/share/psi4/basis/def2-universal-jkfit.gbs 
    atoms 2 entry CL         line   816 file /home/kchung25/anaconda3/envs/p415env/share/psi4/basis/aug-cc-pvtz-jkfit.gbs 

  ==> Integral Setup <==

  DFHelper Memory: AOs need 0.031 GiB; user supplied 41.910 GiB. 
  Using in-core AOs.

  ==> MemDFJK: Density-Fitted J/K Matrices <==

    J tasked:                   Yes
    K tasked:                   Yes
    wK tasked:                   No
    OpenMP threads:               6
    Memory [MiB]:             42915
    Algorithm:                 Core
    Schwarz Cutoff:           1E-12
    Mask sparsity (%):       0.0000
    Fitting Condition:        1E-10

   => Auxiliary Basis Set <=

  Basis Set: (AUG-CC-PVTZ AUX)
    Blend: AUG-CC-PVTZ-JKFIT + DEF2-UNIVERSAL-JKFIT
    Number of shells: 86
    Number of basis functions: 306
    Number of Cartesian functions: 383
    Spherical Harmonics?: true
    Max angular momentum: 4

  Minimum eigenvalue in the overlap matrix is 4.7902048913E-04.
  Reciprocal condition number of the overlap matrix is 9.5071706249E-05.
    Using symmetric orthogonalization.

  ==> Pre-Iterations <==

  SCF Guess: Superposition of Atomic Densities via on-the-fly atomic UHF (no occupation information).

   -------------------------
    Irrep   Nso     Nmo    
   -------------------------
     A        109     109 
   -------------------------
    Total     109     109
   -------------------------

  ==> Iterations <==

                           Total Energy        Delta E     RMS |[F,P]|

   @DF-RHF iter SAD:  -459.11248997363020   -4.59112e+02   0.00000e+00 
   @DF-RHF iter   1:  -459.51384798914211   -4.01358e-01   2.73609e-03 DIIS/ADIIS
   @DF-RHF iter   2:  -459.56473254059739   -5.08846e-02   1.39909e-03 DIIS/ADIIS
   @DF-RHF iter   3:  -459.57344113451120   -8.70859e-03   9.04323e-05 DIIS
   @DF-RHF iter   4:  -459.57349408752708   -5.29530e-05   1.89370e-05 DIIS
   @DF-RHF iter   5:  -459.57349773689100   -3.64936e-06   1.94158e-06 DIIS
   @DF-RHF iter   6:  -459.57349781815674   -8.12657e-08   1.57768e-07 DIIS
   @DF-RHF iter   7:  -459.57349781898165   -8.24912e-10   2.03580e-08 DIIS
   @DF-RHF iter   8:  -459.57349781900371   -2.20552e-11   2.51552e-09 DIIS
  Energy and wave function converged.


  ==> Post-Iterations <==

    Orbital Energies [Eh]
    ---------------------

    Doubly Occupied:                                                      

       1A   -104.506278     2A    -10.229825     3A     -7.695870  
       4A     -7.695870     5A     -7.695854     6A     -0.733508  
       7A     -0.150336     8A     -0.150333     9A     -0.150333  

    Virtual:                                                              

      10A      0.059002    11A      0.060559    12A      0.060559  
      13A      0.074490    14A      0.074490    15A      0.077391  
      16A      0.078389    17A      0.078389    18A      0.085148  
      19A      0.114576    20A      0.114576    21A      0.115083  
      22A      0.145324    23A      0.153353    24A      0.153353  
      25A      0.157454    26A      0.157454    27A      0.160496  
      28A      0.216393    29A      0.216393    30A      0.218263  
      31A      0.243219    32A      0.246922    33A      0.246922  
      34A      0.250100    35A      0.250100    36A      0.256069  
      37A      0.258419    38A      0.258419    39A      0.309147  
      40A      0.339142    41A      0.339142    42A      0.364840  
      43A      0.364840    44A      0.386047    45A      0.392001  
      46A      0.392001    47A      0.426911    48A      0.426911  
      49A      0.482181    50A      0.532702    51A      0.597741  
      52A      0.597741    53A      0.601423    54A      0.601423  
      55A      0.603162    56A      0.618262    57A      0.618262  
      58A      0.654454    59A      0.662538    60A      0.662538  
      61A      0.727816    62A      0.727816    63A      0.809079  
      64A      0.985378    65A      0.985378    66A      1.055629  
      67A      1.233269    68A      1.253885    69A      1.253885  
      70A      1.324292    71A      1.324292    72A      1.383595  
      73A      1.466981    74A      1.466981    75A      1.470809  
      76A      1.472710    77A      1.472710    78A      1.517204  
      79A      1.517204    80A      1.789995    81A      2.015502  
      82A      2.015502    83A      2.080216    84A      2.080216  
      85A      2.206160    86A      2.344912    87A      2.344912  
      88A      2.653451    89A      2.858796    90A      2.858796  
      91A      2.924140    92A      2.924140    93A      2.960307  
      94A      3.068923    95A      3.068923    96A      3.240581  
      97A      3.376471    98A      3.376471    99A      3.408217  
     100A      3.408217   101A      3.454690   102A      3.474839  
     103A      3.474839   104A      5.820930   105A     10.030305  
     106A     30.407996   107A     30.407996   108A     30.631142  
     109A    197.301209  

    Final Occupation by Irrep:
              A 
    DOCC [     9 ]
    NA   [     9 ]
    NB   [     9 ]

  @DF-RHF Final Energy:  -459.57349781900371

   => Energetics <=

    Nuclear Repulsion Energy =              0.0000000000000000
    One-Electron Energy =                -641.1305807552631677
    Two-Electron Energy =                 181.5570829362594623
    Total Energy =                       -459.5734978190037054

Computation Completed


Properties will be evaluated at   0.000000,   0.000000,   0.000000 [a0]

Properties computed using the SCF density matrix


 Multipole Moments:

 ------------------------------------------------------------------------------------
     Multipole            Electronic (a.u.)      Nuclear  (a.u.)        Total (a.u.)
 ------------------------------------------------------------------------------------

 L = 1.  Multiply by 2.5417464519 to convert [e a0] to [Debye]
 Dipole X            :        -94.0601146           88.8337405           -5.2263741
 Dipole Y            :         -0.0000000            0.0000000           -0.0000000
 Dipole Z            :         -0.0000000            0.0000000           -0.0000000
 Magnitude           :                                                    5.2263741

 ------------------------------------------------------------------------------------

*** tstop() called on moses-razer at Thu Dec 28 16:39:49 2023
Module time:
	user time   =       9.69 seconds =       0.16 minutes
	system time =       1.48 seconds =       0.02 minutes
	total time  =          4 seconds =       0.07 minutes
Total time:
	user time   =       9.69 seconds =       0.16 minutes
	system time =       1.48 seconds =       0.02 minutes
	total time  =          4 seconds =       0.07 minutes

*** tstart() called on moses-razer
*** at Thu Dec 28 16:39:49 2023


  //>>>>>>>>>>>>>>>>>>>>>>>>>>>>>>>>>>>//
  //               DFMP2               //
  //<<<<<<<<<<<<<<<<<<<<<<<<<<<<<<<<<<<//

   => Loading Basis Set <=

    Name: (AUG-CC-PVTZ AUX)
    Role: RIFIT
    Keyword: DF_BASIS_MP2
    atoms 1 entry K          line  1282 file /home/kchung25/anaconda3/envs/p415env/share/psi4/basis/def2-qzvpp-ri.gbs 
    atoms 2 entry CL         line   742 file /home/kchung25/anaconda3/envs/p415env/share/psi4/basis/aug-cc-pvtz-ri.gbs 

	 --------------------------------------------------------
	                          DF-MP2                         
	      2nd-Order Density-Fitted Moller-Plesset Theory     
	              RMP2 Wavefunction,   6 Threads             
	                                                         
	        Rob Parrish, Justin Turney, Andy Simmonett,      
	           Ed Hohenstein, and C. David Sherrill          
	 --------------------------------------------------------

   => Auxiliary Basis Set <=

  Basis Set: (AUG-CC-PVTZ AUX)
    Blend: AUG-CC-PVTZ-RI + DEF2-QZVPP-RI
    Number of shells: 86
    Number of basis functions: 346
    Number of Cartesian functions: 453
    Spherical Harmonics?: true
    Max angular momentum: 4

	 --------------------------------------------------------
	                 NBF =   109, NAUX =   346
	 --------------------------------------------------------
	   CLASS    FOCC     OCC    AOCC    AVIR     VIR    FVIR
	   PAIRS       0       9       9     100     100       0
	 --------------------------------------------------------

	-----------------------------------------------------------
	 ==================> DF-MP2 Energies <==================== 
	-----------------------------------------------------------
	 Reference Energy          =    -459.5734978190037054 [Eh]
	 Singles Energy            =      -0.0000000000000000 [Eh]
	 Same-Spin Energy          =      -0.0625022186179142 [Eh]
	 Opposite-Spin Energy      =      -0.1793879819485111 [Eh]
	 Correlation Energy        =      -0.2418902005664253 [Eh]
	 Total Energy              =    -459.8153880195701504 [Eh]
	-----------------------------------------------------------
	 ================> DF-SCS-MP2 Energies <================== 
	-----------------------------------------------------------
	 SCS Same-Spin Scale       =       0.3333333333333333 [-]
	 SCS Opposite-Spin Scale   =       1.2000000000000000 [-]
	 SCS Same-Spin Energy      =      -0.0208340728726381 [Eh]
	 SCS Opposite-Spin Energy  =      -0.2152655783382134 [Eh]
	 SCS Correlation Energy    =      -0.2360996512108514 [Eh]
	 SCS Total Energy          =    -459.8095974702145554 [Eh]
	-----------------------------------------------------------


*** tstop() called on moses-razer at Thu Dec 28 16:39:54 2023
Module time:
	user time   =       6.49 seconds =       0.11 minutes
	system time =       0.78 seconds =       0.01 minutes
	total time  =          5 seconds =       0.08 minutes
Total time:
	user time   =      16.18 seconds =       0.27 minutes
	system time =       2.26 seconds =       0.04 minutes
	total time  =          9 seconds =       0.15 minutes

    Psi4 stopped on: Thursday, 28 December 2023 04:39PM
    Psi4 wall time for execution: 0:00:09.69


    -----------------------------------------------------------------------
          Psi4: An Open-Source Ab Initio Electronic Structure Package
                               Psi4 1.9 release

                         Git: Rev {} zzzzzzz 


    D. G. A. Smith, L. A. Burns, A. C. Simmonett, R. M. Parrish,
    M. C. Schieber, R. Galvelis, P. Kraus, H. Kruse, R. Di Remigio,
    A. Alenaizan, A. M. James, S. Lehtola, J. P. Misiewicz, M. Scheurer,
    R. A. Shaw, J. B. Schriber, Y. Xie, Z. L. Glick, D. A. Sirianni,
    J. S. O'Brien, J. M. Waldrop, A. Kumar, E. G. Hohenstein,
    B. P. Pritchard, B. R. Brooks, H. F. Schaefer III, A. Yu. Sokolov,
    K. Patkowski, A. E. DePrince III, U. Bozkaya, R. A. King,
    F. A. Evangelista, J. M. Turney, T. D. Crawford, C. D. Sherrill,
    J. Chem. Phys. 152(18) 184108 (2020). https://doi.org/10.1063/5.0006002

                            Additional Code Authors
    E. T. Seidl, C. L. Janssen, E. F. Valeev, M. L. Leininger,
    J. F. Gonthier, R. M. Richard, H. R. McAlexander, M. Saitow, X. Wang,
    P. Verma, M. H. Lechner, A. Jiang, S. Behnle, A. G. Heide,
    M. F. Herbst, and D. L. Poole

             Previous Authors, Complete List of Code Contributors,
                       and Citations for Specific Modules
    https://github.com/psi4/psi4/blob/master/codemeta.json
    https://github.com/psi4/psi4/graphs/contributors
    http://psicode.org/psi4manual/master/introduction.html#citing-psifour

    -----------------------------------------------------------------------


    Psi4 started on: Thursday, 28 December 2023 04:39PM

    Process ID: 86116
    Host:       moses-razer
    PSIDATADIR: /home/kchung25/anaconda3/envs/psi4_19/share/psi4
    Memory:     55.9 GiB
    Threads:    6
    
  ==> Input QCSchema <==

--------------------------------------------------------------------------
{'driver': 'energy',
 'extras': {'psiapi': True, 'wfn_qcvars_only': True},
 'id': None,
 'keywords': {'SCF_TYPE': 'DF', 'function_kwargs': {}},
 'model': {'basis': 'aug-cc-pvtz', 'method': 'mp2'},
 'molecule': {'atom_labels': ['', ''],
              'atomic_numbers': [19, 17],
              'extras': {},
              'fix_com': True,
              'fix_orientation': True,
              'fix_symmetry': 'c1',
              'fragment_charges': [1.0, 0.0],
              'fragment_multiplicities': [1, 1],
              'fragments': [[0], [1]],
              'geometry': [0.0, 0.0, 0.0, 5.225514145816872, 0.0, 0.0],
              'mass_numbers': [39, 35],
              'masses': [38.9637064864, 34.968852682],
              'molecular_charge': 1.0,
              'molecular_multiplicity': 1,
              'name': 'dimer',
              'provenance': {'creator': 'QCElemental',
                             'routine': 'qcelemental.molparse.from_string',
                             'version': '0.27.1'},
              'real': [True, False],
              'schema_name': 'qcschema_molecule',
              'schema_version': 2,
              'symbols': ['K', 'Cl'],
              'validated': True},
 'protocols': {'stdout': True},
 'provenance': {'creator': 'QCElemental', 'routine': 'qcelemental.models.results', 'version': '0.27.1'},
 'schema_name': 'qcschema_input',
 'schema_version': 1}
--------------------------------------------------------------------------

Scratch directory: /scratch/
   => Libint2 <=

    Primary   basis highest AM E, G, H:  5, 4, 3
    Auxiliary basis highest AM E, G, H:  6, 5, 4
    Onebody   basis highest AM E, G, H:  6, 5, 4
    Solid Harmonics ordering:            gaussian

*** tstart() called on moses-razer
*** at Thu Dec 28 16:39:54 2023

   => Loading Basis Set <=

    Name: AUG-CC-PVTZ
    Role: ORBITAL
    Keyword: BASIS
    atoms 1 entry K          line  1152 file /home/kchung25/anaconda3/envs/p415env/share/psi4/basis/aug-cc-pvtz.gbs 
    atoms 2 entry CL         line   988 file /home/kchung25/anaconda3/envs/p415env/share/psi4/basis/aug-cc-pvtz.gbs 


         ---------------------------------------------------------
                                   SCF
               by Justin Turney, Rob Parrish, Andy Simmonett
                          and Daniel G. A. Smith
                              RHF Reference
                        6 Threads,  57220 MiB Core
         ---------------------------------------------------------

  ==> Geometry <==

    Molecular point group: c1
    Full point group: C_inf_v

    Geometry (in Bohr), charge = 1, multiplicity = 1:

       Center              X                  Y                   Z               Mass       
    ------------   -----------------  -----------------  -----------------  -----------------
         K            0.000000000000     0.000000000000     0.000000000000    38.963706486400
      Gh(CL)          5.225514145817     0.000000000000     0.000000000000    34.968852682000

  Running in c1 symmetry.

  Rotational constants: A = ************  B =      0.06305  C =      0.06305 [cm^-1]
  Rotational constants: A = ************  B =   1890.05958  C =   1890.05958 [MHz]
  Nuclear repulsion =    0.000000000000000

  Charge       = 1
  Multiplicity = 1
  Electrons    = 18
  Nalpha       = 9
  Nbeta        = 9

  ==> Algorithm <==

  SCF Algorithm Type is DF.
  DIIS enabled.
  MOM disabled.
  Fractional occupation disabled.
  Guess Type is SAD.
  Energy threshold   = 1.00e-08
  Density threshold  = 1.00e-08
  Integral threshold = 1.00e-12

  ==> Primary Basis <==

  Basis Set: AUG-CC-PVTZ
    Blend: AUG-CC-PVTZ
    Number of shells: 35
    Number of basis functions: 109
    Number of Cartesian functions: 128
    Spherical Harmonics?: true
    Max angular momentum: 3

   => Loading Basis Set <=

    Name: (AUG-CC-PVTZ AUX)
    Role: JKFIT
    Keyword: DF_BASIS_SCF
    atoms 1 entry K          line  1152 file /home/kchung25/anaconda3/envs/p415env/share/psi4/basis/def2-universal-jkfit.gbs 
    atoms 2 entry CL         line   816 file /home/kchung25/anaconda3/envs/p415env/share/psi4/basis/aug-cc-pvtz-jkfit.gbs 

  ==> Integral Setup <==

  DFHelper Memory: AOs need 0.031 GiB; user supplied 41.910 GiB. 
  Using in-core AOs.

  ==> MemDFJK: Density-Fitted J/K Matrices <==

    J tasked:                   Yes
    K tasked:                   Yes
    wK tasked:                   No
    OpenMP threads:               6
    Memory [MiB]:             42915
    Algorithm:                 Core
    Schwarz Cutoff:           1E-12
    Mask sparsity (%):       0.0000
    Fitting Condition:        1E-10

   => Auxiliary Basis Set <=

  Basis Set: (AUG-CC-PVTZ AUX)
    Blend: AUG-CC-PVTZ-JKFIT + DEF2-UNIVERSAL-JKFIT
    Number of shells: 86
    Number of basis functions: 306
    Number of Cartesian functions: 383
    Spherical Harmonics?: true
    Max angular momentum: 4

  Minimum eigenvalue in the overlap matrix is 4.7902048913E-04.
  Reciprocal condition number of the overlap matrix is 9.5071706249E-05.
    Using symmetric orthogonalization.

  ==> Pre-Iterations <==

  SCF Guess: Superposition of Atomic Densities via on-the-fly atomic UHF (no occupation information).

   -------------------------
    Irrep   Nso     Nmo    
   -------------------------
     A        109     109 
   -------------------------
    Total     109     109
   -------------------------

  ==> Iterations <==

                           Total Energy        Delta E     RMS |[F,P]|

   @DF-RHF iter SAD:  -599.05184302452824   -5.99052e+02   0.00000e+00 
   @DF-RHF iter   1:  -599.01748788556017    3.43551e-02   4.98850e-05 DIIS
   @DF-RHF iter   2:  -599.01750713870968   -1.92531e-05   7.48848e-06 DIIS
   @DF-RHF iter   3:  -599.01750763566588   -4.96956e-07   3.58412e-07 DIIS
   @DF-RHF iter   4:  -599.01750763680161   -1.13573e-09   4.13612e-08 DIIS
   @DF-RHF iter   5:  -599.01750763681980   -1.81899e-11   7.40447e-09 DIIS
  Energy and wave function converged.


  ==> Post-Iterations <==

    Orbital Energies [Eh]
    ---------------------

    Doubly Occupied:                                                      

       1A   -133.753785     2A    -14.709225     3A    -11.739292  
       4A    -11.739286     5A    -11.739286     6A     -1.964370  
       7A     -1.170983     8A     -1.170936     9A     -1.170936  

    Virtual:                                                              

      10A     -0.146973    11A     -0.095560    12A     -0.095553  
      13A     -0.095553    14A     -0.060528    15A     -0.057846  
      16A     -0.057812    17A     -0.057812    18A     -0.057719  
      19A     -0.057719    20A     -0.045538    21A     -0.045535  
      22A     -0.045535    23A     -0.031267    24A     -0.031227  
      25A     -0.031227    26A     -0.031207    27A     -0.031207  
      28A     -0.016922    29A     -0.016205    30A     -0.016205  
      31A     -0.012918    32A      0.008383    33A      0.013625  
      34A      0.013625    35A      0.014679    36A      0.016464  
      37A      0.016464    38A      0.016825    39A      0.016825  
      40A      0.016944    41A      0.016944    42A      0.019796  
      43A      0.019796    44A      0.062562    45A      0.079941  
      46A      0.079941    47A      0.094172    48A      0.103466  
      49A      0.103466    50A      0.144439    51A      0.212231  
      52A      0.222199    53A      0.222199    54A      0.222387  
      55A      0.222387    56A      0.231576    57A      0.231576  
      58A      0.236542    59A      0.236542    60A      0.238941  
      61A      0.238941    62A      0.273343    63A      0.343008  
      64A      0.343008    65A      0.350565    66A      0.350565  
      67A      0.354765    68A      0.395288    69A      0.461231  
      70A      0.472071    71A      0.472071    72A      0.797663  
      73A      1.126325    74A      1.126325    75A      1.130863  
      76A      1.130863    77A      1.155592    78A      1.155592  
      79A      1.176373    80A      1.207844    81A      1.207844  
      82A      1.310840    83A      1.339703    84A      1.339703  
      85A      1.343317    86A      1.427117    87A      1.444111  
      88A      1.444111    89A      3.743682    90A      3.743682  
      91A      3.760374    92A      3.760374    93A      3.768183  
      94A      3.768183    95A      3.776317    96A      3.825834  
      97A      3.825834    98A      3.903243    99A      3.991186  
     100A      4.501835   101A      4.501835   102A      4.538807  
     103A      4.567402   104A      4.567402   105A     13.871751  
     106A     27.594600   107A     27.594600   108A     27.734140  
     109A    160.586990  

    Final Occupation by Irrep:
              A 
    DOCC [     9 ]
    NA   [     9 ]
    NB   [     9 ]

  @DF-RHF Final Energy:  -599.01750763681980

   => Energetics <=

    Nuclear Repulsion Energy =              0.0000000000000000
    One-Electron Energy =                -819.7188202115045215
    Two-Electron Energy =                 220.7013125746847777
    Total Energy =                       -599.0175076368198006

Computation Completed


Properties will be evaluated at   0.000000,   0.000000,   0.000000 [a0]

Properties computed using the SCF density matrix


 Multipole Moments:

 ------------------------------------------------------------------------------------
     Multipole            Electronic (a.u.)      Nuclear  (a.u.)        Total (a.u.)
 ------------------------------------------------------------------------------------

 L = 1.  Multiply by 2.5417464519 to convert [e a0] to [Debye]
 Dipole X            :          0.0005063            0.0000000            0.0005063
 Dipole Y            :         -0.0000000            0.0000000           -0.0000000
 Dipole Z            :          0.0000000            0.0000000            0.0000000
 Magnitude           :                                                    0.0005063

 ------------------------------------------------------------------------------------

*** tstop() called on moses-razer at Thu Dec 28 16:40:01 2023
Module time:
	user time   =      12.18 seconds =       0.20 minutes
	system time =       2.43 seconds =       0.04 minutes
	total time  =          7 seconds =       0.12 minutes
Total time:
	user time   =      28.68 seconds =       0.48 minutes
	system time =       4.70 seconds =       0.08 minutes
	total time  =         16 seconds =       0.27 minutes

*** tstart() called on moses-razer
*** at Thu Dec 28 16:40:01 2023


  //>>>>>>>>>>>>>>>>>>>>>>>>>>>>>>>>>>>//
  //               DFMP2               //
  //<<<<<<<<<<<<<<<<<<<<<<<<<<<<<<<<<<<//

   => Loading Basis Set <=

    Name: (AUG-CC-PVTZ AUX)
    Role: RIFIT
    Keyword: DF_BASIS_MP2
    atoms 1 entry K          line  1282 file /home/kchung25/anaconda3/envs/p415env/share/psi4/basis/def2-qzvpp-ri.gbs 
    atoms 2 entry CL         line   742 file /home/kchung25/anaconda3/envs/p415env/share/psi4/basis/aug-cc-pvtz-ri.gbs 

	 --------------------------------------------------------
	                          DF-MP2                         
	      2nd-Order Density-Fitted Moller-Plesset Theory     
	              RMP2 Wavefunction,   6 Threads             
	                                                         
	        Rob Parrish, Justin Turney, Andy Simmonett,      
	           Ed Hohenstein, and C. David Sherrill          
	 --------------------------------------------------------

   => Auxiliary Basis Set <=

  Basis Set: (AUG-CC-PVTZ AUX)
    Blend: AUG-CC-PVTZ-RI + DEF2-QZVPP-RI
    Number of shells: 86
    Number of basis functions: 346
    Number of Cartesian functions: 453
    Spherical Harmonics?: true
    Max angular momentum: 4

	 --------------------------------------------------------
	                 NBF =   109, NAUX =   346
	 --------------------------------------------------------
	   CLASS    FOCC     OCC    AOCC    AVIR     VIR    FVIR
	   PAIRS       0       9       9     100     100       0
	 --------------------------------------------------------

	-----------------------------------------------------------
	 ==================> DF-MP2 Energies <==================== 
	-----------------------------------------------------------
	 Reference Energy          =    -599.0175076368198006 [Eh]
	 Singles Energy            =      -0.0000000000000000 [Eh]
	 Same-Spin Energy          =      -0.0274566476281463 [Eh]
	 Opposite-Spin Energy      =      -0.0637633733145329 [Eh]
	 Correlation Energy        =      -0.0912200209426792 [Eh]
	 Total Energy              =    -599.1087276577625289 [Eh]
	-----------------------------------------------------------
	 ================> DF-SCS-MP2 Energies <================== 
	-----------------------------------------------------------
	 SCS Same-Spin Scale       =       0.3333333333333333 [-]
	 SCS Opposite-Spin Scale   =       1.2000000000000000 [-]
	 SCS Same-Spin Energy      =      -0.0091522158760488 [Eh]
	 SCS Opposite-Spin Energy  =      -0.0765160479774395 [Eh]
	 SCS Correlation Energy    =      -0.0856682638534883 [Eh]
	 SCS Total Energy          =    -599.1031759006732500 [Eh]
	-----------------------------------------------------------


*** tstop() called on moses-razer at Thu Dec 28 16:40:06 2023
Module time:
	user time   =       6.56 seconds =       0.11 minutes
	system time =       0.80 seconds =       0.01 minutes
	total time  =          5 seconds =       0.08 minutes
Total time:
	user time   =      35.24 seconds =       0.59 minutes
	system time =       5.50 seconds =       0.09 minutes
	total time  =         21 seconds =       0.35 minutes

    Psi4 stopped on: Thursday, 28 December 2023 04:40PM
    Psi4 wall time for execution: 0:00:12.02


    -----------------------------------------------------------------------
          Psi4: An Open-Source Ab Initio Electronic Structure Package
                               Psi4 1.9 release

                         Git: Rev {} zzzzzzz 


    D. G. A. Smith, L. A. Burns, A. C. Simmonett, R. M. Parrish,
    M. C. Schieber, R. Galvelis, P. Kraus, H. Kruse, R. Di Remigio,
    A. Alenaizan, A. M. James, S. Lehtola, J. P. Misiewicz, M. Scheurer,
    R. A. Shaw, J. B. Schriber, Y. Xie, Z. L. Glick, D. A. Sirianni,
    J. S. O'Brien, J. M. Waldrop, A. Kumar, E. G. Hohenstein,
    B. P. Pritchard, B. R. Brooks, H. F. Schaefer III, A. Yu. Sokolov,
    K. Patkowski, A. E. DePrince III, U. Bozkaya, R. A. King,
    F. A. Evangelista, J. M. Turney, T. D. Crawford, C. D. Sherrill,
    J. Chem. Phys. 152(18) 184108 (2020). https://doi.org/10.1063/5.0006002

                            Additional Code Authors
    E. T. Seidl, C. L. Janssen, E. F. Valeev, M. L. Leininger,
    J. F. Gonthier, R. M. Richard, H. R. McAlexander, M. Saitow, X. Wang,
    P. Verma, M. H. Lechner, A. Jiang, S. Behnle, A. G. Heide,
    M. F. Herbst, and D. L. Poole

             Previous Authors, Complete List of Code Contributors,
                       and Citations for Specific Modules
    https://github.com/psi4/psi4/blob/master/codemeta.json
    https://github.com/psi4/psi4/graphs/contributors
    http://psicode.org/psi4manual/master/introduction.html#citing-psifour

    -----------------------------------------------------------------------


    Psi4 started on: Thursday, 28 December 2023 04:39PM

    Process ID: 86116
    Host:       moses-razer
    PSIDATADIR: /home/kchung25/anaconda3/envs/psi4_19/share/psi4
    Memory:     55.9 GiB
    Threads:    6
    
  ==> Input QCSchema <==

--------------------------------------------------------------------------
{'driver': 'energy',
 'extras': {'psiapi': True, 'wfn_qcvars_only': True},
 'id': None,
 'keywords': {'SCF_TYPE': 'DF', 'function_kwargs': {}},
 'model': {'basis': 'aug-cc-pvtz', 'method': 'mp2'},
 'molecule': {'atom_labels': ['', ''],
              'atomic_numbers': [19, 17],
              'extras': {},
              'fix_com': True,
              'fix_orientation': True,
              'fix_symmetry': 'c1',
              'fragment_charges': [1.0, -1.0],
              'fragment_multiplicities': [1, 1],
              'fragments': [[0], [1]],
              'geometry': [0.0, 0.0, 0.0, 5.225514145816872, 0.0, 0.0],
              'mass_numbers': [39, 35],
              'masses': [38.9637064864, 34.968852682],
              'molecular_charge': 0.0,
              'molecular_multiplicity': 1,
              'name': 'dimer',
              'provenance': {'creator': 'QCElemental',
                             'routine': 'qcelemental.molparse.from_string',
                             'version': '0.27.1'},
              'real': [True, True],
              'schema_name': 'qcschema_molecule',
              'schema_version': 2,
              'symbols': ['K', 'Cl'],
              'validated': True},
 'protocols': {'stdout': True},
 'provenance': {'creator': 'QCElemental', 'routine': 'qcelemental.models.results', 'version': '0.27.1'},
 'schema_name': 'qcschema_input',
 'schema_version': 1}
--------------------------------------------------------------------------

Scratch directory: /scratch/
   => Libint2 <=

    Primary   basis highest AM E, G, H:  5, 4, 3
    Auxiliary basis highest AM E, G, H:  6, 5, 4
    Onebody   basis highest AM E, G, H:  6, 5, 4
    Solid Harmonics ordering:            gaussian

*** tstart() called on moses-razer
*** at Thu Dec 28 16:40:06 2023

   => Loading Basis Set <=

    Name: AUG-CC-PVTZ
    Role: ORBITAL
    Keyword: BASIS
    atoms 1 entry K          line  1152 file /home/kchung25/anaconda3/envs/p415env/share/psi4/basis/aug-cc-pvtz.gbs 
    atoms 2 entry CL         line   988 file /home/kchung25/anaconda3/envs/p415env/share/psi4/basis/aug-cc-pvtz.gbs 


         ---------------------------------------------------------
                                   SCF
               by Justin Turney, Rob Parrish, Andy Simmonett
                          and Daniel G. A. Smith
                              RHF Reference
                        6 Threads,  57220 MiB Core
         ---------------------------------------------------------

  ==> Geometry <==

    Molecular point group: c1
    Full point group: C_inf_v

    Geometry (in Bohr), charge = 0, multiplicity = 1:

       Center              X                  Y                   Z               Mass       
    ------------   -----------------  -----------------  -----------------  -----------------
         K            0.000000000000     0.000000000000     0.000000000000    38.963706486400
         CL           5.225514145817     0.000000000000     0.000000000000    34.968852682000

  Running in c1 symmetry.

  Rotational constants: A = ************  B =      0.06305  C =      0.06305 [cm^-1]
  Rotational constants: A = ************  B =   1890.05958  C =   1890.05958 [MHz]
  Nuclear repulsion =   61.812099438783058

  Charge       = 0
  Multiplicity = 1
  Electrons    = 36
  Nalpha       = 18
  Nbeta        = 18

  ==> Algorithm <==

  SCF Algorithm Type is DF.
  DIIS enabled.
  MOM disabled.
  Fractional occupation disabled.
  Guess Type is SAD.
  Energy threshold   = 1.00e-08
  Density threshold  = 1.00e-08
  Integral threshold = 1.00e-12

  ==> Primary Basis <==

  Basis Set: AUG-CC-PVTZ
    Blend: AUG-CC-PVTZ
    Number of shells: 35
    Number of basis functions: 109
    Number of Cartesian functions: 128
    Spherical Harmonics?: true
    Max angular momentum: 3

   => Loading Basis Set <=

    Name: (AUG-CC-PVTZ AUX)
    Role: JKFIT
    Keyword: DF_BASIS_SCF
    atoms 1 entry K          line  1152 file /home/kchung25/anaconda3/envs/p415env/share/psi4/basis/def2-universal-jkfit.gbs 
    atoms 2 entry CL         line   816 file /home/kchung25/anaconda3/envs/p415env/share/psi4/basis/aug-cc-pvtz-jkfit.gbs 

  ==> Integral Setup <==

  DFHelper Memory: AOs need 0.031 GiB; user supplied 41.910 GiB. 
  Using in-core AOs.

  ==> MemDFJK: Density-Fitted J/K Matrices <==

    J tasked:                   Yes
    K tasked:                   Yes
    wK tasked:                   No
    OpenMP threads:               6
    Memory [MiB]:             42915
    Algorithm:                 Core
    Schwarz Cutoff:           1E-12
    Mask sparsity (%):       0.0000
    Fitting Condition:        1E-10

   => Auxiliary Basis Set <=

  Basis Set: (AUG-CC-PVTZ AUX)
    Blend: AUG-CC-PVTZ-JKFIT + DEF2-UNIVERSAL-JKFIT
    Number of shells: 86
    Number of basis functions: 306
    Number of Cartesian functions: 383
    Spherical Harmonics?: true
    Max angular momentum: 4

  Minimum eigenvalue in the overlap matrix is 4.7902048913E-04.
  Reciprocal condition number of the overlap matrix is 9.5071706249E-05.
    Using symmetric orthogonalization.

  ==> Pre-Iterations <==

  SCF Guess: Superposition of Atomic Densities via on-the-fly atomic UHF (no occupation information).

   -------------------------
    Irrep   Nso     Nmo    
   -------------------------
     A        109     109 
   -------------------------
    Total     109     109
   -------------------------

  ==> Iterations <==

                           Total Energy        Delta E     RMS |[F,P]|

   @DF-RHF iter SAD: -1058.21656088372697   -1.05822e+03   0.00000e+00 
   @DF-RHF iter   1: -1058.71073964638686   -4.94179e-01   2.80702e-03 DIIS/ADIIS
   @DF-RHF iter   2: -1058.76207681762116   -5.13372e-02   1.32448e-03 DIIS/ADIIS
   @DF-RHF iter   3: -1058.76984996944475   -7.77315e-03   7.98807e-05 DIIS
   @DF-RHF iter   4: -1058.76990269305657   -5.27236e-05   1.62114e-05 DIIS
   @DF-RHF iter   5: -1058.76990648791002   -3.79485e-06   4.20279e-06 DIIS
   @DF-RHF iter   6: -1058.76990675656839   -2.68658e-07   1.16925e-06 DIIS
   @DF-RHF iter   7: -1058.76990679856999   -4.20016e-08   2.37060e-07 DIIS
   @DF-RHF iter   8: -1058.76990680030121   -1.73122e-09   3.90087e-08 DIIS
   @DF-RHF iter   9: -1058.76990680034532   -4.41105e-11   9.32334e-09 DIIS
  Energy and wave function converged.


  ==> Post-Iterations <==

    Orbital Energies [Eh]
    ---------------------

    Doubly Occupied:                                                      

       1A   -133.534759     2A   -104.682743     3A    -14.491949  
       4A    -11.521766     5A    -11.521766     6A    -11.521637  
       7A    -10.407834     8A     -7.873958     9A     -7.873790  
      10A     -7.873790    11A     -1.753064    12A     -0.968723  
      13A     -0.962443    14A     -0.962443    15A     -0.908859  
      16A     -0.342597    17A     -0.332415    18A     -0.332415  

    Virtual:                                                              

      19A     -0.015944    20A      0.003564    21A      0.003564  
      22A      0.007101    23A      0.017426    24A      0.017426  
      25A      0.017525    26A      0.021655    27A      0.021655  
      28A      0.023210    29A      0.023210    30A      0.028322  
      31A      0.034285    32A      0.053116    33A      0.053116  
      34A      0.063051    35A      0.063051    36A      0.065588  
      37A      0.078099    38A      0.078099    39A      0.090678  
      40A      0.108033    41A      0.127304    42A      0.127304  
      43A      0.129178    44A      0.129178    45A      0.132184  
      46A      0.136733    47A      0.136733    48A      0.161496  
      49A      0.161496    50A      0.178695    51A      0.195555  
      52A      0.195555    53A      0.222746    54A      0.225764  
      55A      0.225764    56A      0.249638    57A      0.249638  
      58A      0.314818    59A      0.380988    60A      0.389197  
      61A      0.390902    62A      0.390902    63A      0.394763  
      64A      0.394763    65A      0.404773    66A      0.404773  
      67A      0.406083    68A      0.406083    69A      0.428368  
      70A      0.428368    71A      0.490884    72A      0.490884  
      73A      0.491009    74A      0.527307    75A      0.582373  
      76A      0.582373    77A      0.820179    78A      0.828353  
      79A      0.828353    80A      1.051271    81A      1.079401  
      82A      1.079401    83A      1.141548    84A      1.141548  
      85A      1.154095    86A      1.277496    87A      1.297557  
      88A      1.297557    89A      1.333572    90A      1.333572  
      91A      1.348807    92A      1.365704    93A      1.365704  
      94A      2.681324    95A      2.681324    96A      2.720579  
      97A      2.744250    98A      2.744250    99A      2.881618  
     100A      2.881618   101A      3.002055   102A      3.197820  
     103A      3.197820   104A      3.223557   105A      3.223557  
     106A      3.231672   107A      3.242119   108A      3.242119  
     109A      5.619992  

    Final Occupation by Irrep:
              A 
    DOCC [    18 ]
    NA   [    18 ]
    NB   [    18 ]

  @DF-RHF Final Energy: -1058.76990680034532

   => Energetics <=

    Nuclear Repulsion Energy =             61.8120994387830578
    One-Electron Energy =               -1585.4301081818969124
    Two-Electron Energy =                 464.8481019427685510
    Total Energy =                      -1058.7699068003453249

Computation Completed


Properties will be evaluated at   0.000000,   0.000000,   0.000000 [a0]

Properties computed using the SCF density matrix


 Multipole Moments:

 ------------------------------------------------------------------------------------
     Multipole            Electronic (a.u.)      Nuclear  (a.u.)        Total (a.u.)
 ------------------------------------------------------------------------------------

 L = 1.  Multiply by 2.5417464519 to convert [e a0] to [Debye]
 Dipole X            :        -93.2012385           88.8337405           -4.3674980
 Dipole Y            :          0.0000000            0.0000000            0.0000000
 Dipole Z            :          0.0000000            0.0000000            0.0000000
 Magnitude           :                                                    4.3674980

 ------------------------------------------------------------------------------------

*** tstop() called on moses-razer at Thu Dec 28 16:40:14 2023
Module time:
	user time   =      12.99 seconds =       0.22 minutes
	system time =       2.59 seconds =       0.04 minutes
	total time  =          8 seconds =       0.13 minutes
Total time:
	user time   =      48.53 seconds =       0.81 minutes
	system time =       8.09 seconds =       0.13 minutes
	total time  =         29 seconds =       0.48 minutes

*** tstart() called on moses-razer
*** at Thu Dec 28 16:40:14 2023


  //>>>>>>>>>>>>>>>>>>>>>>>>>>>>>>>>>>>//
  //               DFMP2               //
  //<<<<<<<<<<<<<<<<<<<<<<<<<<<<<<<<<<<//

   => Loading Basis Set <=

    Name: (AUG-CC-PVTZ AUX)
    Role: RIFIT
    Keyword: DF_BASIS_MP2
    atoms 1 entry K          line  1282 file /home/kchung25/anaconda3/envs/p415env/share/psi4/basis/def2-qzvpp-ri.gbs 
    atoms 2 entry CL         line   742 file /home/kchung25/anaconda3/envs/p415env/share/psi4/basis/aug-cc-pvtz-ri.gbs 

	 --------------------------------------------------------
	                          DF-MP2                         
	      2nd-Order Density-Fitted Moller-Plesset Theory     
	              RMP2 Wavefunction,   6 Threads             
	                                                         
	        Rob Parrish, Justin Turney, Andy Simmonett,      
	           Ed Hohenstein, and C. David Sherrill          
	 --------------------------------------------------------

   => Auxiliary Basis Set <=

  Basis Set: (AUG-CC-PVTZ AUX)
    Blend: AUG-CC-PVTZ-RI + DEF2-QZVPP-RI
    Number of shells: 86
    Number of basis functions: 346
    Number of Cartesian functions: 453
    Spherical Harmonics?: true
    Max angular momentum: 4

	 --------------------------------------------------------
	                 NBF =   109, NAUX =   346
	 --------------------------------------------------------
	   CLASS    FOCC     OCC    AOCC    AVIR     VIR    FVIR
	   PAIRS       0      18      18      91      91       0
	 --------------------------------------------------------

	-----------------------------------------------------------
	 ==================> DF-MP2 Energies <==================== 
	-----------------------------------------------------------
	 Reference Energy          =   -1058.7699068003453249 [Eh]
	 Singles Energy            =      -0.0000000000000000 [Eh]
	 Same-Spin Energy          =      -0.0920822915839962 [Eh]
	 Opposite-Spin Energy      =      -0.2449388913179570 [Eh]
	 Correlation Energy        =      -0.3370211829019533 [Eh]
	 Total Energy              =   -1059.1069279832472603 [Eh]
	-----------------------------------------------------------
	 ================> DF-SCS-MP2 Energies <================== 
	-----------------------------------------------------------
	 SCS Same-Spin Scale       =       0.3333333333333333 [-]
	 SCS Opposite-Spin Scale   =       1.2000000000000000 [-]
	 SCS Same-Spin Energy      =      -0.0306940971946654 [Eh]
	 SCS Opposite-Spin Energy  =      -0.2939266695815484 [Eh]
	 SCS Correlation Energy    =      -0.3246207667762139 [Eh]
	 SCS Total Energy          =   -1059.0945275671215313 [Eh]
	-----------------------------------------------------------


*** tstop() called on moses-razer at Thu Dec 28 16:40:19 2023
Module time:
	user time   =       6.73 seconds =       0.11 minutes
	system time =       0.79 seconds =       0.01 minutes
	total time  =          5 seconds =       0.08 minutes
Total time:
	user time   =      55.26 seconds =       0.92 minutes
	system time =       8.88 seconds =       0.15 minutes
	total time  =         34 seconds =       0.57 minutes

    Psi4 stopped on: Thursday, 28 December 2023 04:40PM
    Psi4 wall time for execution: 0:00:12.47


  //>>>>>>>>>>>>>>>>>>>>>>>>>>>>>>>>>>>//
  //          ManyBody Results         //
  //<<<<<<<<<<<<<<<<<<<<<<<<<<<<<<<<<<<//


   ==> N-Body: Counterpoise Corrected (CP) energies <==

        n-Body     Total Energy            Interaction Energy                          N-body Contribution to Interaction Energy
                   [Eh]                    [Eh]                  [kcal/mol]            [Eh]                  [kcal/mol]
             1  N/A                         0.000000000000        0.000000000000        0.000000000000        0.000000000000
  FULL/RTN   2  N/A                        -0.182812305914     -114.716453884446       -0.182812305914     -114.716453884446


    Psi4 stopped on: Thursday, 28 December 2023 04:40PM
    Psi4 wall time for execution: 0:00:35.80

*** Psi4 exiting successfully. Buy a developer a beer!
