
    -----------------------------------------------------------------------
          Psi4: An Open-Source Ab Initio Electronic Structure Package
                               Psi4 1.9 release

                         Git: Rev {} zzzzzzz 


    D. G. A. Smith, L. A. Burns, A. C. Simmonett, R. M. Parrish,
    M. C. Schieber, R. Galvelis, P. Kraus, H. Kruse, R. Di Remigio,
    A. Alenaizan, A. M. James, S. Lehtola, J. P. Misiewicz, M. Scheurer,
    R. A. Shaw, J. B. Schriber, Y. Xie, Z. L. Glick, D. A. Sirianni,
    J. S. O'Brien, J. M. Waldrop, A. Kumar, E. G. Hohenstein,
    B. P. Pritchard, B. R. Brooks, H. F. Schaefer III, A. Yu. Sokolov,
    K. Patkowski, A. E. DePrince III, U. Bozkaya, R. A. King,
    F. A. Evangelista, J. M. Turney, T. D. Crawford, C. D. Sherrill,
    J. Chem. Phys. 152(18) 184108 (2020). https://doi.org/10.1063/5.0006002

                            Additional Code Authors
    E. T. Seidl, C. L. Janssen, E. F. Valeev, M. L. Leininger,
    J. F. Gonthier, R. M. Richard, H. R. McAlexander, M. Saitow, X. Wang,
    P. Verma, M. H. Lechner, A. Jiang, S. Behnle, A. G. Heide,
    M. F. Herbst, and D. L. Poole

             Previous Authors, Complete List of Code Contributors,
                       and Citations for Specific Modules
    https://github.com/psi4/psi4/blob/master/codemeta.json
    https://github.com/psi4/psi4/graphs/contributors
    http://psicode.org/psi4manual/master/introduction.html#citing-psifour

    -----------------------------------------------------------------------


    Psi4 started on: Thursday, 28 December 2023 04:40PM

    Process ID: 86323
    Host:       moses-razer
    PSIDATADIR: /home/kchung25/anaconda3/envs/psi4_19/share/psi4
    Memory:     500.0 MiB
    Threads:    6
    
  ==> Input File <==

--------------------------------------------------------------------------
MEMORY 60 GB

molecule dimer {
1 1
K     0.000000     0.000000     0.000000
--
-1 1
Cl     3.160255     0.000000     0.000000

units ang
no_reorient
no_com
symmetry c1
}

set {
basis        aug-cc-pVTZ
scf_type     df
}

energy("mp2", bsse_type="cp")
--------------------------------------------------------------------------

  Memory set to  55.879 GiB by Python driver.

Scratch directory: /scratch/

  //>>>>>>>>>>>>>>>>>>>>>>>>>>>>>>>>>>>>>//
  // ManyBody Setup: N-Body Levels [1, 2]//
  //<<<<<<<<<<<<<<<<<<<<<<<<<<<<<<<<<<<<<//

        Number of 1-body computations:     2
        Number of 2-body computations:     1

    -----------------------------------------------------------------------
          Psi4: An Open-Source Ab Initio Electronic Structure Package
                               Psi4 1.9 release

                         Git: Rev {} zzzzzzz 


    D. G. A. Smith, L. A. Burns, A. C. Simmonett, R. M. Parrish,
    M. C. Schieber, R. Galvelis, P. Kraus, H. Kruse, R. Di Remigio,
    A. Alenaizan, A. M. James, S. Lehtola, J. P. Misiewicz, M. Scheurer,
    R. A. Shaw, J. B. Schriber, Y. Xie, Z. L. Glick, D. A. Sirianni,
    J. S. O'Brien, J. M. Waldrop, A. Kumar, E. G. Hohenstein,
    B. P. Pritchard, B. R. Brooks, H. F. Schaefer III, A. Yu. Sokolov,
    K. Patkowski, A. E. DePrince III, U. Bozkaya, R. A. King,
    F. A. Evangelista, J. M. Turney, T. D. Crawford, C. D. Sherrill,
    J. Chem. Phys. 152(18) 184108 (2020). https://doi.org/10.1063/5.0006002

                            Additional Code Authors
    E. T. Seidl, C. L. Janssen, E. F. Valeev, M. L. Leininger,
    J. F. Gonthier, R. M. Richard, H. R. McAlexander, M. Saitow, X. Wang,
    P. Verma, M. H. Lechner, A. Jiang, S. Behnle, A. G. Heide,
    M. F. Herbst, and D. L. Poole

             Previous Authors, Complete List of Code Contributors,
                       and Citations for Specific Modules
    https://github.com/psi4/psi4/blob/master/codemeta.json
    https://github.com/psi4/psi4/graphs/contributors
    http://psicode.org/psi4manual/master/introduction.html#citing-psifour

    -----------------------------------------------------------------------


    Psi4 started on: Thursday, 28 December 2023 04:40PM

    Process ID: 86323
    Host:       moses-razer
    PSIDATADIR: /home/kchung25/anaconda3/envs/psi4_19/share/psi4
    Memory:     55.9 GiB
    Threads:    6
    
  ==> Input QCSchema <==

--------------------------------------------------------------------------
{'driver': 'energy',
 'extras': {'psiapi': True, 'wfn_qcvars_only': True},
 'id': None,
 'keywords': {'SCF_TYPE': 'DF', 'function_kwargs': {}},
 'model': {'basis': 'aug-cc-pvtz', 'method': 'mp2'},
 'molecule': {'atom_labels': ['', ''],
              'atomic_numbers': [19, 17],
              'extras': {},
              'fix_com': True,
              'fix_orientation': True,
              'fix_symmetry': 'c1',
              'fragment_charges': [0.0, -1.0],
              'fragment_multiplicities': [1, 1],
              'fragments': [[0], [1]],
              'geometry': [0.0, 0.0, 0.0, 5.972016436608729, 0.0, 0.0],
              'mass_numbers': [39, 35],
              'masses': [38.9637064864, 34.968852682],
              'molecular_charge': -1.0,
              'molecular_multiplicity': 1,
              'name': 'dimer',
              'provenance': {'creator': 'QCElemental',
                             'routine': 'qcelemental.molparse.from_string',
                             'version': '0.27.1'},
              'real': [False, True],
              'schema_name': 'qcschema_molecule',
              'schema_version': 2,
              'symbols': ['K', 'Cl'],
              'validated': True},
 'protocols': {'stdout': True},
 'provenance': {'creator': 'QCElemental', 'routine': 'qcelemental.models.results', 'version': '0.27.1'},
 'schema_name': 'qcschema_input',
 'schema_version': 1}
--------------------------------------------------------------------------

Scratch directory: /scratch/
   => Libint2 <=

    Primary   basis highest AM E, G, H:  5, 4, 3
    Auxiliary basis highest AM E, G, H:  6, 5, 4
    Onebody   basis highest AM E, G, H:  6, 5, 4
    Solid Harmonics ordering:            gaussian

*** tstart() called on moses-razer
*** at Thu Dec 28 16:40:58 2023

   => Loading Basis Set <=

    Name: AUG-CC-PVTZ
    Role: ORBITAL
    Keyword: BASIS
    atoms 1 entry K          line  1152 file /home/kchung25/anaconda3/envs/p415env/share/psi4/basis/aug-cc-pvtz.gbs 
    atoms 2 entry CL         line   988 file /home/kchung25/anaconda3/envs/p415env/share/psi4/basis/aug-cc-pvtz.gbs 


         ---------------------------------------------------------
                                   SCF
               by Justin Turney, Rob Parrish, Andy Simmonett
                          and Daniel G. A. Smith
                              RHF Reference
                        6 Threads,  57220 MiB Core
         ---------------------------------------------------------

  ==> Geometry <==

    Molecular point group: c1
    Full point group: C_inf_v

    Geometry (in Bohr), charge = -1, multiplicity = 1:

       Center              X                  Y                   Z               Mass       
    ------------   -----------------  -----------------  -----------------  -----------------
      Gh(K)           0.000000000000     0.000000000000     0.000000000000    38.963706486400
         CL           5.972016436609     0.000000000000     0.000000000000    34.968852682000

  Running in c1 symmetry.

  Rotational constants: A = ************  B =      0.04827  C =      0.04827 [cm^-1]
  Rotational constants: A = ************  B =   1447.07674  C =   1447.07674 [MHz]
  Nuclear repulsion =    0.000000000000000

  Charge       = -1
  Multiplicity = 1
  Electrons    = 18
  Nalpha       = 9
  Nbeta        = 9

  ==> Algorithm <==

  SCF Algorithm Type is DF.
  DIIS enabled.
  MOM disabled.
  Fractional occupation disabled.
  Guess Type is SAD.
  Energy threshold   = 1.00e-08
  Density threshold  = 1.00e-08
  Integral threshold = 1.00e-12

  ==> Primary Basis <==

  Basis Set: AUG-CC-PVTZ
    Blend: AUG-CC-PVTZ
    Number of shells: 35
    Number of basis functions: 109
    Number of Cartesian functions: 128
    Spherical Harmonics?: true
    Max angular momentum: 3

   => Loading Basis Set <=

    Name: (AUG-CC-PVTZ AUX)
    Role: JKFIT
    Keyword: DF_BASIS_SCF
    atoms 1 entry K          line  1152 file /home/kchung25/anaconda3/envs/p415env/share/psi4/basis/def2-universal-jkfit.gbs 
    atoms 2 entry CL         line   816 file /home/kchung25/anaconda3/envs/p415env/share/psi4/basis/aug-cc-pvtz-jkfit.gbs 

  ==> Integral Setup <==

  DFHelper Memory: AOs need 0.031 GiB; user supplied 41.910 GiB. 
  Using in-core AOs.

  ==> MemDFJK: Density-Fitted J/K Matrices <==

    J tasked:                   Yes
    K tasked:                   Yes
    wK tasked:                   No
    OpenMP threads:               6
    Memory [MiB]:             42915
    Algorithm:                 Core
    Schwarz Cutoff:           1E-12
    Mask sparsity (%):       0.0000
    Fitting Condition:        1E-10

   => Auxiliary Basis Set <=

  Basis Set: (AUG-CC-PVTZ AUX)
    Blend: AUG-CC-PVTZ-JKFIT + DEF2-UNIVERSAL-JKFIT
    Number of shells: 86
    Number of basis functions: 306
    Number of Cartesian functions: 383
    Spherical Harmonics?: true
    Max angular momentum: 4

  Minimum eigenvalue in the overlap matrix is 4.9168599937E-04.
  Reciprocal condition number of the overlap matrix is 9.9225136205E-05.
    Using symmetric orthogonalization.

  ==> Pre-Iterations <==

  SCF Guess: Superposition of Atomic Densities via on-the-fly atomic UHF (no occupation information).

   -------------------------
    Irrep   Nso     Nmo    
   -------------------------
     A        109     109 
   -------------------------
    Total     109     109
   -------------------------

  ==> Iterations <==

                           Total Energy        Delta E     RMS |[F,P]|

   @DF-RHF iter SAD:  -459.11248996393221   -4.59112e+02   0.00000e+00 
   @DF-RHF iter   1:  -459.51385234627691   -4.01362e-01   2.73598e-03 DIIS/ADIIS
   @DF-RHF iter   2:  -459.56473226469643   -5.08799e-02   1.39885e-03 DIIS/ADIIS
   @DF-RHF iter   3:  -459.57344037624352   -8.70811e-03   9.03305e-05 DIIS
   @DF-RHF iter   4:  -459.57349330154938   -5.29253e-05   1.89290e-05 DIIS
   @DF-RHF iter   5:  -459.57349696021532   -3.65867e-06   1.94372e-06 DIIS
   @DF-RHF iter   6:  -459.57349704098505   -8.07697e-08   1.54261e-07 DIIS
   @DF-RHF iter   7:  -459.57349704176067   -7.75628e-10   2.01556e-08 DIIS
   @DF-RHF iter   8:  -459.57349704178171   -2.10321e-11   2.55673e-09 DIIS
  Energy and wave function converged.


  ==> Post-Iterations <==

    Orbital Energies [Eh]
    ---------------------

    Doubly Occupied:                                                      

       1A   -104.506259     2A    -10.229822     3A     -7.695867  
       4A     -7.695867     5A     -7.695846     6A     -0.733509  
       7A     -0.150338     8A     -0.150333     9A     -0.150333  

    Virtual:                                                              

      10A      0.057920    11A      0.059760    12A      0.059760  
      13A      0.074032    14A      0.074032    15A      0.077125  
      16A      0.079350    17A      0.079350    18A      0.086496  
      19A      0.112429    20A      0.112429    21A      0.113501  
      22A      0.142129    23A      0.150649    24A      0.150649  
      25A      0.156955    26A      0.156955    27A      0.162965  
      28A      0.211089    29A      0.211089    30A      0.218440  
      31A      0.245554    32A      0.246002    33A      0.246002  
      34A      0.250214    35A      0.250214    36A      0.251802  
      37A      0.255512    38A      0.255512    39A      0.305290  
      40A      0.336300    41A      0.336300    42A      0.356436  
      43A      0.356436    44A      0.381003    45A      0.381564  
      46A      0.381564    47A      0.408666    48A      0.408666  
      49A      0.456956    50A      0.531130    51A      0.590891  
      52A      0.590891    53A      0.592180    54A      0.592180  
      55A      0.617648    56A      0.617648    57A      0.643264  
      58A      0.643318    59A      0.643318    60A      0.682480  
      61A      0.729148    62A      0.729148    63A      0.774743  
      64A      0.971331    65A      0.971331    66A      1.116070  
      67A      1.245297    68A      1.245297    69A      1.272612  
      70A      1.305324    71A      1.305324    72A      1.408990  
      73A      1.459761    74A      1.469941    75A      1.469941  
      76A      1.499301    77A      1.499301    78A      1.508274  
      79A      1.508274    80A      1.629915    81A      1.998248  
      82A      1.998248    83A      2.058522    84A      2.058522  
      85A      2.093957    86A      2.142761    87A      2.142761  
      88A      2.504678    89A      2.850336    90A      2.850336  
      91A      2.908873    92A      2.910395    93A      2.910395  
      94A      3.039958    95A      3.039958    96A      3.263286  
      97A      3.374744    98A      3.374744    99A      3.393202  
     100A      3.393202   101A      3.431937   102A      3.431937  
     103A      3.471645   104A      5.752475   105A      9.842416  
     106A     30.387349   107A     30.387349   108A     30.504349  
     109A    197.047455  

    Final Occupation by Irrep:
              A 
    DOCC [     9 ]
    NA   [     9 ]
    NB   [     9 ]

  @DF-RHF Final Energy:  -459.57349704178171

   => Energetics <=

    Nuclear Repulsion Energy =              0.0000000000000000
    One-Electron Energy =                -641.1306445196644290
    Two-Electron Energy =                 181.5571474778827223
    Total Energy =                       -459.5734970417817067

Computation Completed


Properties will be evaluated at   0.000000,   0.000000,   0.000000 [a0]

Properties computed using the SCF density matrix


 Multipole Moments:

 ------------------------------------------------------------------------------------
     Multipole            Electronic (a.u.)      Nuclear  (a.u.)        Total (a.u.)
 ------------------------------------------------------------------------------------

 L = 1.  Multiply by 2.5417464519 to convert [e a0] to [Debye]
 Dipole X            :       -107.4968815          101.5242794           -5.9726021
 Dipole Y            :         -0.0000000            0.0000000           -0.0000000
 Dipole Z            :          0.0000000            0.0000000            0.0000000
 Magnitude           :                                                    5.9726021

 ------------------------------------------------------------------------------------

*** tstop() called on moses-razer at Thu Dec 28 16:41:03 2023
Module time:
	user time   =       9.71 seconds =       0.16 minutes
	system time =       1.44 seconds =       0.02 minutes
	total time  =          5 seconds =       0.08 minutes
Total time:
	user time   =       9.71 seconds =       0.16 minutes
	system time =       1.44 seconds =       0.02 minutes
	total time  =          5 seconds =       0.08 minutes

*** tstart() called on moses-razer
*** at Thu Dec 28 16:41:03 2023


  //>>>>>>>>>>>>>>>>>>>>>>>>>>>>>>>>>>>//
  //               DFMP2               //
  //<<<<<<<<<<<<<<<<<<<<<<<<<<<<<<<<<<<//

   => Loading Basis Set <=

    Name: (AUG-CC-PVTZ AUX)
    Role: RIFIT
    Keyword: DF_BASIS_MP2
    atoms 1 entry K          line  1282 file /home/kchung25/anaconda3/envs/p415env/share/psi4/basis/def2-qzvpp-ri.gbs 
    atoms 2 entry CL         line   742 file /home/kchung25/anaconda3/envs/p415env/share/psi4/basis/aug-cc-pvtz-ri.gbs 

	 --------------------------------------------------------
	                          DF-MP2                         
	      2nd-Order Density-Fitted Moller-Plesset Theory     
	              RMP2 Wavefunction,   6 Threads             
	                                                         
	        Rob Parrish, Justin Turney, Andy Simmonett,      
	           Ed Hohenstein, and C. David Sherrill          
	 --------------------------------------------------------

   => Auxiliary Basis Set <=

  Basis Set: (AUG-CC-PVTZ AUX)
    Blend: AUG-CC-PVTZ-RI + DEF2-QZVPP-RI
    Number of shells: 86
    Number of basis functions: 346
    Number of Cartesian functions: 453
    Spherical Harmonics?: true
    Max angular momentum: 4

	 --------------------------------------------------------
	                 NBF =   109, NAUX =   346
	 --------------------------------------------------------
	   CLASS    FOCC     OCC    AOCC    AVIR     VIR    FVIR
	   PAIRS       0       9       9     100     100       0
	 --------------------------------------------------------

	-----------------------------------------------------------
	 ==================> DF-MP2 Energies <==================== 
	-----------------------------------------------------------
	 Reference Energy          =    -459.5734970417817067 [Eh]
	 Singles Energy            =      -0.0000000000000000 [Eh]
	 Same-Spin Energy          =      -0.0624789834875952 [Eh]
	 Opposite-Spin Energy      =      -0.1792987453151491 [Eh]
	 Correlation Energy        =      -0.2417777288027443 [Eh]
	 Total Energy              =    -459.8152747705844376 [Eh]
	-----------------------------------------------------------
	 ================> DF-SCS-MP2 Energies <================== 
	-----------------------------------------------------------
	 SCS Same-Spin Scale       =       0.3333333333333333 [-]
	 SCS Opposite-Spin Scale   =       1.2000000000000000 [-]
	 SCS Same-Spin Energy      =      -0.0208263278291984 [Eh]
	 SCS Opposite-Spin Energy  =      -0.2151584943781789 [Eh]
	 SCS Correlation Energy    =      -0.2359848222073773 [Eh]
	 SCS Total Energy          =    -459.8094818639891059 [Eh]
	-----------------------------------------------------------


*** tstop() called on moses-razer at Thu Dec 28 16:41:09 2023
Module time:
	user time   =       7.41 seconds =       0.12 minutes
	system time =       0.90 seconds =       0.02 minutes
	total time  =          6 seconds =       0.10 minutes
Total time:
	user time   =      17.13 seconds =       0.29 minutes
	system time =       2.34 seconds =       0.04 minutes
	total time  =         11 seconds =       0.18 minutes

    Psi4 stopped on: Thursday, 28 December 2023 04:41PM
    Psi4 wall time for execution: 0:00:10.65


    -----------------------------------------------------------------------
          Psi4: An Open-Source Ab Initio Electronic Structure Package
                               Psi4 1.9 release

                         Git: Rev {} zzzzzzz 


    D. G. A. Smith, L. A. Burns, A. C. Simmonett, R. M. Parrish,
    M. C. Schieber, R. Galvelis, P. Kraus, H. Kruse, R. Di Remigio,
    A. Alenaizan, A. M. James, S. Lehtola, J. P. Misiewicz, M. Scheurer,
    R. A. Shaw, J. B. Schriber, Y. Xie, Z. L. Glick, D. A. Sirianni,
    J. S. O'Brien, J. M. Waldrop, A. Kumar, E. G. Hohenstein,
    B. P. Pritchard, B. R. Brooks, H. F. Schaefer III, A. Yu. Sokolov,
    K. Patkowski, A. E. DePrince III, U. Bozkaya, R. A. King,
    F. A. Evangelista, J. M. Turney, T. D. Crawford, C. D. Sherrill,
    J. Chem. Phys. 152(18) 184108 (2020). https://doi.org/10.1063/5.0006002

                            Additional Code Authors
    E. T. Seidl, C. L. Janssen, E. F. Valeev, M. L. Leininger,
    J. F. Gonthier, R. M. Richard, H. R. McAlexander, M. Saitow, X. Wang,
    P. Verma, M. H. Lechner, A. Jiang, S. Behnle, A. G. Heide,
    M. F. Herbst, and D. L. Poole

             Previous Authors, Complete List of Code Contributors,
                       and Citations for Specific Modules
    https://github.com/psi4/psi4/blob/master/codemeta.json
    https://github.com/psi4/psi4/graphs/contributors
    http://psicode.org/psi4manual/master/introduction.html#citing-psifour

    -----------------------------------------------------------------------


    Psi4 started on: Thursday, 28 December 2023 04:40PM

    Process ID: 86323
    Host:       moses-razer
    PSIDATADIR: /home/kchung25/anaconda3/envs/psi4_19/share/psi4
    Memory:     55.9 GiB
    Threads:    6
    
  ==> Input QCSchema <==

--------------------------------------------------------------------------
{'driver': 'energy',
 'extras': {'psiapi': True, 'wfn_qcvars_only': True},
 'id': None,
 'keywords': {'SCF_TYPE': 'DF', 'function_kwargs': {}},
 'model': {'basis': 'aug-cc-pvtz', 'method': 'mp2'},
 'molecule': {'atom_labels': ['', ''],
              'atomic_numbers': [19, 17],
              'extras': {},
              'fix_com': True,
              'fix_orientation': True,
              'fix_symmetry': 'c1',
              'fragment_charges': [1.0, 0.0],
              'fragment_multiplicities': [1, 1],
              'fragments': [[0], [1]],
              'geometry': [0.0, 0.0, 0.0, 5.972016436608729, 0.0, 0.0],
              'mass_numbers': [39, 35],
              'masses': [38.9637064864, 34.968852682],
              'molecular_charge': 1.0,
              'molecular_multiplicity': 1,
              'name': 'dimer',
              'provenance': {'creator': 'QCElemental',
                             'routine': 'qcelemental.molparse.from_string',
                             'version': '0.27.1'},
              'real': [True, False],
              'schema_name': 'qcschema_molecule',
              'schema_version': 2,
              'symbols': ['K', 'Cl'],
              'validated': True},
 'protocols': {'stdout': True},
 'provenance': {'creator': 'QCElemental', 'routine': 'qcelemental.models.results', 'version': '0.27.1'},
 'schema_name': 'qcschema_input',
 'schema_version': 1}
--------------------------------------------------------------------------

Scratch directory: /scratch/
   => Libint2 <=

    Primary   basis highest AM E, G, H:  5, 4, 3
    Auxiliary basis highest AM E, G, H:  6, 5, 4
    Onebody   basis highest AM E, G, H:  6, 5, 4
    Solid Harmonics ordering:            gaussian

*** tstart() called on moses-razer
*** at Thu Dec 28 16:41:09 2023

   => Loading Basis Set <=

    Name: AUG-CC-PVTZ
    Role: ORBITAL
    Keyword: BASIS
    atoms 1 entry K          line  1152 file /home/kchung25/anaconda3/envs/p415env/share/psi4/basis/aug-cc-pvtz.gbs 
    atoms 2 entry CL         line   988 file /home/kchung25/anaconda3/envs/p415env/share/psi4/basis/aug-cc-pvtz.gbs 


         ---------------------------------------------------------
                                   SCF
               by Justin Turney, Rob Parrish, Andy Simmonett
                          and Daniel G. A. Smith
                              RHF Reference
                        6 Threads,  57220 MiB Core
         ---------------------------------------------------------

  ==> Geometry <==

    Molecular point group: c1
    Full point group: C_inf_v

    Geometry (in Bohr), charge = 1, multiplicity = 1:

       Center              X                  Y                   Z               Mass       
    ------------   -----------------  -----------------  -----------------  -----------------
         K            0.000000000000     0.000000000000     0.000000000000    38.963706486400
      Gh(CL)          5.972016436609     0.000000000000     0.000000000000    34.968852682000

  Running in c1 symmetry.

  Rotational constants: A = ************  B =      0.04827  C =      0.04827 [cm^-1]
  Rotational constants: A = ************  B =   1447.07674  C =   1447.07674 [MHz]
  Nuclear repulsion =    0.000000000000000

  Charge       = 1
  Multiplicity = 1
  Electrons    = 18
  Nalpha       = 9
  Nbeta        = 9

  ==> Algorithm <==

  SCF Algorithm Type is DF.
  DIIS enabled.
  MOM disabled.
  Fractional occupation disabled.
  Guess Type is SAD.
  Energy threshold   = 1.00e-08
  Density threshold  = 1.00e-08
  Integral threshold = 1.00e-12

  ==> Primary Basis <==

  Basis Set: AUG-CC-PVTZ
    Blend: AUG-CC-PVTZ
    Number of shells: 35
    Number of basis functions: 109
    Number of Cartesian functions: 128
    Spherical Harmonics?: true
    Max angular momentum: 3

   => Loading Basis Set <=

    Name: (AUG-CC-PVTZ AUX)
    Role: JKFIT
    Keyword: DF_BASIS_SCF
    atoms 1 entry K          line  1152 file /home/kchung25/anaconda3/envs/p415env/share/psi4/basis/def2-universal-jkfit.gbs 
    atoms 2 entry CL         line   816 file /home/kchung25/anaconda3/envs/p415env/share/psi4/basis/aug-cc-pvtz-jkfit.gbs 

  ==> Integral Setup <==

  DFHelper Memory: AOs need 0.031 GiB; user supplied 41.910 GiB. 
  Using in-core AOs.

  ==> MemDFJK: Density-Fitted J/K Matrices <==

    J tasked:                   Yes
    K tasked:                   Yes
    wK tasked:                   No
    OpenMP threads:               6
    Memory [MiB]:             42915
    Algorithm:                 Core
    Schwarz Cutoff:           1E-12
    Mask sparsity (%):       0.0000
    Fitting Condition:        1E-10

   => Auxiliary Basis Set <=

  Basis Set: (AUG-CC-PVTZ AUX)
    Blend: AUG-CC-PVTZ-JKFIT + DEF2-UNIVERSAL-JKFIT
    Number of shells: 86
    Number of basis functions: 306
    Number of Cartesian functions: 383
    Spherical Harmonics?: true
    Max angular momentum: 4

  Minimum eigenvalue in the overlap matrix is 4.9168599937E-04.
  Reciprocal condition number of the overlap matrix is 9.9225136205E-05.
    Using symmetric orthogonalization.

  ==> Pre-Iterations <==

  SCF Guess: Superposition of Atomic Densities via on-the-fly atomic UHF (no occupation information).

   -------------------------
    Irrep   Nso     Nmo    
   -------------------------
     A        109     109 
   -------------------------
    Total     109     109
   -------------------------

  ==> Iterations <==

                           Total Energy        Delta E     RMS |[F,P]|

   @DF-RHF iter SAD:  -599.05182854953546   -5.99052e+02   0.00000e+00 
   @DF-RHF iter   1:  -599.01748897135178    3.43396e-02   4.59550e-05 DIIS
   @DF-RHF iter   2:  -599.01750661542087   -1.76441e-05   6.76417e-06 DIIS
   @DF-RHF iter   3:  -599.01750704084520   -4.25424e-07   2.94852e-07 DIIS
   @DF-RHF iter   4:  -599.01750704162748   -7.82279e-10   4.68201e-08 DIIS
   @DF-RHF iter   5:  -599.01750704165011   -2.26237e-11   1.43831e-08 DIIS
   @DF-RHF iter   6:  -599.01750704165249   -2.38742e-12   2.47298e-09 DIIS
  Energy and wave function converged.


  ==> Post-Iterations <==

    Orbital Energies [Eh]
    ---------------------

    Doubly Occupied:                                                      

       1A   -133.753829     2A    -14.709263     3A    -11.739326  
       4A    -11.739323     5A    -11.739323     6A     -1.964396  
       7A     -1.170983     8A     -1.170955     9A     -1.170955  

    Virtual:                                                              

      10A     -0.146974    11A     -0.095559    12A     -0.095554  
      13A     -0.095554    14A     -0.060513    15A     -0.057841  
      16A     -0.057776    17A     -0.057776    18A     -0.057719  
      19A     -0.057719    20A     -0.045538    21A     -0.045536  
      22A     -0.045536    23A     -0.031260    24A     -0.031218  
      25A     -0.031218    26A     -0.031207    27A     -0.031207  
      28A     -0.016732    29A     -0.016215    30A     -0.016215  
      31A     -0.012441    32A      0.007205    33A      0.013290  
      34A      0.013290    35A      0.015012    36A      0.016839  
      37A      0.016839    38A      0.016944    39A      0.016944  
      40A      0.017551    41A      0.017551    42A      0.019794  
      43A      0.019794    44A      0.061549    45A      0.073525  
      46A      0.073525    47A      0.096475    48A      0.103681  
      49A      0.103681    50A      0.127712    51A      0.221923  
      52A      0.221923    53A      0.223268    54A      0.223268  
      55A      0.226803    56A      0.233718    57A      0.233718  
      58A      0.236655    59A      0.236655    60A      0.238936  
      61A      0.238936    62A      0.265971    63A      0.334669  
      64A      0.334669    65A      0.344051    66A      0.344051  
      67A      0.359803    68A      0.404008    69A      0.452976  
      70A      0.452976    71A      0.536885    72A      0.736969  
      73A      1.139315    74A      1.141597    75A      1.141597  
      76A      1.143889    77A      1.143889    78A      1.159241  
      79A      1.159241    80A      1.210745    81A      1.210745  
      82A      1.318839    83A      1.343154    84A      1.343154  
      85A      1.362856    86A      1.436444    87A      1.436444  
      88A      1.471463    89A      3.763191    90A      3.763191  
      91A      3.767477    92A      3.777179    93A      3.777179  
      94A      3.778966    95A      3.778966    96A      3.831754  
      97A      3.831754    98A      3.945283    99A      3.988211  
     100A      4.515637   101A      4.515637   102A      4.573129  
     103A      4.573129   104A      4.577274   105A     13.839393  
     106A     27.596876   107A     27.596876   108A     27.780087  
     109A    160.600604  

    Final Occupation by Irrep:
              A 
    DOCC [     9 ]
    NA   [     9 ]
    NB   [     9 ]

  @DF-RHF Final Energy:  -599.01750704165249

   => Energetics <=

    Nuclear Repulsion Energy =              0.0000000000000000
    One-Electron Energy =                -819.7183063193025419
    Two-Electron Energy =                 220.7007992776499918
    Total Energy =                       -599.0175070416526069

Computation Completed


Properties will be evaluated at   0.000000,   0.000000,   0.000000 [a0]

Properties computed using the SCF density matrix


 Multipole Moments:

 ------------------------------------------------------------------------------------
     Multipole            Electronic (a.u.)      Nuclear  (a.u.)        Total (a.u.)
 ------------------------------------------------------------------------------------

 L = 1.  Multiply by 2.5417464519 to convert [e a0] to [Debye]
 Dipole X            :          0.0003193            0.0000000            0.0003193
 Dipole Y            :         -0.0000000            0.0000000           -0.0000000
 Dipole Z            :          0.0000000            0.0000000            0.0000000
 Magnitude           :                                                    0.0003193

 ------------------------------------------------------------------------------------

*** tstop() called on moses-razer at Thu Dec 28 16:41:16 2023
Module time:
	user time   =      12.71 seconds =       0.21 minutes
	system time =       2.54 seconds =       0.04 minutes
	total time  =          7 seconds =       0.12 minutes
Total time:
	user time   =      30.21 seconds =       0.50 minutes
	system time =       4.88 seconds =       0.08 minutes
	total time  =         18 seconds =       0.30 minutes

*** tstart() called on moses-razer
*** at Thu Dec 28 16:41:16 2023


  //>>>>>>>>>>>>>>>>>>>>>>>>>>>>>>>>>>>//
  //               DFMP2               //
  //<<<<<<<<<<<<<<<<<<<<<<<<<<<<<<<<<<<//

   => Loading Basis Set <=

    Name: (AUG-CC-PVTZ AUX)
    Role: RIFIT
    Keyword: DF_BASIS_MP2
    atoms 1 entry K          line  1282 file /home/kchung25/anaconda3/envs/p415env/share/psi4/basis/def2-qzvpp-ri.gbs 
    atoms 2 entry CL         line   742 file /home/kchung25/anaconda3/envs/p415env/share/psi4/basis/aug-cc-pvtz-ri.gbs 

	 --------------------------------------------------------
	                          DF-MP2                         
	      2nd-Order Density-Fitted Moller-Plesset Theory     
	              RMP2 Wavefunction,   6 Threads             
	                                                         
	        Rob Parrish, Justin Turney, Andy Simmonett,      
	           Ed Hohenstein, and C. David Sherrill          
	 --------------------------------------------------------

   => Auxiliary Basis Set <=

  Basis Set: (AUG-CC-PVTZ AUX)
    Blend: AUG-CC-PVTZ-RI + DEF2-QZVPP-RI
    Number of shells: 86
    Number of basis functions: 346
    Number of Cartesian functions: 453
    Spherical Harmonics?: true
    Max angular momentum: 4

	 --------------------------------------------------------
	                 NBF =   109, NAUX =   346
	 --------------------------------------------------------
	   CLASS    FOCC     OCC    AOCC    AVIR     VIR    FVIR
	   PAIRS       0       9       9     100     100       0
	 --------------------------------------------------------

	-----------------------------------------------------------
	 ==================> DF-MP2 Energies <==================== 
	-----------------------------------------------------------
	 Reference Energy          =    -599.0175070416524932 [Eh]
	 Singles Energy            =      -0.0000000000000000 [Eh]
	 Same-Spin Energy          =      -0.0264908853913029 [Eh]
	 Opposite-Spin Energy      =      -0.0609297361442964 [Eh]
	 Correlation Energy        =      -0.0874206215355992 [Eh]
	 Total Energy              =    -599.1049276631880502 [Eh]
	-----------------------------------------------------------
	 ================> DF-SCS-MP2 Energies <================== 
	-----------------------------------------------------------
	 SCS Same-Spin Scale       =       0.3333333333333333 [-]
	 SCS Opposite-Spin Scale   =       1.2000000000000000 [-]
	 SCS Same-Spin Energy      =      -0.0088302951304343 [Eh]
	 SCS Opposite-Spin Energy  =      -0.0731156833731556 [Eh]
	 SCS Correlation Energy    =      -0.0819459785035899 [Eh]
	 SCS Total Energy          =    -599.0994530201560337 [Eh]
	-----------------------------------------------------------


*** tstop() called on moses-razer at Thu Dec 28 16:41:21 2023
Module time:
	user time   =       6.30 seconds =       0.10 minutes
	system time =       0.73 seconds =       0.01 minutes
	total time  =          5 seconds =       0.08 minutes
Total time:
	user time   =      36.52 seconds =       0.61 minutes
	system time =       5.61 seconds =       0.09 minutes
	total time  =         23 seconds =       0.38 minutes

    Psi4 stopped on: Thursday, 28 December 2023 04:41PM
    Psi4 wall time for execution: 0:00:12.36


    -----------------------------------------------------------------------
          Psi4: An Open-Source Ab Initio Electronic Structure Package
                               Psi4 1.9 release

                         Git: Rev {} zzzzzzz 


    D. G. A. Smith, L. A. Burns, A. C. Simmonett, R. M. Parrish,
    M. C. Schieber, R. Galvelis, P. Kraus, H. Kruse, R. Di Remigio,
    A. Alenaizan, A. M. James, S. Lehtola, J. P. Misiewicz, M. Scheurer,
    R. A. Shaw, J. B. Schriber, Y. Xie, Z. L. Glick, D. A. Sirianni,
    J. S. O'Brien, J. M. Waldrop, A. Kumar, E. G. Hohenstein,
    B. P. Pritchard, B. R. Brooks, H. F. Schaefer III, A. Yu. Sokolov,
    K. Patkowski, A. E. DePrince III, U. Bozkaya, R. A. King,
    F. A. Evangelista, J. M. Turney, T. D. Crawford, C. D. Sherrill,
    J. Chem. Phys. 152(18) 184108 (2020). https://doi.org/10.1063/5.0006002

                            Additional Code Authors
    E. T. Seidl, C. L. Janssen, E. F. Valeev, M. L. Leininger,
    J. F. Gonthier, R. M. Richard, H. R. McAlexander, M. Saitow, X. Wang,
    P. Verma, M. H. Lechner, A. Jiang, S. Behnle, A. G. Heide,
    M. F. Herbst, and D. L. Poole

             Previous Authors, Complete List of Code Contributors,
                       and Citations for Specific Modules
    https://github.com/psi4/psi4/blob/master/codemeta.json
    https://github.com/psi4/psi4/graphs/contributors
    http://psicode.org/psi4manual/master/introduction.html#citing-psifour

    -----------------------------------------------------------------------


    Psi4 started on: Thursday, 28 December 2023 04:40PM

    Process ID: 86323
    Host:       moses-razer
    PSIDATADIR: /home/kchung25/anaconda3/envs/psi4_19/share/psi4
    Memory:     55.9 GiB
    Threads:    6
    
  ==> Input QCSchema <==

--------------------------------------------------------------------------
{'driver': 'energy',
 'extras': {'psiapi': True, 'wfn_qcvars_only': True},
 'id': None,
 'keywords': {'SCF_TYPE': 'DF', 'function_kwargs': {}},
 'model': {'basis': 'aug-cc-pvtz', 'method': 'mp2'},
 'molecule': {'atom_labels': ['', ''],
              'atomic_numbers': [19, 17],
              'extras': {},
              'fix_com': True,
              'fix_orientation': True,
              'fix_symmetry': 'c1',
              'fragment_charges': [1.0, -1.0],
              'fragment_multiplicities': [1, 1],
              'fragments': [[0], [1]],
              'geometry': [0.0, 0.0, 0.0, 5.972016436608729, 0.0, 0.0],
              'mass_numbers': [39, 35],
              'masses': [38.9637064864, 34.968852682],
              'molecular_charge': 0.0,
              'molecular_multiplicity': 1,
              'name': 'dimer',
              'provenance': {'creator': 'QCElemental',
                             'routine': 'qcelemental.molparse.from_string',
                             'version': '0.27.1'},
              'real': [True, True],
              'schema_name': 'qcschema_molecule',
              'schema_version': 2,
              'symbols': ['K', 'Cl'],
              'validated': True},
 'protocols': {'stdout': True},
 'provenance': {'creator': 'QCElemental', 'routine': 'qcelemental.models.results', 'version': '0.27.1'},
 'schema_name': 'qcschema_input',
 'schema_version': 1}
--------------------------------------------------------------------------

Scratch directory: /scratch/
   => Libint2 <=

    Primary   basis highest AM E, G, H:  5, 4, 3
    Auxiliary basis highest AM E, G, H:  6, 5, 4
    Onebody   basis highest AM E, G, H:  6, 5, 4
    Solid Harmonics ordering:            gaussian

*** tstart() called on moses-razer
*** at Thu Dec 28 16:41:21 2023

   => Loading Basis Set <=

    Name: AUG-CC-PVTZ
    Role: ORBITAL
    Keyword: BASIS
    atoms 1 entry K          line  1152 file /home/kchung25/anaconda3/envs/p415env/share/psi4/basis/aug-cc-pvtz.gbs 
    atoms 2 entry CL         line   988 file /home/kchung25/anaconda3/envs/p415env/share/psi4/basis/aug-cc-pvtz.gbs 


         ---------------------------------------------------------
                                   SCF
               by Justin Turney, Rob Parrish, Andy Simmonett
                          and Daniel G. A. Smith
                              RHF Reference
                        6 Threads,  57220 MiB Core
         ---------------------------------------------------------

  ==> Geometry <==

    Molecular point group: c1
    Full point group: C_inf_v

    Geometry (in Bohr), charge = 0, multiplicity = 1:

       Center              X                  Y                   Z               Mass       
    ------------   -----------------  -----------------  -----------------  -----------------
         K            0.000000000000     0.000000000000     0.000000000000    38.963706486400
         CL           5.972016436609     0.000000000000     0.000000000000    34.968852682000

  Running in c1 symmetry.

  Rotational constants: A = ************  B =      0.04827  C =      0.04827 [cm^-1]
  Rotational constants: A = ************  B =   1447.07674  C =   1447.07674 [MHz]
  Nuclear repulsion =   54.085584564033603

  Charge       = 0
  Multiplicity = 1
  Electrons    = 36
  Nalpha       = 18
  Nbeta        = 18

  ==> Algorithm <==

  SCF Algorithm Type is DF.
  DIIS enabled.
  MOM disabled.
  Fractional occupation disabled.
  Guess Type is SAD.
  Energy threshold   = 1.00e-08
  Density threshold  = 1.00e-08
  Integral threshold = 1.00e-12

  ==> Primary Basis <==

  Basis Set: AUG-CC-PVTZ
    Blend: AUG-CC-PVTZ
    Number of shells: 35
    Number of basis functions: 109
    Number of Cartesian functions: 128
    Spherical Harmonics?: true
    Max angular momentum: 3

   => Loading Basis Set <=

    Name: (AUG-CC-PVTZ AUX)
    Role: JKFIT
    Keyword: DF_BASIS_SCF
    atoms 1 entry K          line  1152 file /home/kchung25/anaconda3/envs/p415env/share/psi4/basis/def2-universal-jkfit.gbs 
    atoms 2 entry CL         line   816 file /home/kchung25/anaconda3/envs/p415env/share/psi4/basis/aug-cc-pvtz-jkfit.gbs 

  ==> Integral Setup <==

  DFHelper Memory: AOs need 0.031 GiB; user supplied 41.910 GiB. 
  Using in-core AOs.

  ==> MemDFJK: Density-Fitted J/K Matrices <==

    J tasked:                   Yes
    K tasked:                   Yes
    wK tasked:                   No
    OpenMP threads:               6
    Memory [MiB]:             42915
    Algorithm:                 Core
    Schwarz Cutoff:           1E-12
    Mask sparsity (%):       0.0000
    Fitting Condition:        1E-10

   => Auxiliary Basis Set <=

  Basis Set: (AUG-CC-PVTZ AUX)
    Blend: AUG-CC-PVTZ-JKFIT + DEF2-UNIVERSAL-JKFIT
    Number of shells: 86
    Number of basis functions: 306
    Number of Cartesian functions: 383
    Spherical Harmonics?: true
    Max angular momentum: 4

  Minimum eigenvalue in the overlap matrix is 4.9168599937E-04.
  Reciprocal condition number of the overlap matrix is 9.9225136205E-05.
    Using symmetric orthogonalization.

  ==> Pre-Iterations <==

  SCF Guess: Superposition of Atomic Densities via on-the-fly atomic UHF (no occupation information).

   -------------------------
    Irrep   Nso     Nmo    
   -------------------------
     A        109     109 
   -------------------------
    Total     109     109
   -------------------------

  ==> Iterations <==

                           Total Energy        Delta E     RMS |[F,P]|

   @DF-RHF iter SAD: -1058.18995115306257   -1.05819e+03   0.00000e+00 
   @DF-RHF iter   1: -1058.70171047641702   -5.11759e-01   2.74293e-03 DIIS/ADIIS
   @DF-RHF iter   2: -1058.75233824126894   -5.06278e-02   1.34775e-03 DIIS/ADIIS
   @DF-RHF iter   3: -1058.76043104659561   -8.09281e-03   8.92648e-05 DIIS
   @DF-RHF iter   4: -1058.76050096193626   -6.99153e-05   2.13903e-05 DIIS
   @DF-RHF iter   5: -1058.76050813186248   -7.16993e-06   5.74830e-06 DIIS
   @DF-RHF iter   6: -1058.76050878298861   -6.51126e-07   1.74297e-06 DIIS
   @DF-RHF iter   7: -1058.76050889146109   -1.08472e-07   3.57208e-07 DIIS
   @DF-RHF iter   8: -1058.76050889580597   -4.34488e-09   7.12687e-08 DIIS
   @DF-RHF iter   9: -1058.76050889595399   -1.48020e-10   1.66609e-08 DIIS
   @DF-RHF iter  10: -1058.76050889596354   -9.54969e-12   2.77699e-09 DIIS
  Energy and wave function converged.


  ==> Post-Iterations <==

    Orbital Energies [Eh]
    ---------------------

    Doubly Occupied:                                                      

       1A   -133.566080     2A   -104.671455     3A    -14.522073  
       4A    -11.552074     5A    -11.552074     6A    -11.551900  
       7A    -10.395362     8A     -7.861476     9A     -7.861330  
      10A     -7.861330    11A     -1.779314    12A     -0.988120  
      13A     -0.988120    14A     -0.983789    15A     -0.900181  
      16A     -0.324125    17A     -0.315402    18A     -0.315402  

    Virtual:                                                              

      19A     -0.022954    20A      0.001324    21A      0.001324  
      22A      0.004600    23A      0.015980    24A      0.016797  
      25A      0.016797    26A      0.018827    27A      0.018827  
      28A      0.023462    29A      0.023462    30A      0.028568  
      31A      0.032102    32A      0.049772    33A      0.049772  
      34A      0.061252    35A      0.061252    36A      0.063382  
      37A      0.072462    38A      0.072462    39A      0.092880  
      40A      0.100637    41A      0.125034    42A      0.125034  
      43A      0.128239    44A      0.128239    45A      0.132611  
      46A      0.133955    47A      0.133955    48A      0.151537  
      49A      0.151537    50A      0.178280    51A      0.181684  
      52A      0.181684    53A      0.223147    54A      0.225714  
      55A      0.225714    56A      0.237699    57A      0.237699  
      58A      0.287634    59A      0.370407    60A      0.379893  
      61A      0.379893    62A      0.385177    63A      0.385177  
      64A      0.390434    65A      0.390434    66A      0.403668  
      67A      0.403668    68A      0.406761    69A      0.408354  
      70A      0.408354    71A      0.473222    72A      0.484369  
      73A      0.484369    74A      0.563868    75A      0.574245  
      76A      0.574245    77A      0.816059    78A      0.816059  
      79A      0.851590    80A      1.003321    81A      1.086084  
      82A      1.086084    83A      1.141051    84A      1.141051  
      85A      1.161577    86A      1.263175    87A      1.311512  
      88A      1.311512    89A      1.331889    90A      1.331889  
      91A      1.336626    92A      1.367698    93A      1.367698  
      94A      2.688032    95A      2.688032    96A      2.735678  
      97A      2.745327    98A      2.745327    99A      2.875011  
     100A      2.875011   101A      3.045465   102A      3.212148  
     103A      3.212148   104A      3.226570   105A      3.226570  
     106A      3.236972   107A      3.250310   108A      3.250310  
     109A      5.582232  

    Final Occupation by Irrep:
              A 
    DOCC [    18 ]
    NA   [    18 ]
    NB   [    18 ]

  @DF-RHF Final Energy: -1058.76050889596354

   => Energetics <=

    Nuclear Repulsion Energy =             54.0855845640336028
    One-Electron Energy =               -1569.7129656178633468
    Two-Electron Energy =                 456.8668721578663963
    Total Energy =                      -1058.7605088959635395

Computation Completed


Properties will be evaluated at   0.000000,   0.000000,   0.000000 [a0]

Properties computed using the SCF density matrix


 Multipole Moments:

 ------------------------------------------------------------------------------------
     Multipole            Electronic (a.u.)      Nuclear  (a.u.)        Total (a.u.)
 ------------------------------------------------------------------------------------

 L = 1.  Multiply by 2.5417464519 to convert [e a0] to [Debye]
 Dipole X            :       -106.6888347          101.5242794           -5.1645552
 Dipole Y            :          0.0000000            0.0000000            0.0000000
 Dipole Z            :          0.0000000            0.0000000            0.0000000
 Magnitude           :                                                    5.1645552

 ------------------------------------------------------------------------------------

*** tstop() called on moses-razer at Thu Dec 28 16:41:28 2023
Module time:
	user time   =      12.93 seconds =       0.22 minutes
	system time =       2.63 seconds =       0.04 minutes
	total time  =          7 seconds =       0.12 minutes
Total time:
	user time   =      49.68 seconds =       0.83 minutes
	system time =       8.25 seconds =       0.14 minutes
	total time  =         30 seconds =       0.50 minutes

*** tstart() called on moses-razer
*** at Thu Dec 28 16:41:28 2023


  //>>>>>>>>>>>>>>>>>>>>>>>>>>>>>>>>>>>//
  //               DFMP2               //
  //<<<<<<<<<<<<<<<<<<<<<<<<<<<<<<<<<<<//

   => Loading Basis Set <=

    Name: (AUG-CC-PVTZ AUX)
    Role: RIFIT
    Keyword: DF_BASIS_MP2
    atoms 1 entry K          line  1282 file /home/kchung25/anaconda3/envs/p415env/share/psi4/basis/def2-qzvpp-ri.gbs 
    atoms 2 entry CL         line   742 file /home/kchung25/anaconda3/envs/p415env/share/psi4/basis/aug-cc-pvtz-ri.gbs 

	 --------------------------------------------------------
	                          DF-MP2                         
	      2nd-Order Density-Fitted Moller-Plesset Theory     
	              RMP2 Wavefunction,   6 Threads             
	                                                         
	        Rob Parrish, Justin Turney, Andy Simmonett,      
	           Ed Hohenstein, and C. David Sherrill          
	 --------------------------------------------------------

   => Auxiliary Basis Set <=

  Basis Set: (AUG-CC-PVTZ AUX)
    Blend: AUG-CC-PVTZ-RI + DEF2-QZVPP-RI
    Number of shells: 86
    Number of basis functions: 346
    Number of Cartesian functions: 453
    Spherical Harmonics?: true
    Max angular momentum: 4

	 --------------------------------------------------------
	                 NBF =   109, NAUX =   346
	 --------------------------------------------------------
	   CLASS    FOCC     OCC    AOCC    AVIR     VIR    FVIR
	   PAIRS       0      18      18      91      91       0
	 --------------------------------------------------------

	-----------------------------------------------------------
	 ==================> DF-MP2 Energies <==================== 
	-----------------------------------------------------------
	 Reference Energy          =   -1058.7605088959635395 [Eh]
	 Singles Energy            =      -0.0000000000000000 [Eh]
	 Same-Spin Energy          =      -0.0901691829752958 [Eh]
	 Opposite-Spin Energy      =      -0.2415222974116282 [Eh]
	 Correlation Energy        =      -0.3316914803869240 [Eh]
	 Total Energy              =   -1059.0922003763505472 [Eh]
	-----------------------------------------------------------
	 ================> DF-SCS-MP2 Energies <================== 
	-----------------------------------------------------------
	 SCS Same-Spin Scale       =       0.3333333333333333 [-]
	 SCS Opposite-Spin Scale   =       1.2000000000000000 [-]
	 SCS Same-Spin Energy      =      -0.0300563943250986 [Eh]
	 SCS Opposite-Spin Energy  =      -0.2898267568939539 [Eh]
	 SCS Correlation Energy    =      -0.3198831512190525 [Eh]
	 SCS Total Energy          =   -1059.0803920471826132 [Eh]
	-----------------------------------------------------------


*** tstop() called on moses-razer at Thu Dec 28 16:41:33 2023
Module time:
	user time   =       6.52 seconds =       0.11 minutes
	system time =       0.78 seconds =       0.01 minutes
	total time  =          5 seconds =       0.08 minutes
Total time:
	user time   =      56.20 seconds =       0.94 minutes
	system time =       9.03 seconds =       0.15 minutes
	total time  =         35 seconds =       0.58 minutes

    Psi4 stopped on: Thursday, 28 December 2023 04:41PM
    Psi4 wall time for execution: 0:00:12.16


  //>>>>>>>>>>>>>>>>>>>>>>>>>>>>>>>>>>>//
  //          ManyBody Results         //
  //<<<<<<<<<<<<<<<<<<<<<<<<<<<<<<<<<<<//


   ==> N-Body: Counterpoise Corrected (CP) energies <==

        n-Body     Total Energy            Interaction Energy                          N-body Contribution to Interaction Energy
                   [Eh]                    [Eh]                  [kcal/mol]            [Eh]                  [kcal/mol]
             1  N/A                         0.000000000000        0.000000000000        0.000000000000        0.000000000000
  FULL/RTN   2  N/A                        -0.171997942578     -107.930338438048       -0.171997942578     -107.930338438048


    Psi4 stopped on: Thursday, 28 December 2023 04:41PM
    Psi4 wall time for execution: 0:00:36.79

*** Psi4 exiting successfully. Buy a developer a beer!
