
    -----------------------------------------------------------------------
          Psi4: An Open-Source Ab Initio Electronic Structure Package
                               Psi4 1.9 release

                         Git: Rev {} zzzzzzz 


    D. G. A. Smith, L. A. Burns, A. C. Simmonett, R. M. Parrish,
    M. C. Schieber, R. Galvelis, P. Kraus, H. Kruse, R. Di Remigio,
    A. Alenaizan, A. M. James, S. Lehtola, J. P. Misiewicz, M. Scheurer,
    R. A. Shaw, J. B. Schriber, Y. Xie, Z. L. Glick, D. A. Sirianni,
    J. S. O'Brien, J. M. Waldrop, A. Kumar, E. G. Hohenstein,
    B. P. Pritchard, B. R. Brooks, H. F. Schaefer III, A. Yu. Sokolov,
    K. Patkowski, A. E. DePrince III, U. Bozkaya, R. A. King,
    F. A. Evangelista, J. M. Turney, T. D. Crawford, C. D. Sherrill,
    J. Chem. Phys. 152(18) 184108 (2020). https://doi.org/10.1063/5.0006002

                            Additional Code Authors
    E. T. Seidl, C. L. Janssen, E. F. Valeev, M. L. Leininger,
    J. F. Gonthier, R. M. Richard, H. R. McAlexander, M. Saitow, X. Wang,
    P. Verma, M. H. Lechner, A. Jiang, S. Behnle, A. G. Heide,
    M. F. Herbst, and D. L. Poole

             Previous Authors, Complete List of Code Contributors,
                       and Citations for Specific Modules
    https://github.com/psi4/psi4/blob/master/codemeta.json
    https://github.com/psi4/psi4/graphs/contributors
    http://psicode.org/psi4manual/master/introduction.html#citing-psifour

    -----------------------------------------------------------------------


    Psi4 started on: Thursday, 28 December 2023 04:43PM

    Process ID: 86846
    Host:       moses-razer
    PSIDATADIR: /home/kchung25/anaconda3/envs/psi4_19/share/psi4
    Memory:     500.0 MiB
    Threads:    6
    
  ==> Input File <==

--------------------------------------------------------------------------
MEMORY 60 GB

molecule dimer {
1 1
K     0.000000     0.000000     0.000000
--
-1 1
Cl     5.267092     0.000000     0.000000

units ang
no_reorient
no_com
symmetry c1
}

set {
basis        aug-cc-pVTZ
scf_type     df
}

energy("mp2", bsse_type="cp")
--------------------------------------------------------------------------

  Memory set to  55.879 GiB by Python driver.

Scratch directory: /scratch/

  //>>>>>>>>>>>>>>>>>>>>>>>>>>>>>>>>>>>>>//
  // ManyBody Setup: N-Body Levels [1, 2]//
  //<<<<<<<<<<<<<<<<<<<<<<<<<<<<<<<<<<<<<//

        Number of 1-body computations:     2
        Number of 2-body computations:     1

    -----------------------------------------------------------------------
          Psi4: An Open-Source Ab Initio Electronic Structure Package
                               Psi4 1.9 release

                         Git: Rev {} zzzzzzz 


    D. G. A. Smith, L. A. Burns, A. C. Simmonett, R. M. Parrish,
    M. C. Schieber, R. Galvelis, P. Kraus, H. Kruse, R. Di Remigio,
    A. Alenaizan, A. M. James, S. Lehtola, J. P. Misiewicz, M. Scheurer,
    R. A. Shaw, J. B. Schriber, Y. Xie, Z. L. Glick, D. A. Sirianni,
    J. S. O'Brien, J. M. Waldrop, A. Kumar, E. G. Hohenstein,
    B. P. Pritchard, B. R. Brooks, H. F. Schaefer III, A. Yu. Sokolov,
    K. Patkowski, A. E. DePrince III, U. Bozkaya, R. A. King,
    F. A. Evangelista, J. M. Turney, T. D. Crawford, C. D. Sherrill,
    J. Chem. Phys. 152(18) 184108 (2020). https://doi.org/10.1063/5.0006002

                            Additional Code Authors
    E. T. Seidl, C. L. Janssen, E. F. Valeev, M. L. Leininger,
    J. F. Gonthier, R. M. Richard, H. R. McAlexander, M. Saitow, X. Wang,
    P. Verma, M. H. Lechner, A. Jiang, S. Behnle, A. G. Heide,
    M. F. Herbst, and D. L. Poole

             Previous Authors, Complete List of Code Contributors,
                       and Citations for Specific Modules
    https://github.com/psi4/psi4/blob/master/codemeta.json
    https://github.com/psi4/psi4/graphs/contributors
    http://psicode.org/psi4manual/master/introduction.html#citing-psifour

    -----------------------------------------------------------------------


    Psi4 started on: Thursday, 28 December 2023 04:43PM

    Process ID: 86846
    Host:       moses-razer
    PSIDATADIR: /home/kchung25/anaconda3/envs/psi4_19/share/psi4
    Memory:     55.9 GiB
    Threads:    6
    
  ==> Input QCSchema <==

--------------------------------------------------------------------------
{'driver': 'energy',
 'extras': {'psiapi': True, 'wfn_qcvars_only': True},
 'id': None,
 'keywords': {'SCF_TYPE': 'DF', 'function_kwargs': {}},
 'model': {'basis': 'aug-cc-pvtz', 'method': 'mp2'},
 'molecule': {'atom_labels': ['', ''],
              'atomic_numbers': [19, 17],
              'extras': {},
              'fix_com': True,
              'fix_orientation': True,
              'fix_symmetry': 'c1',
              'fragment_charges': [0.0, -1.0],
              'fragment_multiplicities': [1, 1],
              'fragments': [[0], [1]],
              'geometry': [0.0, 0.0, 0.0, 9.953361357589923, 0.0, 0.0],
              'mass_numbers': [39, 35],
              'masses': [38.9637064864, 34.968852682],
              'molecular_charge': -1.0,
              'molecular_multiplicity': 1,
              'name': 'dimer',
              'provenance': {'creator': 'QCElemental',
                             'routine': 'qcelemental.molparse.from_string',
                             'version': '0.27.1'},
              'real': [False, True],
              'schema_name': 'qcschema_molecule',
              'schema_version': 2,
              'symbols': ['K', 'Cl'],
              'validated': True},
 'protocols': {'stdout': True},
 'provenance': {'creator': 'QCElemental', 'routine': 'qcelemental.models.results', 'version': '0.27.1'},
 'schema_name': 'qcschema_input',
 'schema_version': 1}
--------------------------------------------------------------------------

Scratch directory: /scratch/
   => Libint2 <=

    Primary   basis highest AM E, G, H:  5, 4, 3
    Auxiliary basis highest AM E, G, H:  6, 5, 4
    Onebody   basis highest AM E, G, H:  6, 5, 4
    Solid Harmonics ordering:            gaussian

*** tstart() called on moses-razer
*** at Thu Dec 28 16:43:23 2023

   => Loading Basis Set <=

    Name: AUG-CC-PVTZ
    Role: ORBITAL
    Keyword: BASIS
    atoms 1 entry K          line  1152 file /home/kchung25/anaconda3/envs/p415env/share/psi4/basis/aug-cc-pvtz.gbs 
    atoms 2 entry CL         line   988 file /home/kchung25/anaconda3/envs/p415env/share/psi4/basis/aug-cc-pvtz.gbs 


         ---------------------------------------------------------
                                   SCF
               by Justin Turney, Rob Parrish, Andy Simmonett
                          and Daniel G. A. Smith
                              RHF Reference
                        6 Threads,  57220 MiB Core
         ---------------------------------------------------------

  ==> Geometry <==

    Molecular point group: c1
    Full point group: C_inf_v

    Geometry (in Bohr), charge = -1, multiplicity = 1:

       Center              X                  Y                   Z               Mass       
    ------------   -----------------  -----------------  -----------------  -----------------
      Gh(K)           0.000000000000     0.000000000000     0.000000000000    38.963706486400
         CL           9.953361357590     0.000000000000     0.000000000000    34.968852682000

  Running in c1 symmetry.

  Rotational constants: A = ************  B =      0.01738  C =      0.01738 [cm^-1]
  Rotational constants: A = ************  B =    520.94756  C =    520.94756 [MHz]
  Nuclear repulsion =    0.000000000000000

  Charge       = -1
  Multiplicity = 1
  Electrons    = 18
  Nalpha       = 9
  Nbeta        = 9

  ==> Algorithm <==

  SCF Algorithm Type is DF.
  DIIS enabled.
  MOM disabled.
  Fractional occupation disabled.
  Guess Type is SAD.
  Energy threshold   = 1.00e-08
  Density threshold  = 1.00e-08
  Integral threshold = 1.00e-12

  ==> Primary Basis <==

  Basis Set: AUG-CC-PVTZ
    Blend: AUG-CC-PVTZ
    Number of shells: 35
    Number of basis functions: 109
    Number of Cartesian functions: 128
    Spherical Harmonics?: true
    Max angular momentum: 3

   => Loading Basis Set <=

    Name: (AUG-CC-PVTZ AUX)
    Role: JKFIT
    Keyword: DF_BASIS_SCF
    atoms 1 entry K          line  1152 file /home/kchung25/anaconda3/envs/p415env/share/psi4/basis/def2-universal-jkfit.gbs 
    atoms 2 entry CL         line   816 file /home/kchung25/anaconda3/envs/p415env/share/psi4/basis/aug-cc-pvtz-jkfit.gbs 

  ==> Integral Setup <==

  DFHelper Memory: AOs need 0.031 GiB; user supplied 41.910 GiB. 
  Using in-core AOs.

  ==> MemDFJK: Density-Fitted J/K Matrices <==

    J tasked:                   Yes
    K tasked:                   Yes
    wK tasked:                   No
    OpenMP threads:               6
    Memory [MiB]:             42915
    Algorithm:                 Core
    Schwarz Cutoff:           1E-12
    Mask sparsity (%):       0.0000
    Fitting Condition:        1E-10

   => Auxiliary Basis Set <=

  Basis Set: (AUG-CC-PVTZ AUX)
    Blend: AUG-CC-PVTZ-JKFIT + DEF2-UNIVERSAL-JKFIT
    Number of shells: 86
    Number of basis functions: 306
    Number of Cartesian functions: 383
    Spherical Harmonics?: true
    Max angular momentum: 4

  Minimum eigenvalue in the overlap matrix is 5.2553509055E-04.
  Reciprocal condition number of the overlap matrix is 1.2206720601E-04.
    Using symmetric orthogonalization.

  ==> Pre-Iterations <==

  SCF Guess: Superposition of Atomic Densities via on-the-fly atomic UHF (no occupation information).

   -------------------------
    Irrep   Nso     Nmo    
   -------------------------
     A        109     109 
   -------------------------
    Total     109     109
   -------------------------

  ==> Iterations <==

                           Total Energy        Delta E     RMS |[F,P]|

   @DF-RHF iter SAD:  -459.11248994909130   -4.59112e+02   0.00000e+00 
   @DF-RHF iter   1:  -459.51388471335076   -4.01395e-01   2.73515e-03 ADIIS/DIIS
   @DF-RHF iter   2:  -459.56472569710826   -5.08410e-02   1.39706e-03 ADIIS/DIIS
   @DF-RHF iter   3:  -459.57342882878112   -8.70313e-03   8.96120e-05 DIIS
   @DF-RHF iter   4:  -459.57348160757289   -5.27788e-05   1.88740e-05 DIIS
   @DF-RHF iter   5:  -459.57348533097752   -3.72340e-06   1.96573e-06 DIIS
   @DF-RHF iter   6:  -459.57348540889734   -7.79198e-08   1.25098e-07 DIIS
   @DF-RHF iter   7:  -459.57348540934993   -4.52587e-10   1.82342e-08 DIIS
   @DF-RHF iter   8:  -459.57348540936709   -1.71667e-11   2.63034e-09 DIIS
  Energy and wave function converged.


  ==> Post-Iterations <==

    Orbital Energies [Eh]
    ---------------------

    Doubly Occupied:                                                      

       1A   -104.506037     2A    -10.229765     3A     -7.695800  
       4A     -7.695800     5A     -7.695798     6A     -0.733516  
       7A     -0.150341     8A     -0.150340     9A     -0.150340  

    Virtual:                                                              

      10A      0.053155    11A      0.055045    12A      0.055045  
      13A      0.070723    14A      0.070723    15A      0.070956  
      16A      0.081714    17A      0.081714    18A      0.088425  
      19A      0.100571    20A      0.100571    21A      0.108290  
      22A      0.121261    23A      0.136107    24A      0.136107  
      25A      0.148424    26A      0.148424    27A      0.163613  
      28A      0.183828    29A      0.183828    30A      0.198132  
      31A      0.206659    32A      0.224190    33A      0.224190  
      34A      0.236385    35A      0.236385    36A      0.238689  
      37A      0.253187    38A      0.253187    39A      0.313904  
      40A      0.313904    41A      0.319279    42A      0.319279  
      43A      0.321431    44A      0.332603    45A      0.332603  
      46A      0.344334    47A      0.352644    48A      0.352644  
      49A      0.368817    50A      0.463963    51A      0.549064  
      52A      0.549064    53A      0.550446    54A      0.555349  
      55A      0.555349    56A      0.565559    57A      0.565559  
      58A      0.600457    59A      0.600457    60A      0.622042  
      61A      0.622042    62A      0.675307    63A      0.696356  
      64A      0.913849    65A      0.913849    66A      0.927118  
      67A      1.224759    68A      1.224759    69A      1.240904  
      70A      1.240904    71A      1.246682    72A      1.338762  
      73A      1.468157    74A      1.468157    75A      1.468950  
      76A      1.468950    77A      1.470714    78A      1.470714  
      79A      1.475826    80A      1.526997    81A      1.924753  
      82A      1.924753    83A      1.940873    84A      1.998251  
      85A      1.998251    86A      2.006843    87A      2.006843  
      88A      2.102953    89A      2.831383    90A      2.831383  
      91A      2.846126    92A      2.846126    93A      2.873681  
      94A      2.999283    95A      2.999283    96A      3.011358  
      97A      3.373582    98A      3.373582    99A      3.374154  
     100A      3.374154   101A      3.375946   102A      3.375946  
     103A      3.379923   104A      5.610359   105A      9.691833  
     106A     30.306087   107A     30.306087   108A     30.332318  
     109A    196.866395  

    Final Occupation by Irrep:
              A 
    DOCC [     9 ]
    NA   [     9 ]
    NB   [     9 ]

  @DF-RHF Final Energy:  -459.57348540936709

   => Energetics <=

    Nuclear Repulsion Energy =              0.0000000000000000
    One-Electron Energy =                -641.1314911532175529
    Two-Electron Energy =                 181.5580057438504582
    Total Energy =                       -459.5734854093670947

Computation Completed


Properties will be evaluated at   0.000000,   0.000000,   0.000000 [a0]

Properties computed using the SCF density matrix


 Multipole Moments:

 ------------------------------------------------------------------------------------
     Multipole            Electronic (a.u.)      Nuclear  (a.u.)        Total (a.u.)
 ------------------------------------------------------------------------------------

 L = 1.  Multiply by 2.5417464519 to convert [e a0] to [Debye]
 Dipole X            :       -179.1608263          169.2071431           -9.9536832
 Dipole Y            :          0.0000000            0.0000000            0.0000000
 Dipole Z            :         -0.0000000            0.0000000           -0.0000000
 Magnitude           :                                                    9.9536832

 ------------------------------------------------------------------------------------

*** tstop() called on moses-razer at Thu Dec 28 16:43:28 2023
Module time:
	user time   =       9.72 seconds =       0.16 minutes
	system time =       1.53 seconds =       0.03 minutes
	total time  =          5 seconds =       0.08 minutes
Total time:
	user time   =       9.72 seconds =       0.16 minutes
	system time =       1.53 seconds =       0.03 minutes
	total time  =          5 seconds =       0.08 minutes

*** tstart() called on moses-razer
*** at Thu Dec 28 16:43:28 2023


  //>>>>>>>>>>>>>>>>>>>>>>>>>>>>>>>>>>>//
  //               DFMP2               //
  //<<<<<<<<<<<<<<<<<<<<<<<<<<<<<<<<<<<//

   => Loading Basis Set <=

    Name: (AUG-CC-PVTZ AUX)
    Role: RIFIT
    Keyword: DF_BASIS_MP2
    atoms 1 entry K          line  1282 file /home/kchung25/anaconda3/envs/p415env/share/psi4/basis/def2-qzvpp-ri.gbs 
    atoms 2 entry CL         line   742 file /home/kchung25/anaconda3/envs/p415env/share/psi4/basis/aug-cc-pvtz-ri.gbs 

	 --------------------------------------------------------
	                          DF-MP2                         
	      2nd-Order Density-Fitted Moller-Plesset Theory     
	              RMP2 Wavefunction,   6 Threads             
	                                                         
	        Rob Parrish, Justin Turney, Andy Simmonett,      
	           Ed Hohenstein, and C. David Sherrill          
	 --------------------------------------------------------

   => Auxiliary Basis Set <=

  Basis Set: (AUG-CC-PVTZ AUX)
    Blend: AUG-CC-PVTZ-RI + DEF2-QZVPP-RI
    Number of shells: 86
    Number of basis functions: 346
    Number of Cartesian functions: 453
    Spherical Harmonics?: true
    Max angular momentum: 4

	 --------------------------------------------------------
	                 NBF =   109, NAUX =   346
	 --------------------------------------------------------
	   CLASS    FOCC     OCC    AOCC    AVIR     VIR    FVIR
	   PAIRS       0       9       9     100     100       0
	 --------------------------------------------------------

	-----------------------------------------------------------
	 ==================> DF-MP2 Energies <==================== 
	-----------------------------------------------------------
	 Reference Energy          =    -459.5734854093670947 [Eh]
	 Singles Energy            =      -0.0000000000000000 [Eh]
	 Same-Spin Energy          =      -0.0623199394481365 [Eh]
	 Opposite-Spin Energy      =      -0.1788181674967713 [Eh]
	 Correlation Energy        =      -0.2411381069449078 [Eh]
	 Total Energy              =    -459.8146235163119968 [Eh]
	-----------------------------------------------------------
	 ================> DF-SCS-MP2 Energies <================== 
	-----------------------------------------------------------
	 SCS Same-Spin Scale       =       0.3333333333333333 [-]
	 SCS Opposite-Spin Scale   =       1.2000000000000000 [-]
	 SCS Same-Spin Energy      =      -0.0207733131493788 [Eh]
	 SCS Opposite-Spin Energy  =      -0.2145818009961255 [Eh]
	 SCS Correlation Energy    =      -0.2353551141455044 [Eh]
	 SCS Total Energy          =    -459.8088405235125720 [Eh]
	-----------------------------------------------------------


*** tstop() called on moses-razer at Thu Dec 28 16:43:34 2023
Module time:
	user time   =       6.67 seconds =       0.11 minutes
	system time =       0.83 seconds =       0.01 minutes
	total time  =          6 seconds =       0.10 minutes
Total time:
	user time   =      16.39 seconds =       0.27 minutes
	system time =       2.36 seconds =       0.04 minutes
	total time  =         11 seconds =       0.18 minutes

    Psi4 stopped on: Thursday, 28 December 2023 04:43PM
    Psi4 wall time for execution: 0:00:10.37


    -----------------------------------------------------------------------
          Psi4: An Open-Source Ab Initio Electronic Structure Package
                               Psi4 1.9 release

                         Git: Rev {} zzzzzzz 


    D. G. A. Smith, L. A. Burns, A. C. Simmonett, R. M. Parrish,
    M. C. Schieber, R. Galvelis, P. Kraus, H. Kruse, R. Di Remigio,
    A. Alenaizan, A. M. James, S. Lehtola, J. P. Misiewicz, M. Scheurer,
    R. A. Shaw, J. B. Schriber, Y. Xie, Z. L. Glick, D. A. Sirianni,
    J. S. O'Brien, J. M. Waldrop, A. Kumar, E. G. Hohenstein,
    B. P. Pritchard, B. R. Brooks, H. F. Schaefer III, A. Yu. Sokolov,
    K. Patkowski, A. E. DePrince III, U. Bozkaya, R. A. King,
    F. A. Evangelista, J. M. Turney, T. D. Crawford, C. D. Sherrill,
    J. Chem. Phys. 152(18) 184108 (2020). https://doi.org/10.1063/5.0006002

                            Additional Code Authors
    E. T. Seidl, C. L. Janssen, E. F. Valeev, M. L. Leininger,
    J. F. Gonthier, R. M. Richard, H. R. McAlexander, M. Saitow, X. Wang,
    P. Verma, M. H. Lechner, A. Jiang, S. Behnle, A. G. Heide,
    M. F. Herbst, and D. L. Poole

             Previous Authors, Complete List of Code Contributors,
                       and Citations for Specific Modules
    https://github.com/psi4/psi4/blob/master/codemeta.json
    https://github.com/psi4/psi4/graphs/contributors
    http://psicode.org/psi4manual/master/introduction.html#citing-psifour

    -----------------------------------------------------------------------


    Psi4 started on: Thursday, 28 December 2023 04:43PM

    Process ID: 86846
    Host:       moses-razer
    PSIDATADIR: /home/kchung25/anaconda3/envs/psi4_19/share/psi4
    Memory:     55.9 GiB
    Threads:    6
    
  ==> Input QCSchema <==

--------------------------------------------------------------------------
{'driver': 'energy',
 'extras': {'psiapi': True, 'wfn_qcvars_only': True},
 'id': None,
 'keywords': {'SCF_TYPE': 'DF', 'function_kwargs': {}},
 'model': {'basis': 'aug-cc-pvtz', 'method': 'mp2'},
 'molecule': {'atom_labels': ['', ''],
              'atomic_numbers': [19, 17],
              'extras': {},
              'fix_com': True,
              'fix_orientation': True,
              'fix_symmetry': 'c1',
              'fragment_charges': [1.0, 0.0],
              'fragment_multiplicities': [1, 1],
              'fragments': [[0], [1]],
              'geometry': [0.0, 0.0, 0.0, 9.953361357589923, 0.0, 0.0],
              'mass_numbers': [39, 35],
              'masses': [38.9637064864, 34.968852682],
              'molecular_charge': 1.0,
              'molecular_multiplicity': 1,
              'name': 'dimer',
              'provenance': {'creator': 'QCElemental',
                             'routine': 'qcelemental.molparse.from_string',
                             'version': '0.27.1'},
              'real': [True, False],
              'schema_name': 'qcschema_molecule',
              'schema_version': 2,
              'symbols': ['K', 'Cl'],
              'validated': True},
 'protocols': {'stdout': True},
 'provenance': {'creator': 'QCElemental', 'routine': 'qcelemental.models.results', 'version': '0.27.1'},
 'schema_name': 'qcschema_input',
 'schema_version': 1}
--------------------------------------------------------------------------

Scratch directory: /scratch/
   => Libint2 <=

    Primary   basis highest AM E, G, H:  5, 4, 3
    Auxiliary basis highest AM E, G, H:  6, 5, 4
    Onebody   basis highest AM E, G, H:  6, 5, 4
    Solid Harmonics ordering:            gaussian

*** tstart() called on moses-razer
*** at Thu Dec 28 16:43:34 2023

   => Loading Basis Set <=

    Name: AUG-CC-PVTZ
    Role: ORBITAL
    Keyword: BASIS
    atoms 1 entry K          line  1152 file /home/kchung25/anaconda3/envs/p415env/share/psi4/basis/aug-cc-pvtz.gbs 
    atoms 2 entry CL         line   988 file /home/kchung25/anaconda3/envs/p415env/share/psi4/basis/aug-cc-pvtz.gbs 


         ---------------------------------------------------------
                                   SCF
               by Justin Turney, Rob Parrish, Andy Simmonett
                          and Daniel G. A. Smith
                              RHF Reference
                        6 Threads,  57220 MiB Core
         ---------------------------------------------------------

  ==> Geometry <==

    Molecular point group: c1
    Full point group: C_inf_v

    Geometry (in Bohr), charge = 1, multiplicity = 1:

       Center              X                  Y                   Z               Mass       
    ------------   -----------------  -----------------  -----------------  -----------------
         K            0.000000000000     0.000000000000     0.000000000000    38.963706486400
      Gh(CL)          9.953361357590     0.000000000000     0.000000000000    34.968852682000

  Running in c1 symmetry.

  Rotational constants: A = ************  B =      0.01738  C =      0.01738 [cm^-1]
  Rotational constants: A = ************  B =    520.94756  C =    520.94756 [MHz]
  Nuclear repulsion =    0.000000000000000

  Charge       = 1
  Multiplicity = 1
  Electrons    = 18
  Nalpha       = 9
  Nbeta        = 9

  ==> Algorithm <==

  SCF Algorithm Type is DF.
  DIIS enabled.
  MOM disabled.
  Fractional occupation disabled.
  Guess Type is SAD.
  Energy threshold   = 1.00e-08
  Density threshold  = 1.00e-08
  Integral threshold = 1.00e-12

  ==> Primary Basis <==

  Basis Set: AUG-CC-PVTZ
    Blend: AUG-CC-PVTZ
    Number of shells: 35
    Number of basis functions: 109
    Number of Cartesian functions: 128
    Spherical Harmonics?: true
    Max angular momentum: 3

   => Loading Basis Set <=

    Name: (AUG-CC-PVTZ AUX)
    Role: JKFIT
    Keyword: DF_BASIS_SCF
    atoms 1 entry K          line  1152 file /home/kchung25/anaconda3/envs/p415env/share/psi4/basis/def2-universal-jkfit.gbs 
    atoms 2 entry CL         line   816 file /home/kchung25/anaconda3/envs/p415env/share/psi4/basis/aug-cc-pvtz-jkfit.gbs 

  ==> Integral Setup <==

  DFHelper Memory: AOs need 0.031 GiB; user supplied 41.910 GiB. 
  Using in-core AOs.

  ==> MemDFJK: Density-Fitted J/K Matrices <==

    J tasked:                   Yes
    K tasked:                   Yes
    wK tasked:                   No
    OpenMP threads:               6
    Memory [MiB]:             42915
    Algorithm:                 Core
    Schwarz Cutoff:           1E-12
    Mask sparsity (%):       0.0000
    Fitting Condition:        1E-10

   => Auxiliary Basis Set <=

  Basis Set: (AUG-CC-PVTZ AUX)
    Blend: AUG-CC-PVTZ-JKFIT + DEF2-UNIVERSAL-JKFIT
    Number of shells: 86
    Number of basis functions: 306
    Number of Cartesian functions: 383
    Spherical Harmonics?: true
    Max angular momentum: 4

  Minimum eigenvalue in the overlap matrix is 5.2553509055E-04.
  Reciprocal condition number of the overlap matrix is 1.2206720601E-04.
    Using symmetric orthogonalization.

  ==> Pre-Iterations <==

  SCF Guess: Superposition of Atomic Densities via on-the-fly atomic UHF (no occupation information).

   -------------------------
    Irrep   Nso     Nmo    
   -------------------------
     A        109     109 
   -------------------------
    Total     109     109
   -------------------------

  ==> Iterations <==

                           Total Energy        Delta E     RMS |[F,P]|

   @DF-RHF iter SAD:  -599.05178666534857   -5.99052e+02   0.00000e+00 
   @DF-RHF iter   1:  -599.01748999707615    3.42967e-02   4.19999e-05 DIIS
   @DF-RHF iter   2:  -599.01750561849974   -1.56214e-05   6.01261e-06 DIIS
   @DF-RHF iter   3:  -599.01750595876399   -3.40264e-07   2.04352e-07 DIIS
   @DF-RHF iter   4:  -599.01750595917235   -4.08363e-10   1.68283e-08 DIIS
   @DF-RHF iter   5:  -599.01750595917542   -3.06954e-12   4.62201e-09 DIIS
  Energy and wave function converged.


  ==> Post-Iterations <==

    Orbital Energies [Eh]
    ---------------------

    Doubly Occupied:                                                      

       1A   -133.753958     2A    -14.709371     3A    -11.739431  
       4A    -11.739430     5A    -11.739430     6A     -1.964449  
       7A     -1.171008     8A     -1.171003     9A     -1.171003  

    Virtual:                                                              

      10A     -0.146976    11A     -0.095557    12A     -0.095556  
      13A     -0.095556    14A     -0.060506    15A     -0.057795  
      16A     -0.057724    17A     -0.057724    18A     -0.057720  
      19A     -0.057720    20A     -0.045537    21A     -0.045536  
      22A     -0.045536    23A     -0.031227    24A     -0.031211  
      25A     -0.031211    26A     -0.031208    27A     -0.031208  
      28A     -0.016427    29A     -0.016202    30A     -0.016202  
      31A     -0.012448    32A      0.003278    33A      0.008492  
      34A      0.008492    35A      0.015386    36A      0.016920  
      37A      0.016920    38A      0.016943    39A      0.016943  
      40A      0.019680    41A      0.019680    42A      0.019796  
      43A      0.019796    44A      0.052949    45A      0.055481  
      46A      0.055481    47A      0.075904    48A      0.103603  
      49A      0.103603    50A      0.120181    51A      0.220158  
      52A      0.220158    53A      0.222300    54A      0.222300  
      55A      0.223041    56A      0.238463    57A      0.238463  
      58A      0.238940    59A      0.238940    60A      0.239700  
      61A      0.244290    62A      0.244290    63A      0.311523  
      64A      0.311523    65A      0.331995    66A      0.340465  
      67A      0.340465    68A      0.355447    69A      0.374032  
      70A      0.374032    71A      0.440446    72A      0.697051  
      73A      1.195590    74A      1.195590    75A      1.195655  
      76A      1.195655    77A      1.197332    78A      1.197332  
      79A      1.198496    80A      1.211931    81A      1.211931  
      82A      1.220664    83A      1.365608    84A      1.373869  
      85A      1.373869    86A      1.392502    87A      1.392502  
      88A      1.441861    89A      3.824121    90A      3.824121  
      91A      3.824691    92A      3.824691    93A      3.824702  
      94A      3.824702    95A      3.827216    96A      3.850967  
      97A      3.850967    98A      3.856972    99A      3.966713  
     100A      4.562626   101A      4.562626   102A      4.574577  
     103A      4.574577   104A      4.594977   105A     13.759081  
     106A     27.622428   107A     27.622428   108A     27.633445  
     109A    160.639393  

    Final Occupation by Irrep:
              A 
    DOCC [     9 ]
    NA   [     9 ]
    NB   [     9 ]

  @DF-RHF Final Energy:  -599.01750595917542

   => Energetics <=

    Nuclear Repulsion Energy =              0.0000000000000000
    One-Electron Energy =                -819.7168452554577698
    Two-Electron Energy =                 220.6993392962823179
    Total Energy =                       -599.0175059591754234

Computation Completed


Properties will be evaluated at   0.000000,   0.000000,   0.000000 [a0]

Properties computed using the SCF density matrix


 Multipole Moments:

 ------------------------------------------------------------------------------------
     Multipole            Electronic (a.u.)      Nuclear  (a.u.)        Total (a.u.)
 ------------------------------------------------------------------------------------

 L = 1.  Multiply by 2.5417464519 to convert [e a0] to [Debye]
 Dipole X            :          0.0000019            0.0000000            0.0000019
 Dipole Y            :         -0.0000000            0.0000000           -0.0000000
 Dipole Z            :          0.0000000            0.0000000            0.0000000
 Magnitude           :                                                    0.0000019

 ------------------------------------------------------------------------------------

*** tstop() called on moses-razer at Thu Dec 28 16:43:41 2023
Module time:
	user time   =      12.13 seconds =       0.20 minutes
	system time =       2.50 seconds =       0.04 minutes
	total time  =          7 seconds =       0.12 minutes
Total time:
	user time   =      28.86 seconds =       0.48 minutes
	system time =       4.86 seconds =       0.08 minutes
	total time  =         18 seconds =       0.30 minutes

*** tstart() called on moses-razer
*** at Thu Dec 28 16:43:41 2023


  //>>>>>>>>>>>>>>>>>>>>>>>>>>>>>>>>>>>//
  //               DFMP2               //
  //<<<<<<<<<<<<<<<<<<<<<<<<<<<<<<<<<<<//

   => Loading Basis Set <=

    Name: (AUG-CC-PVTZ AUX)
    Role: RIFIT
    Keyword: DF_BASIS_MP2
    atoms 1 entry K          line  1282 file /home/kchung25/anaconda3/envs/p415env/share/psi4/basis/def2-qzvpp-ri.gbs 
    atoms 2 entry CL         line   742 file /home/kchung25/anaconda3/envs/p415env/share/psi4/basis/aug-cc-pvtz-ri.gbs 

	 --------------------------------------------------------
	                          DF-MP2                         
	      2nd-Order Density-Fitted Moller-Plesset Theory     
	              RMP2 Wavefunction,   6 Threads             
	                                                         
	        Rob Parrish, Justin Turney, Andy Simmonett,      
	           Ed Hohenstein, and C. David Sherrill          
	 --------------------------------------------------------

   => Auxiliary Basis Set <=

  Basis Set: (AUG-CC-PVTZ AUX)
    Blend: AUG-CC-PVTZ-RI + DEF2-QZVPP-RI
    Number of shells: 86
    Number of basis functions: 346
    Number of Cartesian functions: 453
    Spherical Harmonics?: true
    Max angular momentum: 4

	 --------------------------------------------------------
	                 NBF =   109, NAUX =   346
	 --------------------------------------------------------
	   CLASS    FOCC     OCC    AOCC    AVIR     VIR    FVIR
	   PAIRS       0       9       9     100     100       0
	 --------------------------------------------------------

	-----------------------------------------------------------
	 ==================> DF-MP2 Energies <==================== 
	-----------------------------------------------------------
	 Reference Energy          =    -599.0175059591754234 [Eh]
	 Singles Energy            =      -0.0000000000000000 [Eh]
	 Same-Spin Energy          =      -0.0253365863526083 [Eh]
	 Opposite-Spin Energy      =      -0.0578089090763682 [Eh]
	 Correlation Energy        =      -0.0831454954289765 [Eh]
	 Total Energy              =    -599.1006514546044173 [Eh]
	-----------------------------------------------------------
	 ================> DF-SCS-MP2 Energies <================== 
	-----------------------------------------------------------
	 SCS Same-Spin Scale       =       0.3333333333333333 [-]
	 SCS Opposite-Spin Scale   =       1.2000000000000000 [-]
	 SCS Same-Spin Energy      =      -0.0084455287842028 [Eh]
	 SCS Opposite-Spin Energy  =      -0.0693706908916419 [Eh]
	 SCS Correlation Energy    =      -0.0778162196758447 [Eh]
	 SCS Total Energy          =    -599.0953221788512337 [Eh]
	-----------------------------------------------------------


*** tstop() called on moses-razer at Thu Dec 28 16:43:46 2023
Module time:
	user time   =       6.71 seconds =       0.11 minutes
	system time =       0.74 seconds =       0.01 minutes
	total time  =          5 seconds =       0.08 minutes
Total time:
	user time   =      35.57 seconds =       0.59 minutes
	system time =       5.60 seconds =       0.09 minutes
	total time  =         23 seconds =       0.38 minutes

    Psi4 stopped on: Thursday, 28 December 2023 04:43PM
    Psi4 wall time for execution: 0:00:12.33


    -----------------------------------------------------------------------
          Psi4: An Open-Source Ab Initio Electronic Structure Package
                               Psi4 1.9 release

                         Git: Rev {} zzzzzzz 


    D. G. A. Smith, L. A. Burns, A. C. Simmonett, R. M. Parrish,
    M. C. Schieber, R. Galvelis, P. Kraus, H. Kruse, R. Di Remigio,
    A. Alenaizan, A. M. James, S. Lehtola, J. P. Misiewicz, M. Scheurer,
    R. A. Shaw, J. B. Schriber, Y. Xie, Z. L. Glick, D. A. Sirianni,
    J. S. O'Brien, J. M. Waldrop, A. Kumar, E. G. Hohenstein,
    B. P. Pritchard, B. R. Brooks, H. F. Schaefer III, A. Yu. Sokolov,
    K. Patkowski, A. E. DePrince III, U. Bozkaya, R. A. King,
    F. A. Evangelista, J. M. Turney, T. D. Crawford, C. D. Sherrill,
    J. Chem. Phys. 152(18) 184108 (2020). https://doi.org/10.1063/5.0006002

                            Additional Code Authors
    E. T. Seidl, C. L. Janssen, E. F. Valeev, M. L. Leininger,
    J. F. Gonthier, R. M. Richard, H. R. McAlexander, M. Saitow, X. Wang,
    P. Verma, M. H. Lechner, A. Jiang, S. Behnle, A. G. Heide,
    M. F. Herbst, and D. L. Poole

             Previous Authors, Complete List of Code Contributors,
                       and Citations for Specific Modules
    https://github.com/psi4/psi4/blob/master/codemeta.json
    https://github.com/psi4/psi4/graphs/contributors
    http://psicode.org/psi4manual/master/introduction.html#citing-psifour

    -----------------------------------------------------------------------


    Psi4 started on: Thursday, 28 December 2023 04:43PM

    Process ID: 86846
    Host:       moses-razer
    PSIDATADIR: /home/kchung25/anaconda3/envs/psi4_19/share/psi4
    Memory:     55.9 GiB
    Threads:    6
    
  ==> Input QCSchema <==

--------------------------------------------------------------------------
{'driver': 'energy',
 'extras': {'psiapi': True, 'wfn_qcvars_only': True},
 'id': None,
 'keywords': {'SCF_TYPE': 'DF', 'function_kwargs': {}},
 'model': {'basis': 'aug-cc-pvtz', 'method': 'mp2'},
 'molecule': {'atom_labels': ['', ''],
              'atomic_numbers': [19, 17],
              'extras': {},
              'fix_com': True,
              'fix_orientation': True,
              'fix_symmetry': 'c1',
              'fragment_charges': [1.0, -1.0],
              'fragment_multiplicities': [1, 1],
              'fragments': [[0], [1]],
              'geometry': [0.0, 0.0, 0.0, 9.953361357589923, 0.0, 0.0],
              'mass_numbers': [39, 35],
              'masses': [38.9637064864, 34.968852682],
              'molecular_charge': 0.0,
              'molecular_multiplicity': 1,
              'name': 'dimer',
              'provenance': {'creator': 'QCElemental',
                             'routine': 'qcelemental.molparse.from_string',
                             'version': '0.27.1'},
              'real': [True, True],
              'schema_name': 'qcschema_molecule',
              'schema_version': 2,
              'symbols': ['K', 'Cl'],
              'validated': True},
 'protocols': {'stdout': True},
 'provenance': {'creator': 'QCElemental', 'routine': 'qcelemental.models.results', 'version': '0.27.1'},
 'schema_name': 'qcschema_input',
 'schema_version': 1}
--------------------------------------------------------------------------

Scratch directory: /scratch/
   => Libint2 <=

    Primary   basis highest AM E, G, H:  5, 4, 3
    Auxiliary basis highest AM E, G, H:  6, 5, 4
    Onebody   basis highest AM E, G, H:  6, 5, 4
    Solid Harmonics ordering:            gaussian

*** tstart() called on moses-razer
*** at Thu Dec 28 16:43:46 2023

   => Loading Basis Set <=

    Name: AUG-CC-PVTZ
    Role: ORBITAL
    Keyword: BASIS
    atoms 1 entry K          line  1152 file /home/kchung25/anaconda3/envs/p415env/share/psi4/basis/aug-cc-pvtz.gbs 
    atoms 2 entry CL         line   988 file /home/kchung25/anaconda3/envs/p415env/share/psi4/basis/aug-cc-pvtz.gbs 


         ---------------------------------------------------------
                                   SCF
               by Justin Turney, Rob Parrish, Andy Simmonett
                          and Daniel G. A. Smith
                              RHF Reference
                        6 Threads,  57220 MiB Core
         ---------------------------------------------------------

  ==> Geometry <==

    Molecular point group: c1
    Full point group: C_inf_v

    Geometry (in Bohr), charge = 0, multiplicity = 1:

       Center              X                  Y                   Z               Mass       
    ------------   -----------------  -----------------  -----------------  -----------------
         K            0.000000000000     0.000000000000     0.000000000000    38.963706486400
         CL           9.953361357590     0.000000000000     0.000000000000    34.968852682000

  Running in c1 symmetry.

  Rotational constants: A = ************  B =      0.01738  C =      0.01738 [cm^-1]
  Rotational constants: A = ************  B =    520.94756  C =    520.94756 [MHz]
  Nuclear repulsion =   32.451348684703056

  Charge       = 0
  Multiplicity = 1
  Electrons    = 36
  Nalpha       = 18
  Nbeta        = 18

  ==> Algorithm <==

  SCF Algorithm Type is DF.
  DIIS enabled.
  MOM disabled.
  Fractional occupation disabled.
  Guess Type is SAD.
  Energy threshold   = 1.00e-08
  Density threshold  = 1.00e-08
  Integral threshold = 1.00e-12

  ==> Primary Basis <==

  Basis Set: AUG-CC-PVTZ
    Blend: AUG-CC-PVTZ
    Number of shells: 35
    Number of basis functions: 109
    Number of Cartesian functions: 128
    Spherical Harmonics?: true
    Max angular momentum: 3

   => Loading Basis Set <=

    Name: (AUG-CC-PVTZ AUX)
    Role: JKFIT
    Keyword: DF_BASIS_SCF
    atoms 1 entry K          line  1152 file /home/kchung25/anaconda3/envs/p415env/share/psi4/basis/def2-universal-jkfit.gbs 
    atoms 2 entry CL         line   816 file /home/kchung25/anaconda3/envs/p415env/share/psi4/basis/aug-cc-pvtz-jkfit.gbs 

  ==> Integral Setup <==

  DFHelper Memory: AOs need 0.031 GiB; user supplied 41.910 GiB. 
  Using in-core AOs.

  ==> MemDFJK: Density-Fitted J/K Matrices <==

    J tasked:                   Yes
    K tasked:                   Yes
    wK tasked:                   No
    OpenMP threads:               6
    Memory [MiB]:             42915
    Algorithm:                 Core
    Schwarz Cutoff:           1E-12
    Mask sparsity (%):       0.0000
    Fitting Condition:        1E-10

   => Auxiliary Basis Set <=

  Basis Set: (AUG-CC-PVTZ AUX)
    Blend: AUG-CC-PVTZ-JKFIT + DEF2-UNIVERSAL-JKFIT
    Number of shells: 86
    Number of basis functions: 306
    Number of Cartesian functions: 383
    Spherical Harmonics?: true
    Max angular momentum: 4

  Minimum eigenvalue in the overlap matrix is 5.2553509055E-04.
  Reciprocal condition number of the overlap matrix is 1.2206720601E-04.
    Using symmetric orthogonalization.

  ==> Pre-Iterations <==

  SCF Guess: Superposition of Atomic Densities via on-the-fly atomic UHF (no occupation information).

   -------------------------
    Irrep   Nso     Nmo    
   -------------------------
     A        109     109 
   -------------------------
    Total     109     109
   -------------------------

  ==> Iterations <==

                           Total Energy        Delta E     RMS |[F,P]|

   @DF-RHF iter SAD: -1058.17001221906116   -1.05817e+03   0.00000e+00 
   @DF-RHF iter   1: -1058.63400032249524   -4.63988e-01   2.72122e-03 ADIIS/DIIS
   @DF-RHF iter   2: -1058.68455229472261   -5.05520e-02   1.40768e-03 ADIIS/DIIS
   @DF-RHF iter   3: -1058.69350900143263   -8.95671e-03   9.25733e-05 DIIS
   @DF-RHF iter   4: -1058.69358282665712   -7.38252e-05   2.35239e-05 DIIS
   @DF-RHF iter   5: -1058.69359278757588   -9.96092e-06   5.21942e-06 DIIS
   @DF-RHF iter   6: -1058.69359385658117   -1.06901e-06   1.82318e-06 DIIS
   @DF-RHF iter   7: -1058.69359402433588   -1.67755e-07   4.65455e-07 DIIS
   @DF-RHF iter   8: -1058.69359403496946   -1.06336e-08   8.09292e-08 DIIS
   @DF-RHF iter   9: -1058.69359403518683   -2.17369e-10   2.06187e-08 DIIS
   @DF-RHF iter  10: -1058.69359403520389   -1.70530e-11   4.23461e-09 DIIS
  Energy and wave function converged.


  ==> Post-Iterations <==

    Orbital Energies [Eh]
    ---------------------

    Doubly Occupied:                                                      

       1A   -133.649380     2A   -104.610319     3A    -14.604764  
       4A    -11.634840     5A    -11.634840     6A    -11.634788  
       7A    -10.333986     8A     -7.800059     9A     -7.799958  
      10A     -7.799958    11A     -1.859803    12A     -1.066862  
      13A     -1.066862    14A     -1.065321    15A     -0.836922  
      16A     -0.253772    17A     -0.253252    18A     -0.253252  

    Virtual:                                                              

      19A     -0.056865    20A     -0.015892    21A     -0.015892  
      22A     -0.010343    23A      0.004490    24A      0.005539  
      25A      0.005539    26A      0.010885    27A      0.010885  
      28A      0.010996    29A      0.023935    30A      0.023935  
      31A      0.031555    32A      0.031555    33A      0.037619  
      34A      0.042396    35A      0.042396    36A      0.050279  
      37A      0.050279    38A      0.051179    39A      0.060515  
      40A      0.077385    41A      0.100361    42A      0.100361  
      43A      0.106594    44A      0.106594    45A      0.113583  
      46A      0.113583    47A      0.115361    48A      0.115361  
      49A      0.122997    50A      0.131124    51A      0.131124  
      52A      0.139133    53A      0.193291    54A      0.193291  
      55A      0.206131    56A      0.230969    57A      0.230969  
      58A      0.240400    59A      0.315960    60A      0.320380  
      61A      0.320380    62A      0.324950    63A      0.324950  
      64A      0.332675    65A      0.332675    66A      0.340932  
      67A      0.340932    68A      0.346048    69A      0.352534  
      70A      0.352534    71A      0.385216    72A      0.501239  
      73A      0.501239    74A      0.517349    75A      0.517349  
      76A      0.558979    77A      0.779934    78A      0.815357  
      79A      0.815357    80A      0.834372    81A      1.123382  
      82A      1.123382    83A      1.138226    84A      1.138226  
      85A      1.150298    86A      1.248109    87A      1.366468  
      88A      1.366468    89A      1.367313    90A      1.367313  
      91A      1.367855    92A      1.367855    93A      1.373763  
      94A      2.729124    95A      2.729124    96A      2.741051  
      97A      2.741051    98A      2.762900    99A      2.897133  
     100A      2.897133   101A      2.906263   102A      3.270714  
     103A      3.270714   104A      3.271356   105A      3.271356  
     106A      3.271504   107A      3.271504   108A      3.274488  
     109A      5.505438  

    Final Occupation by Irrep:
              A 
    DOCC [    18 ]
    NA   [    18 ]
    NB   [    18 ]

  @DF-RHF Final Energy: -1058.69359403520389

   => Energetics <=

    Nuclear Repulsion Energy =             32.4513486847030563
    One-Electron Energy =               -1525.9720100030938283
    Two-Electron Energy =                 434.8270672831868069
    Total Energy =                      -1058.6935940352038870

Computation Completed


Properties will be evaluated at   0.000000,   0.000000,   0.000000 [a0]

Properties computed using the SCF density matrix


 Multipole Moments:

 ------------------------------------------------------------------------------------
     Multipole            Electronic (a.u.)      Nuclear  (a.u.)        Total (a.u.)
 ------------------------------------------------------------------------------------

 L = 1.  Multiply by 2.5417464519 to convert [e a0] to [Debye]
 Dipole X            :       -178.7561390          169.2071431           -9.5489959
 Dipole Y            :          0.0000000            0.0000000            0.0000000
 Dipole Z            :         -0.0000000            0.0000000           -0.0000000
 Magnitude           :                                                    9.5489959

 ------------------------------------------------------------------------------------

*** tstop() called on moses-razer at Thu Dec 28 16:43:54 2023
Module time:
	user time   =      13.90 seconds =       0.23 minutes
	system time =       2.80 seconds =       0.05 minutes
	total time  =          8 seconds =       0.13 minutes
Total time:
	user time   =      49.75 seconds =       0.83 minutes
	system time =       8.40 seconds =       0.14 minutes
	total time  =         31 seconds =       0.52 minutes

*** tstart() called on moses-razer
*** at Thu Dec 28 16:43:54 2023


  //>>>>>>>>>>>>>>>>>>>>>>>>>>>>>>>>>>>//
  //               DFMP2               //
  //<<<<<<<<<<<<<<<<<<<<<<<<<<<<<<<<<<<//

   => Loading Basis Set <=

    Name: (AUG-CC-PVTZ AUX)
    Role: RIFIT
    Keyword: DF_BASIS_MP2
    atoms 1 entry K          line  1282 file /home/kchung25/anaconda3/envs/p415env/share/psi4/basis/def2-qzvpp-ri.gbs 
    atoms 2 entry CL         line   742 file /home/kchung25/anaconda3/envs/p415env/share/psi4/basis/aug-cc-pvtz-ri.gbs 

	 --------------------------------------------------------
	                          DF-MP2                         
	      2nd-Order Density-Fitted Moller-Plesset Theory     
	              RMP2 Wavefunction,   6 Threads             
	                                                         
	        Rob Parrish, Justin Turney, Andy Simmonett,      
	           Ed Hohenstein, and C. David Sherrill          
	 --------------------------------------------------------

   => Auxiliary Basis Set <=

  Basis Set: (AUG-CC-PVTZ AUX)
    Blend: AUG-CC-PVTZ-RI + DEF2-QZVPP-RI
    Number of shells: 86
    Number of basis functions: 346
    Number of Cartesian functions: 453
    Spherical Harmonics?: true
    Max angular momentum: 4

	 --------------------------------------------------------
	                 NBF =   109, NAUX =   346
	 --------------------------------------------------------
	   CLASS    FOCC     OCC    AOCC    AVIR     VIR    FVIR
	   PAIRS       0      18      18      91      91       0
	 --------------------------------------------------------

	-----------------------------------------------------------
	 ==================> DF-MP2 Energies <==================== 
	-----------------------------------------------------------
	 Reference Energy          =   -1058.6935940352038870 [Eh]
	 Singles Energy            =      -0.0000000000000000 [Eh]
	 Same-Spin Energy          =      -0.0878528235921709 [Eh]
	 Opposite-Spin Energy      =      -0.2370376108162907 [Eh]
	 Correlation Energy        =      -0.3248904344084617 [Eh]
	 Total Energy              =   -1059.0184844696123037 [Eh]
	-----------------------------------------------------------
	 ================> DF-SCS-MP2 Energies <================== 
	-----------------------------------------------------------
	 SCS Same-Spin Scale       =       0.3333333333333333 [-]
	 SCS Opposite-Spin Scale   =       1.2000000000000000 [-]
	 SCS Same-Spin Energy      =      -0.0292842745307236 [Eh]
	 SCS Opposite-Spin Energy  =      -0.2844451329795489 [Eh]
	 SCS Correlation Energy    =      -0.3137294075102725 [Eh]
	 SCS Total Energy          =   -1059.0073234427140960 [Eh]
	-----------------------------------------------------------


*** tstop() called on moses-razer at Thu Dec 28 16:43:59 2023
Module time:
	user time   =       6.52 seconds =       0.11 minutes
	system time =       0.74 seconds =       0.01 minutes
	total time  =          5 seconds =       0.08 minutes
Total time:
	user time   =      56.27 seconds =       0.94 minutes
	system time =       9.14 seconds =       0.15 minutes
	total time  =         36 seconds =       0.60 minutes

    Psi4 stopped on: Thursday, 28 December 2023 04:43PM
    Psi4 wall time for execution: 0:00:13.04


  //>>>>>>>>>>>>>>>>>>>>>>>>>>>>>>>>>>>//
  //          ManyBody Results         //
  //<<<<<<<<<<<<<<<<<<<<<<<<<<<<<<<<<<<//


   ==> N-Body: Counterpoise Corrected (CP) energies <==

        n-Body     Total Energy            Interaction Energy                          N-body Contribution to Interaction Energy
                   [Eh]                    [Eh]                  [kcal/mol]            [Eh]                  [kcal/mol]
             1  N/A                         0.000000000000        0.000000000000        0.000000000000        0.000000000000
  FULL/RTN   2  N/A                        -0.103209498696      -64.764938215465       -0.103209498696      -64.764938215465


    Psi4 stopped on: Thursday, 28 December 2023 04:43PM
    Psi4 wall time for execution: 0:00:37.36

*** Psi4 exiting successfully. Buy a developer a beer!
