
    -----------------------------------------------------------------------
          Psi4: An Open-Source Ab Initio Electronic Structure Package
                               Psi4 1.9 release

                         Git: Rev {} zzzzzzz 


    D. G. A. Smith, L. A. Burns, A. C. Simmonett, R. M. Parrish,
    M. C. Schieber, R. Galvelis, P. Kraus, H. Kruse, R. Di Remigio,
    A. Alenaizan, A. M. James, S. Lehtola, J. P. Misiewicz, M. Scheurer,
    R. A. Shaw, J. B. Schriber, Y. Xie, Z. L. Glick, D. A. Sirianni,
    J. S. O'Brien, J. M. Waldrop, A. Kumar, E. G. Hohenstein,
    B. P. Pritchard, B. R. Brooks, H. F. Schaefer III, A. Yu. Sokolov,
    K. Patkowski, A. E. DePrince III, U. Bozkaya, R. A. King,
    F. A. Evangelista, J. M. Turney, T. D. Crawford, C. D. Sherrill,
    J. Chem. Phys. 152(18) 184108 (2020). https://doi.org/10.1063/5.0006002

                            Additional Code Authors
    E. T. Seidl, C. L. Janssen, E. F. Valeev, M. L. Leininger,
    J. F. Gonthier, R. M. Richard, H. R. McAlexander, M. Saitow, X. Wang,
    P. Verma, M. H. Lechner, A. Jiang, S. Behnle, A. G. Heide,
    M. F. Herbst, and D. L. Poole

             Previous Authors, Complete List of Code Contributors,
                       and Citations for Specific Modules
    https://github.com/psi4/psi4/blob/master/codemeta.json
    https://github.com/psi4/psi4/graphs/contributors
    http://psicode.org/psi4manual/master/introduction.html#citing-psifour

    -----------------------------------------------------------------------


    Psi4 started on: Friday, 29 December 2023 05:20PM

    Process ID: 155807
    Host:       moses-razer
    PSIDATADIR: /home/kchung25/anaconda3/envs/psi4_19/share/psi4
    Memory:     500.0 MiB
    Threads:    6
    
  ==> Input File <==

--------------------------------------------------------------------------
MEMORY 60 GB

molecule dimer {
0 1
O      0.000000     0.000000     0.000000
H     -0.159063     0.944263     0.000000
H      1.060028    -0.036721     0.000000
--
-1 1
F      4.852778     0.000000     0.000000

units ang
no_reorient
no_com
symmetry c1
}

set {
basis        aug-cc-pVTZ
scf_type     df
}

energy("mp2", bsse_type="cp")
--------------------------------------------------------------------------

  Memory set to  55.879 GiB by Python driver.

Scratch directory: /scratch/

  //>>>>>>>>>>>>>>>>>>>>>>>>>>>>>>>>>>>>>//
  // ManyBody Setup: N-Body Levels [1, 2]//
  //<<<<<<<<<<<<<<<<<<<<<<<<<<<<<<<<<<<<<//

        Number of 1-body computations:     2
        Number of 2-body computations:     1

    -----------------------------------------------------------------------
          Psi4: An Open-Source Ab Initio Electronic Structure Package
                               Psi4 1.9 release

                         Git: Rev {} zzzzzzz 


    D. G. A. Smith, L. A. Burns, A. C. Simmonett, R. M. Parrish,
    M. C. Schieber, R. Galvelis, P. Kraus, H. Kruse, R. Di Remigio,
    A. Alenaizan, A. M. James, S. Lehtola, J. P. Misiewicz, M. Scheurer,
    R. A. Shaw, J. B. Schriber, Y. Xie, Z. L. Glick, D. A. Sirianni,
    J. S. O'Brien, J. M. Waldrop, A. Kumar, E. G. Hohenstein,
    B. P. Pritchard, B. R. Brooks, H. F. Schaefer III, A. Yu. Sokolov,
    K. Patkowski, A. E. DePrince III, U. Bozkaya, R. A. King,
    F. A. Evangelista, J. M. Turney, T. D. Crawford, C. D. Sherrill,
    J. Chem. Phys. 152(18) 184108 (2020). https://doi.org/10.1063/5.0006002

                            Additional Code Authors
    E. T. Seidl, C. L. Janssen, E. F. Valeev, M. L. Leininger,
    J. F. Gonthier, R. M. Richard, H. R. McAlexander, M. Saitow, X. Wang,
    P. Verma, M. H. Lechner, A. Jiang, S. Behnle, A. G. Heide,
    M. F. Herbst, and D. L. Poole

             Previous Authors, Complete List of Code Contributors,
                       and Citations for Specific Modules
    https://github.com/psi4/psi4/blob/master/codemeta.json
    https://github.com/psi4/psi4/graphs/contributors
    http://psicode.org/psi4manual/master/introduction.html#citing-psifour

    -----------------------------------------------------------------------


    Psi4 started on: Friday, 29 December 2023 05:20PM

    Process ID: 155807
    Host:       moses-razer
    PSIDATADIR: /home/kchung25/anaconda3/envs/psi4_19/share/psi4
    Memory:     55.9 GiB
    Threads:    6
    
  ==> Input QCSchema <==

--------------------------------------------------------------------------
{'driver': 'energy',
 'extras': {'psiapi': True, 'wfn_qcvars_only': True},
 'id': None,
 'keywords': {'SCF_TYPE': 'DF', 'function_kwargs': {}},
 'model': {'basis': 'aug-cc-pvtz', 'method': 'mp2'},
 'molecule': {'atom_labels': ['', '', '', ''],
              'atomic_numbers': [8, 1, 1, 9],
              'extras': {},
              'fix_com': True,
              'fix_orientation': True,
              'fix_symmetry': 'c1',
              'fragment_charges': [0.0, -1.0],
              'fragment_multiplicities': [1, 1],
              'fragments': [[0, 1, 2], [3]],
              'geometry': [0.0, 0.0, 0.0, -0.30058550669369855, 1.784398460403185, 0.0, 2.0031626053168106,
                           -0.0693926330529369, 0.0, 9.170421367646988, 0.0, 0.0],
              'mass_numbers': [16, 1, 1, 19],
              'masses': [15.99491461957, 1.00782503223, 1.00782503223, 18.99840316273],
              'molecular_charge': -1.0,
              'molecular_multiplicity': 1,
              'name': 'dimer',
              'provenance': {'creator': 'QCElemental',
                             'routine': 'qcelemental.molparse.from_string',
                             'version': '0.27.1'},
              'real': [False, False, False, True],
              'schema_name': 'qcschema_molecule',
              'schema_version': 2,
              'symbols': ['O', 'H', 'H', 'F'],
              'validated': True},
 'protocols': {'stdout': True},
 'provenance': {'creator': 'QCElemental', 'routine': 'qcelemental.models.results', 'version': '0.27.1'},
 'schema_name': 'qcschema_input',
 'schema_version': 1}
--------------------------------------------------------------------------

Scratch directory: /scratch/
   => Libint2 <=

    Primary   basis highest AM E, G, H:  5, 4, 3
    Auxiliary basis highest AM E, G, H:  6, 5, 4
    Onebody   basis highest AM E, G, H:  6, 5, 4
    Solid Harmonics ordering:            gaussian

*** tstart() called on moses-razer
*** at Fri Dec 29 17:20:13 2023

   => Loading Basis Set <=

    Name: AUG-CC-PVTZ
    Role: ORBITAL
    Keyword: BASIS
    atoms 1   entry O          line   331 file /home/kchung25/anaconda3/envs/p415env/share/psi4/basis/aug-cc-pvtz.gbs 
    atoms 2-3 entry H          line    40 file /home/kchung25/anaconda3/envs/p415env/share/psi4/basis/aug-cc-pvtz.gbs 
    atoms 4   entry F          line   377 file /home/kchung25/anaconda3/envs/p415env/share/psi4/basis/aug-cc-pvtz.gbs 


         ---------------------------------------------------------
                                   SCF
               by Justin Turney, Rob Parrish, Andy Simmonett
                          and Daniel G. A. Smith
                              RHF Reference
                        6 Threads,  57220 MiB Core
         ---------------------------------------------------------

  ==> Geometry <==

    Molecular point group: c1
    Full point group: Cs

    Geometry (in Bohr), charge = -1, multiplicity = 1:

       Center              X                  Y                   Z               Mass       
    ------------   -----------------  -----------------  -----------------  -----------------
      Gh(O)           0.000000000000     0.000000000000     0.000000000000    15.994914619570
      Gh(H)          -0.300585506694     1.784398460403     0.000000000000     1.007825032230
      Gh(H)           2.003162605317    -0.069392633053     0.000000000000     1.007825032230
         F            9.170421367647     0.000000000000     0.000000000000    18.998403162730

  Running in c1 symmetry.

  Rotational constants: A =     18.73304  B =      0.03758  C =      0.03751 [cm^-1]
  Rotational constants: A = 561602.43442  B =   1126.66966  C =   1124.41389 [MHz]
  Nuclear repulsion =    0.000000000000000

  Charge       = -1
  Multiplicity = 1
  Electrons    = 10
  Nalpha       = 5
  Nbeta        = 5

  ==> Algorithm <==

  SCF Algorithm Type is DF.
  DIIS enabled.
  MOM disabled.
  Fractional occupation disabled.
  Guess Type is SAD.
  Energy threshold   = 1.00e-08
  Density threshold  = 1.00e-08
  Integral threshold = 1.00e-12

  ==> Primary Basis <==

  Basis Set: AUG-CC-PVTZ
    Blend: AUG-CC-PVTZ
    Number of shells: 46
    Number of basis functions: 138
    Number of Cartesian functions: 160
    Spherical Harmonics?: true
    Max angular momentum: 3

   => Loading Basis Set <=

    Name: (AUG-CC-PVTZ AUX)
    Role: JKFIT
    Keyword: DF_BASIS_SCF
    atoms 1   entry O          line   286 file /home/kchung25/anaconda3/envs/p415env/share/psi4/basis/aug-cc-pvtz-jkfit.gbs 
    atoms 2-3 entry H          line    70 file /home/kchung25/anaconda3/envs/p415env/share/psi4/basis/aug-cc-pvtz-jkfit.gbs 
    atoms 4   entry F          line   348 file /home/kchung25/anaconda3/envs/p415env/share/psi4/basis/aug-cc-pvtz-jkfit.gbs 

  ==> Integral Setup <==

  DFHelper Memory: AOs need 0.042 GiB; user supplied 41.910 GiB. 
  Using in-core AOs.

  ==> MemDFJK: Density-Fitted J/K Matrices <==

    J tasked:                   Yes
    K tasked:                   Yes
    wK tasked:                   No
    OpenMP threads:               6
    Memory [MiB]:             42915
    Algorithm:                 Core
    Schwarz Cutoff:           1E-12
    Mask sparsity (%):      14.2302
    Fitting Condition:        1E-10

   => Auxiliary Basis Set <=

  Basis Set: (AUG-CC-PVTZ AUX)
    Blend: AUG-CC-PVTZ-JKFIT
    Number of shells: 88
    Number of basis functions: 300
    Number of Cartesian functions: 372
    Spherical Harmonics?: true
    Max angular momentum: 4

  Minimum eigenvalue in the overlap matrix is 3.9848911013E-04.
  Reciprocal condition number of the overlap matrix is 5.8731142929E-05.
    Using symmetric orthogonalization.

  ==> Pre-Iterations <==

  SCF Guess: Superposition of Atomic Densities via on-the-fly atomic UHF (no occupation information).

   -------------------------
    Irrep   Nso     Nmo    
   -------------------------
     A        138     138 
   -------------------------
    Total     138     138
   -------------------------

  ==> Iterations <==

                           Total Energy        Delta E     RMS |[F,P]|

   @DF-RHF iter SAD:   -98.82535128242321   -9.88254e+01   0.00000e+00 
   @DF-RHF iter   1:   -99.33791100873459   -5.12560e-01   3.95774e-03 ADIIS/DIIS
   @DF-RHF iter   2:   -99.37463043059209   -3.67194e-02   3.83363e-03 ADIIS/DIIS
   @DF-RHF iter   3:   -99.45073989732896   -7.61095e-02   1.21961e-04 ADIIS/DIIS
   @DF-RHF iter   4:   -99.45080312779329   -6.32305e-05   4.54340e-05 DIIS
   @DF-RHF iter   5:   -99.45081335859446   -1.02308e-05   3.72897e-06 DIIS
   @DF-RHF iter   6:   -99.45081350958948   -1.50995e-07   2.35486e-07 DIIS
   @DF-RHF iter   7:   -99.45081351042876   -8.39279e-10   4.65737e-08 DIIS
   @DF-RHF iter   8:   -99.45081351051034   -8.15845e-11   1.14738e-08 DIIS
   @DF-RHF iter   9:   -99.45081351051469   -4.34852e-12   1.65504e-09 DIIS
  Energy and wave function converged.


  ==> Post-Iterations <==

    Orbital Energies [Eh]
    ---------------------

    Doubly Occupied:                                                      

       1A    -25.833735     2A     -1.076042     3A     -0.180974  
       4A     -0.180971     5A     -0.180966  

    Virtual:                                                              

       6A      0.115911     7A      0.170999     8A      0.223944  
       9A      0.227147    10A      0.235066    11A      0.280168  
      12A      0.369923    13A      0.384922    14A      0.388584  
      15A      0.415028    16A      0.430212    17A      0.448178  
      18A      0.460284    19A      0.465680    20A      0.472874  
      21A      0.521366    22A      0.565652    23A      0.590813  
      24A      0.728294    25A      0.753974    26A      0.869698  
      27A      0.892221    28A      0.908585    29A      0.915864  
      30A      0.933567    31A      0.952406    32A      1.015406  
      33A      1.018745    34A      1.059135    35A      1.095833  
      36A      1.102702    37A      1.142346    38A      1.164244  
      39A      1.180284    40A      1.228613    41A      1.228729  
      42A      1.236490    43A      1.242224    44A      1.274995  
      45A      1.303347    46A      1.325506    47A      1.334177  
      48A      1.530602    49A      1.532898    50A      1.537105  
      51A      1.554130    52A      1.562914    53A      1.792928  
      54A      1.799237    55A      1.810521    56A      1.903331  
      57A      1.972230    58A      2.130341    59A      2.160909  
      60A      2.490868    61A      2.493616    62A      2.620513  
      63A      2.635785    64A      2.636182    65A      2.648838  
      66A      2.657612    67A      2.727858    68A      2.937503  
      69A      3.193293    70A      3.199083    71A      3.283748  
      72A      3.284232    73A      3.285435    74A      3.288071  
      75A      3.292463    76A      3.322154    77A      3.332112  
      78A      3.332114    79A      3.332114    80A      3.332114  
      81A      3.332902    82A      3.334070    83A      3.361371  
      84A      3.372448    85A      3.396189    86A      3.603767  
      87A      3.836454    88A      4.436029    89A      4.489282  
      90A      4.547301    91A      4.644091    92A      4.695431  
      93A      4.726082    94A      4.959886    95A      4.967808  
      96A      5.025298    97A      5.301731    98A      5.446231  
      99A      5.507962   100A      5.675878   101A      5.677606  
     102A      5.696198   103A      5.733882   104A      5.872871  
     105A      6.206712   106A      6.353018   107A      6.422469  
     108A      7.022432   109A      7.754992   110A      7.877758  
     111A      8.039733   112A      8.110074   113A      8.317250  
     114A      8.615895   115A      8.756336   116A      9.275680  
     117A      9.275681   118A      9.275686   119A      9.275686  
     120A      9.276039   121A      9.276559   122A      9.279109  
     123A      9.669308   124A      9.756936   125A      9.756944  
     126A      9.758806   127A      9.761976   128A      9.790710  
     129A      9.932940   130A     10.073393   131A     10.315064  
     132A     10.879026   133A     11.141939   134A     11.615069  
     135A     11.922915   136A     13.350571   137A     13.928443  
     138A     62.448654  

    Final Occupation by Irrep:
              A 
    DOCC [     5 ]
    NA   [     5 ]
    NB   [     5 ]

  @DF-RHF Final Energy:   -99.45081351051469

   => Energetics <=

    Nuclear Repulsion Energy =              0.0000000000000000
    One-Electron Energy =                -143.9962503385467869
    Two-Electron Energy =                  44.5454368280320878
    Total Energy =                        -99.4508135105147062

Computation Completed


Properties will be evaluated at   0.000000,   0.000000,   0.000000 [a0]

Properties computed using the SCF density matrix


 Multipole Moments:

 ------------------------------------------------------------------------------------
     Multipole            Electronic (a.u.)      Nuclear  (a.u.)        Total (a.u.)
 ------------------------------------------------------------------------------------

 L = 1.  Multiply by 2.5417464519 to convert [e a0] to [Debye]
 Dipole X            :        -91.7040111           82.5337923           -9.1702188
 Dipole Y            :          0.0002803            0.0000000            0.0002803
 Dipole Z            :          0.0000000            0.0000000            0.0000000
 Magnitude           :                                                    9.1702188

 ------------------------------------------------------------------------------------

*** tstop() called on moses-razer at Fri Dec 29 17:20:14 2023
Module time:
	user time   =       3.13 seconds =       0.05 minutes
	system time =       0.12 seconds =       0.00 minutes
	total time  =          1 seconds =       0.02 minutes
Total time:
	user time   =       3.13 seconds =       0.05 minutes
	system time =       0.12 seconds =       0.00 minutes
	total time  =          1 seconds =       0.02 minutes

*** tstart() called on moses-razer
*** at Fri Dec 29 17:20:14 2023


  //>>>>>>>>>>>>>>>>>>>>>>>>>>>>>>>>>>>//
  //               DFMP2               //
  //<<<<<<<<<<<<<<<<<<<<<<<<<<<<<<<<<<<//

   => Loading Basis Set <=

    Name: (AUG-CC-PVTZ AUX)
    Role: RIFIT
    Keyword: DF_BASIS_MP2
    atoms 1   entry O          line   264 file /home/kchung25/anaconda3/envs/p415env/share/psi4/basis/aug-cc-pvtz-ri.gbs 
    atoms 2-3 entry H          line    30 file /home/kchung25/anaconda3/envs/p415env/share/psi4/basis/aug-cc-pvtz-ri.gbs 
    atoms 4   entry F          line   322 file /home/kchung25/anaconda3/envs/p415env/share/psi4/basis/aug-cc-pvtz-ri.gbs 

	 --------------------------------------------------------
	                          DF-MP2                         
	      2nd-Order Density-Fitted Moller-Plesset Theory     
	              RMP2 Wavefunction,   6 Threads             
	                                                         
	        Rob Parrish, Justin Turney, Andy Simmonett,      
	           Ed Hohenstein, and C. David Sherrill          
	 --------------------------------------------------------

   => Auxiliary Basis Set <=

  Basis Set: (AUG-CC-PVTZ AUX)
    Blend: AUG-CC-PVTZ-RI
    Number of shells: 84
    Number of basis functions: 304
    Number of Cartesian functions: 382
    Spherical Harmonics?: true
    Max angular momentum: 4

	 --------------------------------------------------------
	                 NBF =   138, NAUX =   304
	 --------------------------------------------------------
	   CLASS    FOCC     OCC    AOCC    AVIR     VIR    FVIR
	   PAIRS       0       5       5     133     133       0
	 --------------------------------------------------------

	-----------------------------------------------------------
	 ==================> DF-MP2 Energies <==================== 
	-----------------------------------------------------------
	 Reference Energy          =     -99.4508135105146920 [Eh]
	 Singles Energy            =      -0.0000000000000000 [Eh]
	 Same-Spin Energy          =      -0.0815668032149518 [Eh]
	 Opposite-Spin Energy      =      -0.2262401616838545 [Eh]
	 Correlation Energy        =      -0.3078069648988063 [Eh]
	 Total Energy              =     -99.7586204754134940 [Eh]
	-----------------------------------------------------------
	 ================> DF-SCS-MP2 Energies <================== 
	-----------------------------------------------------------
	 SCS Same-Spin Scale       =       0.3333333333333333 [-]
	 SCS Opposite-Spin Scale   =       1.2000000000000000 [-]
	 SCS Same-Spin Energy      =      -0.0271889344049839 [Eh]
	 SCS Opposite-Spin Energy  =      -0.2714881940206254 [Eh]
	 SCS Correlation Energy    =      -0.2986771284256093 [Eh]
	 SCS Total Energy          =     -99.7494906389403013 [Eh]
	-----------------------------------------------------------


*** tstop() called on moses-razer at Fri Dec 29 17:20:14 2023
Module time:
	user time   =       0.91 seconds =       0.02 minutes
	system time =       0.04 seconds =       0.00 minutes
	total time  =          0 seconds =       0.00 minutes
Total time:
	user time   =       4.05 seconds =       0.07 minutes
	system time =       0.16 seconds =       0.00 minutes
	total time  =          1 seconds =       0.02 minutes

    Psi4 stopped on: Friday, 29 December 2023 05:20PM
    Psi4 wall time for execution: 0:00:00.77


    -----------------------------------------------------------------------
          Psi4: An Open-Source Ab Initio Electronic Structure Package
                               Psi4 1.9 release

                         Git: Rev {} zzzzzzz 


    D. G. A. Smith, L. A. Burns, A. C. Simmonett, R. M. Parrish,
    M. C. Schieber, R. Galvelis, P. Kraus, H. Kruse, R. Di Remigio,
    A. Alenaizan, A. M. James, S. Lehtola, J. P. Misiewicz, M. Scheurer,
    R. A. Shaw, J. B. Schriber, Y. Xie, Z. L. Glick, D. A. Sirianni,
    J. S. O'Brien, J. M. Waldrop, A. Kumar, E. G. Hohenstein,
    B. P. Pritchard, B. R. Brooks, H. F. Schaefer III, A. Yu. Sokolov,
    K. Patkowski, A. E. DePrince III, U. Bozkaya, R. A. King,
    F. A. Evangelista, J. M. Turney, T. D. Crawford, C. D. Sherrill,
    J. Chem. Phys. 152(18) 184108 (2020). https://doi.org/10.1063/5.0006002

                            Additional Code Authors
    E. T. Seidl, C. L. Janssen, E. F. Valeev, M. L. Leininger,
    J. F. Gonthier, R. M. Richard, H. R. McAlexander, M. Saitow, X. Wang,
    P. Verma, M. H. Lechner, A. Jiang, S. Behnle, A. G. Heide,
    M. F. Herbst, and D. L. Poole

             Previous Authors, Complete List of Code Contributors,
                       and Citations for Specific Modules
    https://github.com/psi4/psi4/blob/master/codemeta.json
    https://github.com/psi4/psi4/graphs/contributors
    http://psicode.org/psi4manual/master/introduction.html#citing-psifour

    -----------------------------------------------------------------------


    Psi4 started on: Friday, 29 December 2023 05:20PM

    Process ID: 155807
    Host:       moses-razer
    PSIDATADIR: /home/kchung25/anaconda3/envs/psi4_19/share/psi4
    Memory:     55.9 GiB
    Threads:    6
    
  ==> Input QCSchema <==

--------------------------------------------------------------------------
{'driver': 'energy',
 'extras': {'psiapi': True, 'wfn_qcvars_only': True},
 'id': None,
 'keywords': {'SCF_TYPE': 'DF', 'function_kwargs': {}},
 'model': {'basis': 'aug-cc-pvtz', 'method': 'mp2'},
 'molecule': {'atom_labels': ['', '', '', ''],
              'atomic_numbers': [8, 1, 1, 9],
              'extras': {},
              'fix_com': True,
              'fix_orientation': True,
              'fix_symmetry': 'c1',
              'fragment_charges': [0.0, 0.0],
              'fragment_multiplicities': [1, 1],
              'fragments': [[0, 1, 2], [3]],
              'geometry': [0.0, 0.0, 0.0, -0.30058550669369855, 1.784398460403185, 0.0, 2.0031626053168106,
                           -0.0693926330529369, 0.0, 9.170421367646988, 0.0, 0.0],
              'mass_numbers': [16, 1, 1, 19],
              'masses': [15.99491461957, 1.00782503223, 1.00782503223, 18.99840316273],
              'molecular_charge': 0.0,
              'molecular_multiplicity': 1,
              'name': 'dimer',
              'provenance': {'creator': 'QCElemental',
                             'routine': 'qcelemental.molparse.from_string',
                             'version': '0.27.1'},
              'real': [True, True, True, False],
              'schema_name': 'qcschema_molecule',
              'schema_version': 2,
              'symbols': ['O', 'H', 'H', 'F'],
              'validated': True},
 'protocols': {'stdout': True},
 'provenance': {'creator': 'QCElemental', 'routine': 'qcelemental.models.results', 'version': '0.27.1'},
 'schema_name': 'qcschema_input',
 'schema_version': 1}
--------------------------------------------------------------------------

Scratch directory: /scratch/
   => Libint2 <=

    Primary   basis highest AM E, G, H:  5, 4, 3
    Auxiliary basis highest AM E, G, H:  6, 5, 4
    Onebody   basis highest AM E, G, H:  6, 5, 4
    Solid Harmonics ordering:            gaussian

*** tstart() called on moses-razer
*** at Fri Dec 29 17:20:14 2023

   => Loading Basis Set <=

    Name: AUG-CC-PVTZ
    Role: ORBITAL
    Keyword: BASIS
    atoms 1   entry O          line   331 file /home/kchung25/anaconda3/envs/p415env/share/psi4/basis/aug-cc-pvtz.gbs 
    atoms 2-3 entry H          line    40 file /home/kchung25/anaconda3/envs/p415env/share/psi4/basis/aug-cc-pvtz.gbs 
    atoms 4   entry F          line   377 file /home/kchung25/anaconda3/envs/p415env/share/psi4/basis/aug-cc-pvtz.gbs 


         ---------------------------------------------------------
                                   SCF
               by Justin Turney, Rob Parrish, Andy Simmonett
                          and Daniel G. A. Smith
                              RHF Reference
                        6 Threads,  57220 MiB Core
         ---------------------------------------------------------

  ==> Geometry <==

    Molecular point group: c1
    Full point group: Cs

    Geometry (in Bohr), charge = 0, multiplicity = 1:

       Center              X                  Y                   Z               Mass       
    ------------   -----------------  -----------------  -----------------  -----------------
         O            0.000000000000     0.000000000000     0.000000000000    15.994914619570
         H           -0.300585506694     1.784398460403     0.000000000000     1.007825032230
         H            2.003162605317    -0.069392633053     0.000000000000     1.007825032230
      Gh(F)           9.170421367647     0.000000000000     0.000000000000    18.998403162730

  Running in c1 symmetry.

  Rotational constants: A =     18.73304  B =      0.03758  C =      0.03751 [cm^-1]
  Rotational constants: A = 561602.43442  B =   1126.66966  C =   1124.41389 [MHz]
  Nuclear repulsion =    8.750489033032350

  Charge       = 0
  Multiplicity = 1
  Electrons    = 10
  Nalpha       = 5
  Nbeta        = 5

  ==> Algorithm <==

  SCF Algorithm Type is DF.
  DIIS enabled.
  MOM disabled.
  Fractional occupation disabled.
  Guess Type is SAD.
  Energy threshold   = 1.00e-08
  Density threshold  = 1.00e-08
  Integral threshold = 1.00e-12

  ==> Primary Basis <==

  Basis Set: AUG-CC-PVTZ
    Blend: AUG-CC-PVTZ
    Number of shells: 46
    Number of basis functions: 138
    Number of Cartesian functions: 160
    Spherical Harmonics?: true
    Max angular momentum: 3

   => Loading Basis Set <=

    Name: (AUG-CC-PVTZ AUX)
    Role: JKFIT
    Keyword: DF_BASIS_SCF
    atoms 1   entry O          line   286 file /home/kchung25/anaconda3/envs/p415env/share/psi4/basis/aug-cc-pvtz-jkfit.gbs 
    atoms 2-3 entry H          line    70 file /home/kchung25/anaconda3/envs/p415env/share/psi4/basis/aug-cc-pvtz-jkfit.gbs 
    atoms 4   entry F          line   348 file /home/kchung25/anaconda3/envs/p415env/share/psi4/basis/aug-cc-pvtz-jkfit.gbs 

  ==> Integral Setup <==

  DFHelper Memory: AOs need 0.042 GiB; user supplied 41.910 GiB. 
  Using in-core AOs.

  ==> MemDFJK: Density-Fitted J/K Matrices <==

    J tasked:                   Yes
    K tasked:                   Yes
    wK tasked:                   No
    OpenMP threads:               6
    Memory [MiB]:             42915
    Algorithm:                 Core
    Schwarz Cutoff:           1E-12
    Mask sparsity (%):      14.2302
    Fitting Condition:        1E-10

   => Auxiliary Basis Set <=

  Basis Set: (AUG-CC-PVTZ AUX)
    Blend: AUG-CC-PVTZ-JKFIT
    Number of shells: 88
    Number of basis functions: 300
    Number of Cartesian functions: 372
    Spherical Harmonics?: true
    Max angular momentum: 4

  Minimum eigenvalue in the overlap matrix is 3.9848911013E-04.
  Reciprocal condition number of the overlap matrix is 5.8731142929E-05.
    Using symmetric orthogonalization.

  ==> Pre-Iterations <==

  SCF Guess: Superposition of Atomic Densities via on-the-fly atomic UHF (no occupation information).

   -------------------------
    Irrep   Nso     Nmo    
   -------------------------
     A        138     138 
   -------------------------
    Total     138     138
   -------------------------

  ==> Iterations <==

                           Total Energy        Delta E     RMS |[F,P]|

   @DF-RHF iter SAD:   -75.41814222960086   -7.54181e+01   0.00000e+00 
   @DF-RHF iter   1:   -75.95991497276283   -5.41773e-01   3.39436e-03 ADIIS/DIIS
   @DF-RHF iter   2:   -76.01147101797925   -5.15560e-02   2.46305e-03 ADIIS/DIIS
   @DF-RHF iter   3:   -76.04804037499120   -3.65694e-02   1.69616e-04 ADIIS/DIIS
   @DF-RHF iter   4:   -76.04853101673669   -4.90642e-04   4.57310e-05 DIIS
   @DF-RHF iter   5:   -76.04857185631154   -4.08396e-05   1.12429e-05 DIIS
   @DF-RHF iter   6:   -76.04857563225345   -3.77594e-06   2.44419e-06 DIIS
   @DF-RHF iter   7:   -76.04857581902452   -1.86771e-07   4.06054e-07 DIIS
   @DF-RHF iter   8:   -76.04857582336105   -4.33653e-09   7.61820e-08 DIIS
   @DF-RHF iter   9:   -76.04857582349430   -1.33255e-10   2.16590e-08 DIIS
   @DF-RHF iter  10:   -76.04857582350513   -1.08287e-11   4.13302e-09 DIIS
  Energy and wave function converged.


  ==> Post-Iterations <==

    Orbital Energies [Eh]
    ---------------------

    Doubly Occupied:                                                      

       1A    -20.576900     2A     -1.332677     3A     -0.686450  
       4A     -0.579428     5A     -0.507563  

    Virtual:                                                              

       6A      0.027958     7A      0.046837     8A      0.126137  
       9A      0.131844    10A      0.150708    11A      0.162014  
      12A      0.173146    13A      0.173742    14A      0.180066  
      15A      0.206929    16A      0.248508    17A      0.260930  
      18A      0.274020    19A      0.298544    20A      0.319151  
      21A      0.373099    22A      0.448968    23A      0.484646  
      24A      0.593492    25A      0.660659    26A      0.703993  
      27A      0.717554    28A      0.727670    29A      0.734296  
      30A      0.797353    31A      0.799325    32A      0.814912  
      33A      0.825598    34A      0.844708    35A      0.900378  
      36A      0.907249    37A      0.915952    38A      0.918714  
      39A      0.921306    40A      0.948424    41A      0.948461  
      42A      0.954471    43A      0.957944    44A      0.979422  
      45A      1.009351    46A      1.038327    47A      1.076029  
      48A      1.079722    49A      1.112911    50A      1.167010  
      51A      1.194547    52A      1.293420    53A      1.484987  
      54A      1.527989    55A      1.559265    56A      1.797668  
      57A      1.840123    58A      1.891404    59A      2.102746  
      60A      2.257864    61A      2.309610    62A      2.331676  
      63A      2.413711    64A      2.418447    65A      2.440999  
      66A      2.519753    67A      2.702895    68A      2.725437  
      69A      2.740178    70A      2.817022    71A      2.852066  
      72A      3.007228    73A      3.007365    74A      3.011365  
      75A      3.067693    76A      3.073644    77A      3.073648  
      78A      3.074137    79A      3.074141    80A      3.074191  
      81A      3.075259    82A      3.086341    83A      3.526902  
      84A      3.536036    85A      3.536078    86A      3.539212  
      87A      3.543528    88A      3.605112    89A      3.698197  
      90A      3.987339    91A      4.042256    92A      4.090180  
      93A      4.211682    94A      4.238038    95A      4.349898  
      96A      4.356459    97A      4.374916    98A      4.466277  
      99A      4.608499   100A      4.765085   101A      4.972342  
     102A      5.020948   103A      5.154652   104A      5.250093  
     105A      5.434117   106A      5.562978   107A      6.158857  
     108A      6.529650   109A      6.703001   110A      6.849289  
     111A      7.009929   112A      7.183867   113A      7.224349  
     114A      7.291480   115A      7.346384   116A      7.351625  
     117A      7.458219   118A      7.797439   119A      7.880168  
     120A      8.528510   121A      9.194795   122A     10.145265  
     123A     10.145266   124A     10.145472   125A     10.145473  
     126A     10.145513   127A     10.146032   128A     10.148948  
     129A     12.931933   130A     12.931940   131A     12.933649  
     132A     12.936318   133A     12.964217   134A     14.197534  
     135A     14.199019   136A     14.219208   137A     14.572183  
     138A     66.540873  

    Final Occupation by Irrep:
              A 
    DOCC [     5 ]
    NA   [     5 ]
    NB   [     5 ]

  @DF-RHF Final Energy:   -76.04857582350513

   => Energetics <=

    Nuclear Repulsion Energy =              8.7504890330323502
    One-Electron Energy =                -122.2320925112787506
    Two-Electron Energy =                  37.4330276547412666
    Total Energy =                        -76.0485758235051321

Computation Completed


Properties will be evaluated at   0.000000,   0.000000,   0.000000 [a0]

Properties computed using the SCF density matrix


 Multipole Moments:

 ------------------------------------------------------------------------------------
     Multipole            Electronic (a.u.)      Nuclear  (a.u.)        Total (a.u.)
 ------------------------------------------------------------------------------------

 L = 1.  Multiply by 2.5417464519 to convert [e a0] to [Debye]
 Dipole X            :         -1.1411979            1.7025771            0.5613792
 Dipole Y            :         -1.1219673            1.7150058            0.5930385
 Dipole Z            :          0.0000000            0.0000000            0.0000000
 Magnitude           :                                                    0.8166035

 ------------------------------------------------------------------------------------

*** tstop() called on moses-razer at Fri Dec 29 17:20:14 2023
Module time:
	user time   =       2.76 seconds =       0.05 minutes
	system time =       0.07 seconds =       0.00 minutes
	total time  =          0 seconds =       0.00 minutes
Total time:
	user time   =       7.10 seconds =       0.12 minutes
	system time =       0.23 seconds =       0.00 minutes
	total time  =          1 seconds =       0.02 minutes

*** tstart() called on moses-razer
*** at Fri Dec 29 17:20:14 2023


  //>>>>>>>>>>>>>>>>>>>>>>>>>>>>>>>>>>>//
  //               DFMP2               //
  //<<<<<<<<<<<<<<<<<<<<<<<<<<<<<<<<<<<//

   => Loading Basis Set <=

    Name: (AUG-CC-PVTZ AUX)
    Role: RIFIT
    Keyword: DF_BASIS_MP2
    atoms 1   entry O          line   264 file /home/kchung25/anaconda3/envs/p415env/share/psi4/basis/aug-cc-pvtz-ri.gbs 
    atoms 2-3 entry H          line    30 file /home/kchung25/anaconda3/envs/p415env/share/psi4/basis/aug-cc-pvtz-ri.gbs 
    atoms 4   entry F          line   322 file /home/kchung25/anaconda3/envs/p415env/share/psi4/basis/aug-cc-pvtz-ri.gbs 

	 --------------------------------------------------------
	                          DF-MP2                         
	      2nd-Order Density-Fitted Moller-Plesset Theory     
	              RMP2 Wavefunction,   6 Threads             
	                                                         
	        Rob Parrish, Justin Turney, Andy Simmonett,      
	           Ed Hohenstein, and C. David Sherrill          
	 --------------------------------------------------------

   => Auxiliary Basis Set <=

  Basis Set: (AUG-CC-PVTZ AUX)
    Blend: AUG-CC-PVTZ-RI
    Number of shells: 84
    Number of basis functions: 304
    Number of Cartesian functions: 382
    Spherical Harmonics?: true
    Max angular momentum: 4

	 --------------------------------------------------------
	                 NBF =   138, NAUX =   304
	 --------------------------------------------------------
	   CLASS    FOCC     OCC    AOCC    AVIR     VIR    FVIR
	   PAIRS       0       5       5     133     133       0
	 --------------------------------------------------------

	-----------------------------------------------------------
	 ==================> DF-MP2 Energies <==================== 
	-----------------------------------------------------------
	 Reference Energy          =     -76.0485758235051321 [Eh]
	 Singles Energy            =      -0.0000000000000000 [Eh]
	 Same-Spin Energy          =      -0.0692700034112178 [Eh]
	 Opposite-Spin Energy      =      -0.2182388880364043 [Eh]
	 Correlation Energy        =      -0.2875088914476221 [Eh]
	 Total Energy              =     -76.3360847149527473 [Eh]
	-----------------------------------------------------------
	 ================> DF-SCS-MP2 Energies <================== 
	-----------------------------------------------------------
	 SCS Same-Spin Scale       =       0.3333333333333333 [-]
	 SCS Opposite-Spin Scale   =       1.2000000000000000 [-]
	 SCS Same-Spin Energy      =      -0.0230900011370726 [Eh]
	 SCS Opposite-Spin Energy  =      -0.2618866656436851 [Eh]
	 SCS Correlation Energy    =      -0.2849766667807577 [Eh]
	 SCS Total Energy          =     -76.3335524902858964 [Eh]
	-----------------------------------------------------------


*** tstop() called on moses-razer at Fri Dec 29 17:20:15 2023
Module time:
	user time   =       0.88 seconds =       0.01 minutes
	system time =       0.03 seconds =       0.00 minutes
	total time  =          1 seconds =       0.02 minutes
Total time:
	user time   =       7.98 seconds =       0.13 minutes
	system time =       0.26 seconds =       0.00 minutes
	total time  =          2 seconds =       0.03 minutes

    Psi4 stopped on: Friday, 29 December 2023 05:20PM
    Psi4 wall time for execution: 0:00:00.66


    -----------------------------------------------------------------------
          Psi4: An Open-Source Ab Initio Electronic Structure Package
                               Psi4 1.9 release

                         Git: Rev {} zzzzzzz 


    D. G. A. Smith, L. A. Burns, A. C. Simmonett, R. M. Parrish,
    M. C. Schieber, R. Galvelis, P. Kraus, H. Kruse, R. Di Remigio,
    A. Alenaizan, A. M. James, S. Lehtola, J. P. Misiewicz, M. Scheurer,
    R. A. Shaw, J. B. Schriber, Y. Xie, Z. L. Glick, D. A. Sirianni,
    J. S. O'Brien, J. M. Waldrop, A. Kumar, E. G. Hohenstein,
    B. P. Pritchard, B. R. Brooks, H. F. Schaefer III, A. Yu. Sokolov,
    K. Patkowski, A. E. DePrince III, U. Bozkaya, R. A. King,
    F. A. Evangelista, J. M. Turney, T. D. Crawford, C. D. Sherrill,
    J. Chem. Phys. 152(18) 184108 (2020). https://doi.org/10.1063/5.0006002

                            Additional Code Authors
    E. T. Seidl, C. L. Janssen, E. F. Valeev, M. L. Leininger,
    J. F. Gonthier, R. M. Richard, H. R. McAlexander, M. Saitow, X. Wang,
    P. Verma, M. H. Lechner, A. Jiang, S. Behnle, A. G. Heide,
    M. F. Herbst, and D. L. Poole

             Previous Authors, Complete List of Code Contributors,
                       and Citations for Specific Modules
    https://github.com/psi4/psi4/blob/master/codemeta.json
    https://github.com/psi4/psi4/graphs/contributors
    http://psicode.org/psi4manual/master/introduction.html#citing-psifour

    -----------------------------------------------------------------------


    Psi4 started on: Friday, 29 December 2023 05:20PM

    Process ID: 155807
    Host:       moses-razer
    PSIDATADIR: /home/kchung25/anaconda3/envs/psi4_19/share/psi4
    Memory:     55.9 GiB
    Threads:    6
    
  ==> Input QCSchema <==

--------------------------------------------------------------------------
{'driver': 'energy',
 'extras': {'psiapi': True, 'wfn_qcvars_only': True},
 'id': None,
 'keywords': {'SCF_TYPE': 'DF', 'function_kwargs': {}},
 'model': {'basis': 'aug-cc-pvtz', 'method': 'mp2'},
 'molecule': {'atom_labels': ['', '', '', ''],
              'atomic_numbers': [8, 1, 1, 9],
              'extras': {},
              'fix_com': True,
              'fix_orientation': True,
              'fix_symmetry': 'c1',
              'fragment_charges': [0.0, -1.0],
              'fragment_multiplicities': [1, 1],
              'fragments': [[0, 1, 2], [3]],
              'geometry': [0.0, 0.0, 0.0, -0.30058550669369855, 1.784398460403185, 0.0, 2.0031626053168106,
                           -0.0693926330529369, 0.0, 9.170421367646988, 0.0, 0.0],
              'mass_numbers': [16, 1, 1, 19],
              'masses': [15.99491461957, 1.00782503223, 1.00782503223, 18.99840316273],
              'molecular_charge': -1.0,
              'molecular_multiplicity': 1,
              'name': 'dimer',
              'provenance': {'creator': 'QCElemental',
                             'routine': 'qcelemental.molparse.from_string',
                             'version': '0.27.1'},
              'real': [True, True, True, True],
              'schema_name': 'qcschema_molecule',
              'schema_version': 2,
              'symbols': ['O', 'H', 'H', 'F'],
              'validated': True},
 'protocols': {'stdout': True},
 'provenance': {'creator': 'QCElemental', 'routine': 'qcelemental.models.results', 'version': '0.27.1'},
 'schema_name': 'qcschema_input',
 'schema_version': 1}
--------------------------------------------------------------------------

Scratch directory: /scratch/
   => Libint2 <=

    Primary   basis highest AM E, G, H:  5, 4, 3
    Auxiliary basis highest AM E, G, H:  6, 5, 4
    Onebody   basis highest AM E, G, H:  6, 5, 4
    Solid Harmonics ordering:            gaussian

*** tstart() called on moses-razer
*** at Fri Dec 29 17:20:15 2023

   => Loading Basis Set <=

    Name: AUG-CC-PVTZ
    Role: ORBITAL
    Keyword: BASIS
    atoms 1   entry O          line   331 file /home/kchung25/anaconda3/envs/p415env/share/psi4/basis/aug-cc-pvtz.gbs 
    atoms 2-3 entry H          line    40 file /home/kchung25/anaconda3/envs/p415env/share/psi4/basis/aug-cc-pvtz.gbs 
    atoms 4   entry F          line   377 file /home/kchung25/anaconda3/envs/p415env/share/psi4/basis/aug-cc-pvtz.gbs 


         ---------------------------------------------------------
                                   SCF
               by Justin Turney, Rob Parrish, Andy Simmonett
                          and Daniel G. A. Smith
                              RHF Reference
                        6 Threads,  57220 MiB Core
         ---------------------------------------------------------

  ==> Geometry <==

    Molecular point group: c1
    Full point group: Cs

    Geometry (in Bohr), charge = -1, multiplicity = 1:

       Center              X                  Y                   Z               Mass       
    ------------   -----------------  -----------------  -----------------  -----------------
         O            0.000000000000     0.000000000000     0.000000000000    15.994914619570
         H           -0.300585506694     1.784398460403     0.000000000000     1.007825032230
         H            2.003162605317    -0.069392633053     0.000000000000     1.007825032230
         F            9.170421367647     0.000000000000     0.000000000000    18.998403162730

  Running in c1 symmetry.

  Rotational constants: A =     18.73304  B =      0.03758  C =      0.03751 [cm^-1]
  Rotational constants: A = 561602.43442  B =   1126.66966  C =   1124.41389 [MHz]
  Nuclear repulsion =   18.791308766971728

  Charge       = -1
  Multiplicity = 1
  Electrons    = 20
  Nalpha       = 10
  Nbeta        = 10

  ==> Algorithm <==

  SCF Algorithm Type is DF.
  DIIS enabled.
  MOM disabled.
  Fractional occupation disabled.
  Guess Type is SAD.
  Energy threshold   = 1.00e-08
  Density threshold  = 1.00e-08
  Integral threshold = 1.00e-12

  ==> Primary Basis <==

  Basis Set: AUG-CC-PVTZ
    Blend: AUG-CC-PVTZ
    Number of shells: 46
    Number of basis functions: 138
    Number of Cartesian functions: 160
    Spherical Harmonics?: true
    Max angular momentum: 3

   => Loading Basis Set <=

    Name: (AUG-CC-PVTZ AUX)
    Role: JKFIT
    Keyword: DF_BASIS_SCF
    atoms 1   entry O          line   286 file /home/kchung25/anaconda3/envs/p415env/share/psi4/basis/aug-cc-pvtz-jkfit.gbs 
    atoms 2-3 entry H          line    70 file /home/kchung25/anaconda3/envs/p415env/share/psi4/basis/aug-cc-pvtz-jkfit.gbs 
    atoms 4   entry F          line   348 file /home/kchung25/anaconda3/envs/p415env/share/psi4/basis/aug-cc-pvtz-jkfit.gbs 

  ==> Integral Setup <==

  DFHelper Memory: AOs need 0.042 GiB; user supplied 41.910 GiB. 
  Using in-core AOs.

  ==> MemDFJK: Density-Fitted J/K Matrices <==

    J tasked:                   Yes
    K tasked:                   Yes
    wK tasked:                   No
    OpenMP threads:               6
    Memory [MiB]:             42915
    Algorithm:                 Core
    Schwarz Cutoff:           1E-12
    Mask sparsity (%):      14.2302
    Fitting Condition:        1E-10

   => Auxiliary Basis Set <=

  Basis Set: (AUG-CC-PVTZ AUX)
    Blend: AUG-CC-PVTZ-JKFIT
    Number of shells: 88
    Number of basis functions: 300
    Number of Cartesian functions: 372
    Spherical Harmonics?: true
    Max angular momentum: 4

  Minimum eigenvalue in the overlap matrix is 3.9848911013E-04.
  Reciprocal condition number of the overlap matrix is 5.8731142929E-05.
    Using symmetric orthogonalization.

  ==> Pre-Iterations <==

  SCF Guess: Superposition of Atomic Densities via on-the-fly atomic UHF (no occupation information).

   -------------------------
    Irrep   Nso     Nmo    
   -------------------------
     A        138     138 
   -------------------------
    Total     138     138
   -------------------------

  ==> Iterations <==

                           Total Energy        Delta E     RMS |[F,P]|

   @DF-RHF iter SAD:  -174.24388665013961   -1.74244e+02   0.00000e+00 
   @DF-RHF iter   1:  -175.31306307185804   -1.06918e+00   5.18130e-03 ADIIS/DIIS
   @DF-RHF iter   2:  -175.39842038099576   -8.53573e-02   4.52213e-03 ADIIS/DIIS
   @DF-RHF iter   3:  -175.50881980483757   -1.10399e-01   2.75144e-04 ADIIS/DIIS
   @DF-RHF iter   4:  -175.50942278579919   -6.02981e-04   1.58799e-04 ADIIS/DIIS
   @DF-RHF iter   5:  -175.50960184806033   -1.79062e-04   2.76206e-05 DIIS
   @DF-RHF iter   6:  -175.50961403636614   -1.21883e-05   7.03231e-06 DIIS
   @DF-RHF iter   7:  -175.50961505785273   -1.02149e-06   1.54906e-06 DIIS
   @DF-RHF iter   8:  -175.50961512238061   -6.45279e-08   3.43508e-07 DIIS
   @DF-RHF iter   9:  -175.50961512492847   -2.54786e-09   5.57149e-08 DIIS
   @DF-RHF iter  10:  -175.50961512499694   -6.84679e-11   1.15210e-08 DIIS
   @DF-RHF iter  11:  -175.50961512500015   -3.21165e-12   2.56555e-09 DIIS
  Energy and wave function converged.


  ==> Post-Iterations <==

    Orbital Energies [Eh]
    ---------------------

    Doubly Occupied:                                                      

       1A    -25.844982     2A    -20.461105     3A     -1.218444  
       4A     -1.087288     5A     -0.571699     6A     -0.466722  
       7A     -0.393779     8A     -0.192253     9A     -0.192247  
      10A     -0.192119  

    Virtual:                                                              

      11A      0.118122    12A      0.177894    13A      0.237816  
      14A      0.256645    15A      0.269663    16A      0.305787  
      17A      0.340253    18A      0.358263    19A      0.376249  
      20A      0.405321    21A      0.413483    22A      0.437588  
      23A      0.453790    24A      0.458383    25A      0.507589  
      26A      0.529268    27A      0.563723    28A      0.656272  
      29A      0.724482    30A      0.782832    31A      0.813358  
      32A      0.836995    33A      0.848941    34A      0.938255  
      35A      0.965183    36A      1.008883    37A      1.024471  
      38A      1.024930    39A      1.051286    40A      1.053314  
      41A      1.065829    42A      1.134260    43A      1.187535  
      44A      1.187685    45A      1.210440    46A      1.218455  
      47A      1.218887    48A      1.228748    49A      1.243758  
      50A      1.271808    51A      1.286292    52A      1.345524  
      53A      1.404544    54A      1.520401    55A      1.521621  
      56A      1.547407    57A      1.608034    58A      1.644268  
      59A      1.669913    60A      1.916849    61A      1.957700  
      62A      2.007878    63A      2.136476    64A      2.217564  
      65A      2.369668    66A      2.420926    67A      2.443517  
      68A      2.524763    69A      2.530385    70A      2.556398  
      71A      2.629407    72A      2.816350    73A      2.841948  
      74A      2.852245    75A      2.929710    76A      2.966395  
      77A      3.273376    78A      3.273396    79A      3.276333  
      80A      3.280658    81A      3.308581    82A      3.320914  
      83A      3.320918    84A      3.321372    85A      3.321452  
      86A      3.321455    87A      3.322515    88A      3.345593  
      89A      3.659105    90A      3.808443    91A      4.107056  
      92A      4.157197    93A      4.211829    94A      4.325414  
      95A      4.353230    96A      4.469395    97A      4.473293  
      98A      4.489201    99A      4.585896   100A      4.729127  
     101A      4.880426   102A      5.092032   103A      5.141103  
     104A      5.275011   105A      5.361056   106A      5.546806  
     107A      5.664833   108A      5.665735   109A      5.677397  
     110A      5.686044   111A      6.272827   112A      6.644022  
     113A      6.816556   114A      6.963323   115A      7.125479  
     116A      7.298311   117A      7.338156   118A      7.403792  
     119A      7.460456   120A      7.465841   121A      7.572430  
     122A      7.912013   123A      7.993784   124A      8.644907  
     125A      9.264437   126A      9.264439   127A      9.264604  
     128A      9.264768   129A      9.264769   130A      9.265094  
     131A      9.267536   132A      9.745890   133A      9.745897  
     134A      9.747586   135A      9.750469   136A      9.779289  
     137A     11.129377   138A     14.686345  

    Final Occupation by Irrep:
              A 
    DOCC [    10 ]
    NA   [    10 ]
    NB   [    10 ]

  @DF-RHF Final Energy:  -175.50961512500015

   => Energetics <=

    Nuclear Repulsion Energy =             18.7913087669717278
    One-Electron Energy =                -287.3605735408552277
    Two-Electron Energy =                  93.0596496488833367
    Total Energy =                       -175.5096151250001526

Computation Completed


Properties will be evaluated at   0.000000,   0.000000,   0.000000 [a0]

Properties computed using the SCF density matrix


 Multipole Moments:

 ------------------------------------------------------------------------------------
     Multipole            Electronic (a.u.)      Nuclear  (a.u.)        Total (a.u.)
 ------------------------------------------------------------------------------------

 L = 1.  Multiply by 2.5417464519 to convert [e a0] to [Debye]
 Dipole X            :        -92.6801233           84.2363694           -8.4437538
 Dipole Y            :         -1.1361573            1.7150058            0.5788485
 Dipole Z            :          0.0000000            0.0000000            0.0000000
 Magnitude           :                                                    8.4635716

 ------------------------------------------------------------------------------------

*** tstop() called on moses-razer at Fri Dec 29 17:20:15 2023
Module time:
	user time   =       3.23 seconds =       0.05 minutes
	system time =       0.07 seconds =       0.00 minutes
	total time  =          0 seconds =       0.00 minutes
Total time:
	user time   =      11.50 seconds =       0.19 minutes
	system time =       0.33 seconds =       0.01 minutes
	total time  =          2 seconds =       0.03 minutes

*** tstart() called on moses-razer
*** at Fri Dec 29 17:20:15 2023


  //>>>>>>>>>>>>>>>>>>>>>>>>>>>>>>>>>>>//
  //               DFMP2               //
  //<<<<<<<<<<<<<<<<<<<<<<<<<<<<<<<<<<<//

   => Loading Basis Set <=

    Name: (AUG-CC-PVTZ AUX)
    Role: RIFIT
    Keyword: DF_BASIS_MP2
    atoms 1   entry O          line   264 file /home/kchung25/anaconda3/envs/p415env/share/psi4/basis/aug-cc-pvtz-ri.gbs 
    atoms 2-3 entry H          line    30 file /home/kchung25/anaconda3/envs/p415env/share/psi4/basis/aug-cc-pvtz-ri.gbs 
    atoms 4   entry F          line   322 file /home/kchung25/anaconda3/envs/p415env/share/psi4/basis/aug-cc-pvtz-ri.gbs 

	 --------------------------------------------------------
	                          DF-MP2                         
	      2nd-Order Density-Fitted Moller-Plesset Theory     
	              RMP2 Wavefunction,   6 Threads             
	                                                         
	        Rob Parrish, Justin Turney, Andy Simmonett,      
	           Ed Hohenstein, and C. David Sherrill          
	 --------------------------------------------------------

   => Auxiliary Basis Set <=

  Basis Set: (AUG-CC-PVTZ AUX)
    Blend: AUG-CC-PVTZ-RI
    Number of shells: 84
    Number of basis functions: 304
    Number of Cartesian functions: 382
    Spherical Harmonics?: true
    Max angular momentum: 4

	 --------------------------------------------------------
	                 NBF =   138, NAUX =   304
	 --------------------------------------------------------
	   CLASS    FOCC     OCC    AOCC    AVIR     VIR    FVIR
	   PAIRS       0      10      10     128     128       0
	 --------------------------------------------------------

	-----------------------------------------------------------
	 ==================> DF-MP2 Energies <==================== 
	-----------------------------------------------------------
	 Reference Energy          =    -175.5096151250001526 [Eh]
	 Singles Energy            =      -0.0000000000000000 [Eh]
	 Same-Spin Energy          =      -0.1509247458486807 [Eh]
	 Opposite-Spin Energy      =      -0.4441731442913156 [Eh]
	 Correlation Energy        =      -0.5950978901399964 [Eh]
	 Total Energy              =    -176.1047130151401348 [Eh]
	-----------------------------------------------------------
	 ================> DF-SCS-MP2 Energies <================== 
	-----------------------------------------------------------
	 SCS Same-Spin Scale       =       0.3333333333333333 [-]
	 SCS Opposite-Spin Scale   =       1.2000000000000000 [-]
	 SCS Same-Spin Energy      =      -0.0503082486162269 [Eh]
	 SCS Opposite-Spin Energy  =      -0.5330077731495787 [Eh]
	 SCS Correlation Energy    =      -0.5833160217658057 [Eh]
	 SCS Total Energy          =    -176.0929311467659488 [Eh]
	-----------------------------------------------------------


*** tstop() called on moses-razer at Fri Dec 29 17:20:15 2023
Module time:
	user time   =       1.07 seconds =       0.02 minutes
	system time =       0.02 seconds =       0.00 minutes
	total time  =          0 seconds =       0.00 minutes
Total time:
	user time   =      12.58 seconds =       0.21 minutes
	system time =       0.35 seconds =       0.01 minutes
	total time  =          2 seconds =       0.03 minutes

    Psi4 stopped on: Friday, 29 December 2023 05:20PM
    Psi4 wall time for execution: 0:00:00.77


  //>>>>>>>>>>>>>>>>>>>>>>>>>>>>>>>>>>>//
  //          ManyBody Results         //
  //<<<<<<<<<<<<<<<<<<<<<<<<<<<<<<<<<<<//


   ==> N-Body: Counterpoise Corrected (CP) energies <==

        n-Body     Total Energy            Interaction Energy                          N-body Contribution to Interaction Energy
                   [Eh]                    [Eh]                  [kcal/mol]            [Eh]                  [kcal/mol]
             1  N/A                         0.000000000000        0.000000000000        0.000000000000        0.000000000000
  FULL/RTN   2  N/A                        -0.010007824774       -6.280004857515       -0.010007824774       -6.280004857515


    Psi4 stopped on: Friday, 29 December 2023 05:20PM
    Psi4 wall time for execution: 0:00:03.82

*** Psi4 exiting successfully. Buy a developer a beer!
