
    -----------------------------------------------------------------------
          Psi4: An Open-Source Ab Initio Electronic Structure Package
                               Psi4 1.9 release

                         Git: Rev {} zzzzzzz 


    D. G. A. Smith, L. A. Burns, A. C. Simmonett, R. M. Parrish,
    M. C. Schieber, R. Galvelis, P. Kraus, H. Kruse, R. Di Remigio,
    A. Alenaizan, A. M. James, S. Lehtola, J. P. Misiewicz, M. Scheurer,
    R. A. Shaw, J. B. Schriber, Y. Xie, Z. L. Glick, D. A. Sirianni,
    J. S. O'Brien, J. M. Waldrop, A. Kumar, E. G. Hohenstein,
    B. P. Pritchard, B. R. Brooks, H. F. Schaefer III, A. Yu. Sokolov,
    K. Patkowski, A. E. DePrince III, U. Bozkaya, R. A. King,
    F. A. Evangelista, J. M. Turney, T. D. Crawford, C. D. Sherrill,
    J. Chem. Phys. 152(18) 184108 (2020). https://doi.org/10.1063/5.0006002

                            Additional Code Authors
    E. T. Seidl, C. L. Janssen, E. F. Valeev, M. L. Leininger,
    J. F. Gonthier, R. M. Richard, H. R. McAlexander, M. Saitow, X. Wang,
    P. Verma, M. H. Lechner, A. Jiang, S. Behnle, A. G. Heide,
    M. F. Herbst, and D. L. Poole

             Previous Authors, Complete List of Code Contributors,
                       and Citations for Specific Modules
    https://github.com/psi4/psi4/blob/master/codemeta.json
    https://github.com/psi4/psi4/graphs/contributors
    http://psicode.org/psi4manual/master/introduction.html#citing-psifour

    -----------------------------------------------------------------------


    Psi4 started on: Saturday, 30 December 2023 04:44PM

    Process ID: 208650
    Host:       moses-razer
    PSIDATADIR: /home/kchung25/anaconda3/envs/psi4_19/share/psi4
    Memory:     500.0 MiB
    Threads:    6
    
  ==> Input File <==

--------------------------------------------------------------------------
MEMORY 60 GB

molecule dimer {
1 1
Li     0.000000     0.000000     0.000000
--
0 1
O      1.670181     0.000000     0.000000
H      2.255185     0.763729     0.000000
H      2.255185    -0.763729     0.000000
O     -1.670181     0.000000     0.000000
H     -2.255184    -0.763729     0.000000
H     -2.255184     0.763729     0.000000

units ang
no_reorient
no_com
symmetry c1
}

set {
basis        aug-cc-pVTZ
scf_type     df
}

energy("mp2", bsse_type="cp")
--------------------------------------------------------------------------

  Memory set to  55.879 GiB by Python driver.

Scratch directory: /scratch/

  //>>>>>>>>>>>>>>>>>>>>>>>>>>>>>>>>>>>>>//
  // ManyBody Setup: N-Body Levels [1, 2]//
  //<<<<<<<<<<<<<<<<<<<<<<<<<<<<<<<<<<<<<//

        Number of 1-body computations:     2
        Number of 2-body computations:     1

    -----------------------------------------------------------------------
          Psi4: An Open-Source Ab Initio Electronic Structure Package
                               Psi4 1.9 release

                         Git: Rev {} zzzzzzz 


    D. G. A. Smith, L. A. Burns, A. C. Simmonett, R. M. Parrish,
    M. C. Schieber, R. Galvelis, P. Kraus, H. Kruse, R. Di Remigio,
    A. Alenaizan, A. M. James, S. Lehtola, J. P. Misiewicz, M. Scheurer,
    R. A. Shaw, J. B. Schriber, Y. Xie, Z. L. Glick, D. A. Sirianni,
    J. S. O'Brien, J. M. Waldrop, A. Kumar, E. G. Hohenstein,
    B. P. Pritchard, B. R. Brooks, H. F. Schaefer III, A. Yu. Sokolov,
    K. Patkowski, A. E. DePrince III, U. Bozkaya, R. A. King,
    F. A. Evangelista, J. M. Turney, T. D. Crawford, C. D. Sherrill,
    J. Chem. Phys. 152(18) 184108 (2020). https://doi.org/10.1063/5.0006002

                            Additional Code Authors
    E. T. Seidl, C. L. Janssen, E. F. Valeev, M. L. Leininger,
    J. F. Gonthier, R. M. Richard, H. R. McAlexander, M. Saitow, X. Wang,
    P. Verma, M. H. Lechner, A. Jiang, S. Behnle, A. G. Heide,
    M. F. Herbst, and D. L. Poole

             Previous Authors, Complete List of Code Contributors,
                       and Citations for Specific Modules
    https://github.com/psi4/psi4/blob/master/codemeta.json
    https://github.com/psi4/psi4/graphs/contributors
    http://psicode.org/psi4manual/master/introduction.html#citing-psifour

    -----------------------------------------------------------------------


    Psi4 started on: Saturday, 30 December 2023 04:44PM

    Process ID: 208650
    Host:       moses-razer
    PSIDATADIR: /home/kchung25/anaconda3/envs/psi4_19/share/psi4
    Memory:     55.9 GiB
    Threads:    6
    
  ==> Input QCSchema <==

--------------------------------------------------------------------------
{'driver': 'energy',
 'extras': {'psiapi': True, 'wfn_qcvars_only': True},
 'id': None,
 'keywords': {'SCF_TYPE': 'DF', 'function_kwargs': {}},
 'model': {'basis': 'aug-cc-pvtz', 'method': 'mp2'},
 'molecule': {'atom_labels': ['', '', '', '', '', '', ''],
              'atomic_numbers': [3, 8, 1, 1, 8, 1, 1],
              'extras': {},
              'fix_com': True,
              'fix_orientation': True,
              'fix_symmetry': 'c1',
              'fragment_charges': [0.0, 0.0],
              'fragment_multiplicities': [1, 1],
              'fragments': [[0], [1, 2, 3, 4, 5, 6]],
              'geometry': [0.0, 0.0, 0.0, 3.1561846699432805, 0.0, 0.0, 4.2616820122406125, 1.4432386440697815, 0.0,
                           4.2616820122406125, -1.4432386440697815, 0.0, -3.1561846699432805, 0.0, 0.0,
                           -4.261680122514487, -1.4432386440697815, 0.0, -4.261680122514487, 1.4432386440697815, 0.0],
              'mass_numbers': [7, 16, 1, 1, 16, 1, 1],
              'masses': [7.0160034366, 15.99491461957, 1.00782503223, 1.00782503223, 15.99491461957, 1.00782503223,
                         1.00782503223],
              'molecular_charge': 0.0,
              'molecular_multiplicity': 1,
              'name': 'dimer',
              'provenance': {'creator': 'QCElemental',
                             'routine': 'qcelemental.molparse.from_string',
                             'version': '0.27.1'},
              'real': [False, True, True, True, True, True, True],
              'schema_name': 'qcschema_molecule',
              'schema_version': 2,
              'symbols': ['Li', 'O', 'H', 'H', 'O', 'H', 'H'],
              'validated': True},
 'protocols': {'stdout': True},
 'provenance': {'creator': 'QCElemental', 'routine': 'qcelemental.models.results', 'version': '0.27.1'},
 'schema_name': 'qcschema_input',
 'schema_version': 1}
--------------------------------------------------------------------------

Scratch directory: /scratch/
   => Libint2 <=

    Primary   basis highest AM E, G, H:  5, 4, 3
    Auxiliary basis highest AM E, G, H:  6, 5, 4
    Onebody   basis highest AM E, G, H:  6, 5, 4
    Solid Harmonics ordering:            gaussian

*** tstart() called on moses-razer
*** at Sat Dec 30 16:44:22 2023

   => Loading Basis Set <=

    Name: AUG-CC-PVTZ
    Role: ORBITAL
    Keyword: BASIS
    atoms 1        entry LI         line    85 file /home/kchung25/anaconda3/envs/p415env/share/psi4/basis/aug-cc-pvtz.gbs 
    atoms 2, 5     entry O          line   331 file /home/kchung25/anaconda3/envs/p415env/share/psi4/basis/aug-cc-pvtz.gbs 
    atoms 3-4, 6-7 entry H          line    40 file /home/kchung25/anaconda3/envs/p415env/share/psi4/basis/aug-cc-pvtz.gbs 


         ---------------------------------------------------------
                                   SCF
               by Justin Turney, Rob Parrish, Andy Simmonett
                          and Daniel G. A. Smith
                              RHF Reference
                        6 Threads,  57220 MiB Core
         ---------------------------------------------------------

  ==> Geometry <==

    Molecular point group: c1
    Full point group: C2v

    Geometry (in Bohr), charge = 0, multiplicity = 1:

       Center              X                  Y                   Z               Mass       
    ------------   -----------------  -----------------  -----------------  -----------------
      Gh(LI)          0.000000000000     0.000000000000     0.000000000000     7.016003436600
         O            3.156184669943     0.000000000000     0.000000000000    15.994914619570
         H            4.261682012241     1.443238644070     0.000000000000     1.007825032230
         H            4.261682012241    -1.443238644070     0.000000000000     1.007825032230
         O           -3.156184669943     0.000000000000     0.000000000000    15.994914619570
         H           -4.261680122514    -1.443238644070     0.000000000000     1.007825032230
         H           -4.261680122514     1.443238644070     0.000000000000     1.007825032230

  Running in c1 symmetry.

  Rotational constants: A =      7.16923  B =      0.15362  C =      0.15039 [cm^-1]
  Rotational constants: A = 214928.25040  B =   4605.30724  C =   4508.69853 [MHz]
  Nuclear repulsion =   33.125045893968966

  Charge       = 0
  Multiplicity = 1
  Electrons    = 20
  Nalpha       = 10
  Nbeta        = 10

  ==> Algorithm <==

  SCF Algorithm Type is DF.
  DIIS enabled.
  MOM disabled.
  Fractional occupation disabled.
  Guess Type is SAD.
  Energy threshold   = 1.00e-08
  Density threshold  = 1.00e-08
  Integral threshold = 1.00e-12

  ==> Primary Basis <==

  Basis Set: AUG-CC-PVTZ
    Blend: AUG-CC-PVTZ
    Number of shells: 78
    Number of basis functions: 230
    Number of Cartesian functions: 265
    Spherical Harmonics?: true
    Max angular momentum: 3

   => Loading Basis Set <=

    Name: (AUG-CC-PVTZ AUX)
    Role: JKFIT
    Keyword: DF_BASIS_SCF
    atoms 1        entry LI         line    54 file /home/kchung25/anaconda3/envs/p415env/share/psi4/basis/def2-universal-jkfit.gbs 
    atoms 2, 5     entry O          line   286 file /home/kchung25/anaconda3/envs/p415env/share/psi4/basis/aug-cc-pvtz-jkfit.gbs 
    atoms 3-4, 6-7 entry H          line    70 file /home/kchung25/anaconda3/envs/p415env/share/psi4/basis/aug-cc-pvtz-jkfit.gbs 

  ==> Integral Setup <==

  DFHelper Memory: AOs need 0.182 GiB; user supplied 41.910 GiB. 
  Using in-core AOs.

  ==> MemDFJK: Density-Fitted J/K Matrices <==

    J tasked:                   Yes
    K tasked:                   Yes
    wK tasked:                   No
    OpenMP threads:               6
    Memory [MiB]:             42915
    Algorithm:                 Core
    Schwarz Cutoff:           1E-12
    Mask sparsity (%):       4.0416
    Fitting Condition:        1E-10

   => Auxiliary Basis Set <=

  Basis Set: (AUG-CC-PVTZ AUX)
    Blend: AUG-CC-PVTZ-JKFIT + DEF2-UNIVERSAL-JKFIT
    Number of shells: 133
    Number of basis functions: 443
    Number of Cartesian functions: 542
    Spherical Harmonics?: true
    Max angular momentum: 4

  Minimum eigenvalue in the overlap matrix is 1.4721763513E-05.
  Reciprocal condition number of the overlap matrix is 1.4286329626E-06.
    Using symmetric orthogonalization.

  ==> Pre-Iterations <==

  SCF Guess: Superposition of Atomic Densities via on-the-fly atomic UHF (no occupation information).

   -------------------------
    Irrep   Nso     Nmo    
   -------------------------
     A        230     230 
   -------------------------
    Total     230     230
   -------------------------

  ==> Iterations <==

                           Total Energy        Delta E     RMS |[F,P]|

   @DF-RHF iter SAD:  -150.94692788411169   -1.50947e+02   0.00000e+00 
   @DF-RHF iter   1:  -151.94239063750263   -9.95463e-01   2.91144e-03 ADIIS/DIIS
   @DF-RHF iter   2:  -152.04879985853029   -1.06409e-01   2.01427e-03 ADIIS/DIIS
   @DF-RHF iter   3:  -152.11568567162999   -6.68858e-02   1.36265e-04 ADIIS/DIIS
   @DF-RHF iter   4:  -152.11649952082962   -8.13849e-04   3.31989e-05 DIIS
   @DF-RHF iter   5:  -152.11655232038316   -5.27996e-05   7.62800e-06 DIIS
   @DF-RHF iter   6:  -152.11655678967111   -4.46929e-06   1.67796e-06 DIIS
   @DF-RHF iter   7:  -152.11655702845030   -2.38779e-07   3.13900e-07 DIIS
   @DF-RHF iter   8:  -152.11655703588940   -7.43910e-09   5.48674e-08 DIIS
   @DF-RHF iter   9:  -152.11655703606536   -1.75959e-10   1.34309e-08 DIIS
   @DF-RHF iter  10:  -152.11655703607542   -1.00613e-11   1.98322e-09 DIIS
  Energy and wave function converged.


  ==> Post-Iterations <==

    Orbital Energies [Eh]
    ---------------------

    Doubly Occupied:                                                      

       1A    -20.552415     2A    -20.552414     3A     -1.335859  
       4A     -1.335030     5A     -0.701586     6A     -0.700867  
       7A     -0.572954     8A     -0.558561     9A     -0.495389  
      10A     -0.492881  

    Virtual:                                                              

      11A      0.012146    12A      0.016148    13A      0.019329  
      14A      0.021571    15A      0.050118    16A      0.059413  
      17A      0.062010    18A      0.071756    19A      0.078672  
      20A      0.082276    21A      0.085682    22A      0.087649  
      23A      0.127957    24A      0.128714    25A      0.130431  
      26A      0.168291    27A      0.170732    28A      0.180095  
      29A      0.187392    30A      0.201994    31A      0.202361  
      32A      0.203441    33A      0.213490    34A      0.228293  
      35A      0.238965    36A      0.244583    37A      0.257920  
      38A      0.263814    39A      0.280788    40A      0.306889  
      41A      0.313262    42A      0.321090    43A      0.332195  
      44A      0.368651    45A      0.371605    46A      0.381304  
      47A      0.385316    48A      0.403092    49A      0.412123  
      50A      0.415168    51A      0.421467    52A      0.430149  
      53A      0.432023    54A      0.435722    55A      0.438176  
      56A      0.439475    57A      0.442407    58A      0.444238  
      59A      0.477700    60A      0.479011    61A      0.506866  
      62A      0.510662    63A      0.518747    64A      0.539290  
      65A      0.557192    66A      0.562377    67A      0.588866  
      68A      0.608226    69A      0.646516    70A      0.727914  
      71A      0.743883    72A      0.781328    73A      0.787038  
      74A      0.814686    75A      0.830376    76A      0.833493  
      77A      0.839984    78A      0.842976    79A      0.844274  
      80A      0.856613    81A      0.903418    82A      0.905648  
      83A      0.932069    84A      0.946707    85A      0.963118  
      86A      0.967856    87A      0.980176    88A      0.981917  
      89A      0.993278    90A      1.002267    91A      1.002855  
      92A      1.022352    93A      1.061855    94A      1.077118  
      95A      1.090137    96A      1.090236    97A      1.099617  
      98A      1.116217    99A      1.120097   100A      1.166163  
     101A      1.168587   102A      1.182497   103A      1.198845  
     104A      1.205429   105A      1.228453   106A      1.232779  
     107A      1.263342   108A      1.264459   109A      1.270234  
     110A      1.285686   111A      1.336108   112A      1.351832  
     113A      1.369658   114A      1.450461   115A      1.469960  
     116A      1.503172   117A      1.520433   118A      1.578859  
     119A      1.667797   120A      1.682559   121A      1.747983  
     122A      1.759079   123A      1.793491   124A      1.829879  
     125A      1.851353   126A      1.861349   127A      1.925986  
     128A      2.004159   129A      2.008029   130A      2.035889  
     131A      2.036260   132A      2.123201   133A      2.155522  
     134A      2.211122   135A      2.335785   136A      2.342610  
     137A      2.365621   138A      2.381314   139A      2.390363  
     140A      2.433690   141A      2.452006   142A      2.568261  
     143A      2.585800   144A      2.595025   145A      2.641314  
     146A      2.649925   147A      2.679457   148A      2.688430  
     149A      2.791495   150A      2.830358   151A      2.845230  
     152A      2.854797   153A      2.900226   154A      2.904185  
     155A      2.913908   156A      2.936154   157A      2.958932  
     158A      3.006658   159A      3.079197   160A      3.264993  
     161A      3.755765   162A      3.896020   163A      3.908476  
     164A      3.976981   165A      4.048227   166A      4.057728  
     167A      4.093523   168A      4.256453   169A      4.267749  
     170A      4.315240   171A      4.319800   172A      4.331114  
     173A      4.362806   174A      4.405200   175A      4.547507  
     176A      4.605157   177A      4.610876   178A      4.634626  
     179A      4.640595   180A      4.654128   181A      4.657508  
     182A      4.686833   183A      4.756398   184A      4.868472  
     185A      4.894668   186A      4.997692   187A      5.031302  
     188A      5.156974   189A      5.178744   190A      5.178909  
     191A      5.201022   192A      5.272473   193A      5.428316  
     194A      5.450806   195A      5.452850   196A      5.532689  
     197A      5.547276   198A      6.001130   199A      6.146452  
     200A      6.287850   201A      6.512360   202A      6.648583  
     203A      6.653372   204A      6.841187   205A      6.843210  
     206A      7.052559   207A      7.175944   208A      7.179517  
     209A      7.189620   210A      7.326813   211A      7.341096  
     212A      7.376646   213A      7.376935   214A      7.396864  
     215A      7.402844   216A      7.411535   217A      7.425708  
     218A      7.572573   219A      7.591699   220A      7.678675  
     221A      7.770028   222A      7.958052   223A      7.959140  
     224A      7.973505   225A      7.989913   226A      8.871616  
     227A      8.883262   228A     13.298774   229A     16.194897  
     230A     16.357781  

    Final Occupation by Irrep:
              A 
    DOCC [    10 ]
    NA   [    10 ]
    NB   [    10 ]

  @DF-RHF Final Energy:  -152.11655703607542

   => Energetics <=

    Nuclear Repulsion Energy =             33.1250458939689665
    One-Electron Energy =                -275.8872908420329395
    Two-Electron Energy =                  90.6456879119885457
    Total Energy =                       -152.1165570360754202

Computation Completed


Properties will be evaluated at   0.000000,   0.000000,   0.000000 [a0]

Properties computed using the SCF density matrix


 Multipole Moments:

 ------------------------------------------------------------------------------------
     Multipole            Electronic (a.u.)      Nuclear  (a.u.)        Total (a.u.)
 ------------------------------------------------------------------------------------

 L = 1.  Multiply by 2.5417464519 to convert [e a0] to [Debye]
 Dipole X            :         -0.0000029            0.0000038            0.0000008
 Dipole Y            :         -0.0000000            0.0000000           -0.0000000
 Dipole Z            :         -0.0000000            0.0000000           -0.0000000
 Magnitude           :                                                    0.0000008

 ------------------------------------------------------------------------------------

*** tstop() called on moses-razer at Sat Dec 30 16:44:23 2023
Module time:
	user time   =       6.27 seconds =       0.10 minutes
	system time =       0.31 seconds =       0.01 minutes
	total time  =          1 seconds =       0.02 minutes
Total time:
	user time   =       6.27 seconds =       0.10 minutes
	system time =       0.31 seconds =       0.01 minutes
	total time  =          1 seconds =       0.02 minutes

*** tstart() called on moses-razer
*** at Sat Dec 30 16:44:23 2023


  //>>>>>>>>>>>>>>>>>>>>>>>>>>>>>>>>>>>//
  //               DFMP2               //
  //<<<<<<<<<<<<<<<<<<<<<<<<<<<<<<<<<<<//

   => Loading Basis Set <=

    Name: (AUG-CC-PVTZ AUX)
    Role: RIFIT
    Keyword: DF_BASIS_MP2
    atoms 1        entry LI         line    90 file /home/kchung25/anaconda3/envs/p415env/share/psi4/basis/def2-qzvpp-ri.gbs 
    atoms 2, 5     entry O          line   264 file /home/kchung25/anaconda3/envs/p415env/share/psi4/basis/aug-cc-pvtz-ri.gbs 
    atoms 3-4, 6-7 entry H          line    30 file /home/kchung25/anaconda3/envs/p415env/share/psi4/basis/aug-cc-pvtz-ri.gbs 

	 --------------------------------------------------------
	                          DF-MP2                         
	      2nd-Order Density-Fitted Moller-Plesset Theory     
	              RMP2 Wavefunction,   6 Threads             
	                                                         
	        Rob Parrish, Justin Turney, Andy Simmonett,      
	           Ed Hohenstein, and C. David Sherrill          
	 --------------------------------------------------------

   => Auxiliary Basis Set <=

  Basis Set: (AUG-CC-PVTZ AUX)
    Blend: AUG-CC-PVTZ-RI + DEF2-QZVPP-RI
    Number of shells: 139
    Number of basis functions: 497
    Number of Cartesian functions: 622
    Spherical Harmonics?: true
    Max angular momentum: 4

	 --------------------------------------------------------
	                 NBF =   230, NAUX =   497
	 --------------------------------------------------------
	   CLASS    FOCC     OCC    AOCC    AVIR     VIR    FVIR
	   PAIRS       0      10      10     220     220       0
	 --------------------------------------------------------

	-----------------------------------------------------------
	 ==================> DF-MP2 Energies <==================== 
	-----------------------------------------------------------
	 Reference Energy          =    -152.1165570360754202 [Eh]
	 Singles Energy            =      -0.0000000000000000 [Eh]
	 Same-Spin Energy          =      -0.1373860598419674 [Eh]
	 Opposite-Spin Energy      =      -0.4328493066769068 [Eh]
	 Correlation Energy        =      -0.5702353665188742 [Eh]
	 Total Energy              =    -152.6867924025943069 [Eh]
	-----------------------------------------------------------
	 ================> DF-SCS-MP2 Energies <================== 
	-----------------------------------------------------------
	 SCS Same-Spin Scale       =       0.3333333333333333 [-]
	 SCS Opposite-Spin Scale   =       1.2000000000000000 [-]
	 SCS Same-Spin Energy      =      -0.0457953532806558 [Eh]
	 SCS Opposite-Spin Energy  =      -0.5194191680122882 [Eh]
	 SCS Correlation Energy    =      -0.5652145212929439 [Eh]
	 SCS Total Energy          =    -152.6817715573683643 [Eh]
	-----------------------------------------------------------


*** tstop() called on moses-razer at Sat Dec 30 16:44:23 2023
Module time:
	user time   =       2.56 seconds =       0.04 minutes
	system time =       0.14 seconds =       0.00 minutes
	total time  =          0 seconds =       0.00 minutes
Total time:
	user time   =       8.84 seconds =       0.15 minutes
	system time =       0.45 seconds =       0.01 minutes
	total time  =          1 seconds =       0.02 minutes

    Psi4 stopped on: Saturday, 30 December 2023 04:44PM
    Psi4 wall time for execution: 0:00:01.72


    -----------------------------------------------------------------------
          Psi4: An Open-Source Ab Initio Electronic Structure Package
                               Psi4 1.9 release

                         Git: Rev {} zzzzzzz 


    D. G. A. Smith, L. A. Burns, A. C. Simmonett, R. M. Parrish,
    M. C. Schieber, R. Galvelis, P. Kraus, H. Kruse, R. Di Remigio,
    A. Alenaizan, A. M. James, S. Lehtola, J. P. Misiewicz, M. Scheurer,
    R. A. Shaw, J. B. Schriber, Y. Xie, Z. L. Glick, D. A. Sirianni,
    J. S. O'Brien, J. M. Waldrop, A. Kumar, E. G. Hohenstein,
    B. P. Pritchard, B. R. Brooks, H. F. Schaefer III, A. Yu. Sokolov,
    K. Patkowski, A. E. DePrince III, U. Bozkaya, R. A. King,
    F. A. Evangelista, J. M. Turney, T. D. Crawford, C. D. Sherrill,
    J. Chem. Phys. 152(18) 184108 (2020). https://doi.org/10.1063/5.0006002

                            Additional Code Authors
    E. T. Seidl, C. L. Janssen, E. F. Valeev, M. L. Leininger,
    J. F. Gonthier, R. M. Richard, H. R. McAlexander, M. Saitow, X. Wang,
    P. Verma, M. H. Lechner, A. Jiang, S. Behnle, A. G. Heide,
    M. F. Herbst, and D. L. Poole

             Previous Authors, Complete List of Code Contributors,
                       and Citations for Specific Modules
    https://github.com/psi4/psi4/blob/master/codemeta.json
    https://github.com/psi4/psi4/graphs/contributors
    http://psicode.org/psi4manual/master/introduction.html#citing-psifour

    -----------------------------------------------------------------------


    Psi4 started on: Saturday, 30 December 2023 04:44PM

    Process ID: 208650
    Host:       moses-razer
    PSIDATADIR: /home/kchung25/anaconda3/envs/psi4_19/share/psi4
    Memory:     55.9 GiB
    Threads:    6
    
  ==> Input QCSchema <==

--------------------------------------------------------------------------
{'driver': 'energy',
 'extras': {'psiapi': True, 'wfn_qcvars_only': True},
 'id': None,
 'keywords': {'SCF_TYPE': 'DF', 'function_kwargs': {}},
 'model': {'basis': 'aug-cc-pvtz', 'method': 'mp2'},
 'molecule': {'atom_labels': ['', '', '', '', '', '', ''],
              'atomic_numbers': [3, 8, 1, 1, 8, 1, 1],
              'extras': {},
              'fix_com': True,
              'fix_orientation': True,
              'fix_symmetry': 'c1',
              'fragment_charges': [1.0, 0.0],
              'fragment_multiplicities': [1, 1],
              'fragments': [[0], [1, 2, 3, 4, 5, 6]],
              'geometry': [0.0, 0.0, 0.0, 3.1561846699432805, 0.0, 0.0, 4.2616820122406125, 1.4432386440697815, 0.0,
                           4.2616820122406125, -1.4432386440697815, 0.0, -3.1561846699432805, 0.0, 0.0,
                           -4.261680122514487, -1.4432386440697815, 0.0, -4.261680122514487, 1.4432386440697815, 0.0],
              'mass_numbers': [7, 16, 1, 1, 16, 1, 1],
              'masses': [7.0160034366, 15.99491461957, 1.00782503223, 1.00782503223, 15.99491461957, 1.00782503223,
                         1.00782503223],
              'molecular_charge': 1.0,
              'molecular_multiplicity': 1,
              'name': 'dimer',
              'provenance': {'creator': 'QCElemental',
                             'routine': 'qcelemental.molparse.from_string',
                             'version': '0.27.1'},
              'real': [True, False, False, False, False, False, False],
              'schema_name': 'qcschema_molecule',
              'schema_version': 2,
              'symbols': ['Li', 'O', 'H', 'H', 'O', 'H', 'H'],
              'validated': True},
 'protocols': {'stdout': True},
 'provenance': {'creator': 'QCElemental', 'routine': 'qcelemental.models.results', 'version': '0.27.1'},
 'schema_name': 'qcschema_input',
 'schema_version': 1}
--------------------------------------------------------------------------

Scratch directory: /scratch/
   => Libint2 <=

    Primary   basis highest AM E, G, H:  5, 4, 3
    Auxiliary basis highest AM E, G, H:  6, 5, 4
    Onebody   basis highest AM E, G, H:  6, 5, 4
    Solid Harmonics ordering:            gaussian

*** tstart() called on moses-razer
*** at Sat Dec 30 16:44:24 2023

   => Loading Basis Set <=

    Name: AUG-CC-PVTZ
    Role: ORBITAL
    Keyword: BASIS
    atoms 1        entry LI         line    85 file /home/kchung25/anaconda3/envs/p415env/share/psi4/basis/aug-cc-pvtz.gbs 
    atoms 2, 5     entry O          line   331 file /home/kchung25/anaconda3/envs/p415env/share/psi4/basis/aug-cc-pvtz.gbs 
    atoms 3-4, 6-7 entry H          line    40 file /home/kchung25/anaconda3/envs/p415env/share/psi4/basis/aug-cc-pvtz.gbs 


         ---------------------------------------------------------
                                   SCF
               by Justin Turney, Rob Parrish, Andy Simmonett
                          and Daniel G. A. Smith
                              RHF Reference
                        6 Threads,  57220 MiB Core
         ---------------------------------------------------------

  ==> Geometry <==

    Molecular point group: c1
    Full point group: C2v

    Geometry (in Bohr), charge = 1, multiplicity = 1:

       Center              X                  Y                   Z               Mass       
    ------------   -----------------  -----------------  -----------------  -----------------
         LI           0.000000000000     0.000000000000     0.000000000000     7.016003436600
      Gh(O)           3.156184669943     0.000000000000     0.000000000000    15.994914619570
      Gh(H)           4.261682012241     1.443238644070     0.000000000000     1.007825032230
      Gh(H)           4.261682012241    -1.443238644070     0.000000000000     1.007825032230
      Gh(O)          -3.156184669943     0.000000000000     0.000000000000    15.994914619570
      Gh(H)          -4.261680122514    -1.443238644070     0.000000000000     1.007825032230
      Gh(H)          -4.261680122514     1.443238644070     0.000000000000     1.007825032230

  Running in c1 symmetry.

  Rotational constants: A =      7.16923  B =      0.15362  C =      0.15039 [cm^-1]
  Rotational constants: A = 214928.25040  B =   4605.30724  C =   4508.69853 [MHz]
  Nuclear repulsion =    0.000000000000000

  Charge       = 1
  Multiplicity = 1
  Electrons    = 2
  Nalpha       = 1
  Nbeta        = 1

  ==> Algorithm <==

  SCF Algorithm Type is DF.
  DIIS enabled.
  MOM disabled.
  Fractional occupation disabled.
  Guess Type is SAD.
  Energy threshold   = 1.00e-08
  Density threshold  = 1.00e-08
  Integral threshold = 1.00e-12

  ==> Primary Basis <==

  Basis Set: AUG-CC-PVTZ
    Blend: AUG-CC-PVTZ
    Number of shells: 78
    Number of basis functions: 230
    Number of Cartesian functions: 265
    Spherical Harmonics?: true
    Max angular momentum: 3

   => Loading Basis Set <=

    Name: (AUG-CC-PVTZ AUX)
    Role: JKFIT
    Keyword: DF_BASIS_SCF
    atoms 1        entry LI         line    54 file /home/kchung25/anaconda3/envs/p415env/share/psi4/basis/def2-universal-jkfit.gbs 
    atoms 2, 5     entry O          line   286 file /home/kchung25/anaconda3/envs/p415env/share/psi4/basis/aug-cc-pvtz-jkfit.gbs 
    atoms 3-4, 6-7 entry H          line    70 file /home/kchung25/anaconda3/envs/p415env/share/psi4/basis/aug-cc-pvtz-jkfit.gbs 

  ==> Integral Setup <==

  DFHelper Memory: AOs need 0.182 GiB; user supplied 41.910 GiB. 
  Using in-core AOs.

  ==> MemDFJK: Density-Fitted J/K Matrices <==

    J tasked:                   Yes
    K tasked:                   Yes
    wK tasked:                   No
    OpenMP threads:               6
    Memory [MiB]:             42915
    Algorithm:                 Core
    Schwarz Cutoff:           1E-12
    Mask sparsity (%):       4.0416
    Fitting Condition:        1E-10

   => Auxiliary Basis Set <=

  Basis Set: (AUG-CC-PVTZ AUX)
    Blend: AUG-CC-PVTZ-JKFIT + DEF2-UNIVERSAL-JKFIT
    Number of shells: 133
    Number of basis functions: 443
    Number of Cartesian functions: 542
    Spherical Harmonics?: true
    Max angular momentum: 4

  Minimum eigenvalue in the overlap matrix is 1.4721763513E-05.
  Reciprocal condition number of the overlap matrix is 1.4286329626E-06.
    Using symmetric orthogonalization.

  ==> Pre-Iterations <==

  SCF Guess: Superposition of Atomic Densities via on-the-fly atomic UHF (no occupation information).

   -------------------------
    Irrep   Nso     Nmo    
   -------------------------
     A        230     230 
   -------------------------
    Total     230     230
   -------------------------

  ==> Iterations <==

                           Total Energy        Delta E     RMS |[F,P]|

   @DF-RHF iter SAD:    -7.31432017397408   -7.31432e+00   0.00000e+00 
   @DF-RHF iter   1:    -7.23638229818659    7.79379e-02   9.88549e-06 DIIS
   @DF-RHF iter   2:    -7.23638420874445   -1.91056e-06   1.19373e-06 DIIS
   @DF-RHF iter   3:    -7.23638423963554   -3.08911e-08   6.44845e-08 DIIS
   @DF-RHF iter   4:    -7.23638423970139   -6.58522e-11   6.08807e-10 DIIS
  Energy and wave function converged.


  ==> Post-Iterations <==

    Orbital Energies [Eh]
    ---------------------

    Doubly Occupied:                                                      

       1A     -2.792354  

    Virtual:                                                              

       2A     -0.196301     3A     -0.128604     4A     -0.128596  
       5A     -0.128595     6A     -0.073738     7A     -0.056402  
       8A     -0.056368     9A     -0.056358    10A     -0.050382  
      11A     -0.049124    12A     -0.032429    13A     -0.031534  
      14A     -0.031444    15A     -0.013143    16A     -0.010849  
      17A     -0.010412    18A     -0.009768    19A     -0.005290  
      20A     -0.004500    21A      0.024690    22A      0.026039  
      23A      0.046872    24A      0.065984    25A      0.094439  
      26A      0.096732    27A      0.097725    28A      0.099162  
      29A      0.104815    30A      0.116500    31A      0.116908  
      32A      0.124563    33A      0.127070    34A      0.133415  
      35A      0.133750    36A      0.150561    37A      0.159844  
      38A      0.160174    39A      0.172194    40A      0.180088  
      41A      0.191357    42A      0.203526    43A      0.208385  
      44A      0.236668    45A      0.240308    46A      0.266422  
      47A      0.279452    48A      0.283660    49A      0.286931  
      50A      0.290046    51A      0.291042    52A      0.320625  
      53A      0.322939    54A      0.322966    55A      0.335436  
      56A      0.342236    57A      0.344545    58A      0.391329  
      59A      0.399470    60A      0.402301    61A      0.454697  
      62A      0.521496    63A      0.523786    64A      0.525772  
      65A      0.532615    66A      0.534691    67A      0.558570  
      68A      0.560153    69A      0.566918    70A      0.579864  
      71A      0.607463    72A      0.639959    73A      0.642168  
      74A      0.667743    75A      0.678922    76A      0.688227  
      77A      0.713876    78A      0.732525    79A      0.742570  
      80A      0.772069    81A      0.781318    82A      0.803252  
      83A      0.816547    84A      0.817525    85A      0.823434  
      86A      0.833702    87A      0.842272    88A      0.856937  
      89A      0.889058    90A      0.912650    91A      0.912795  
      92A      0.930994    93A      0.941105    94A      0.955815  
      95A      0.971330    96A      0.988764    97A      1.023224  
      98A      1.042322    99A      1.043029   100A      1.043774  
     101A      1.054371   102A      1.064992   103A      1.100532  
     104A      1.114280   105A      1.209081   106A      1.218951  
     107A      1.232318   108A      1.316927   109A      1.337832  
     110A      1.342135   111A      1.365881   112A      1.397241  
     113A      1.534273   114A      1.570701   115A      1.624219  
     116A      1.654208   117A      1.657197   118A      1.661510  
     119A      1.672723   120A      1.757162   121A      1.761783  
     122A      1.855410   123A      1.857129   124A      1.871469  
     125A      1.871686   126A      1.934896   127A      2.024262  
     128A      2.219797   129A      2.220361   130A      2.227123  
     131A      2.231404   132A      2.245821   133A      2.263218  
     134A      2.263409   135A      2.271425   136A      2.274782  
     137A      2.300949   138A      2.395931   139A      2.543249  
     140A      2.548131   141A      2.607669   142A      2.610826  
     143A      2.671465   144A      2.672230   145A      2.969322  
     146A      2.973255   147A      2.985188   148A      2.986866  
     149A      3.027963   150A      3.070580   151A      3.072640  
     152A      3.088832   153A      3.143795   154A      3.154897  
     155A      3.214247   156A      3.344575   157A      3.439419  
     158A      3.473820   159A      3.638030   160A      4.134638  
     161A      4.136179   162A      4.174377   163A      4.301235  
     164A      4.360712   165A      4.437173   166A      4.448966  
     167A      4.493707   168A      4.501869   169A      4.593149  
     170A      4.679276   171A      4.763163   172A      4.779757  
     173A      4.781279   174A      4.798302   175A      4.806088  
     176A      4.870092   177A      4.907351   178A      5.005316  
     179A      5.158693   180A      5.246728   181A      5.289035  
     182A      5.377508   183A      5.422157   184A      5.433552  
     185A      5.450413   186A      5.473785   187A      5.689315  
     188A      5.709485   189A      5.884519   190A      5.940489  
     191A      6.242171   192A      6.328519   193A      6.606814  
     194A      6.683122   195A      6.858212   196A      6.863968  
     197A      7.432584   198A      7.435927   199A      7.681821  
     200A      7.710538   201A      7.773036   202A      7.790010  
     203A      7.948732   204A      7.964751   205A      7.968841  
     206A      7.981733   207A      8.544937   208A      8.555151  
     209A      8.556621   210A      8.583587   211A      9.525076  
     212A      9.575686   213A      9.626648   214A      9.666812  
     215A      9.707822   216A      9.731559   217A      9.946989  
     218A     10.021620   219A     10.963653   220A     10.974615  
     221A     11.405650   222A     11.470420   223A     11.963459  
     224A     12.221781   225A     13.295343   226A     13.342168  
     227A     13.551378   228A     13.588221   229A     65.140451  
     230A     65.497097  

    Final Occupation by Irrep:
              A 
    DOCC [     1 ]
    NA   [     1 ]
    NB   [     1 ]

  @DF-RHF Final Energy:    -7.23638423970139

   => Energetics <=

    Nuclear Repulsion Energy =              0.0000000000000000
    One-Electron Energy =                  -8.8880600773928631
    Two-Electron Energy =                   1.6516758376914709
    Total Energy =                         -7.2363842397013922

Computation Completed


Properties will be evaluated at   0.000000,   0.000000,   0.000000 [a0]

Properties computed using the SCF density matrix


 Multipole Moments:

 ------------------------------------------------------------------------------------
     Multipole            Electronic (a.u.)      Nuclear  (a.u.)        Total (a.u.)
 ------------------------------------------------------------------------------------

 L = 1.  Multiply by 2.5417464519 to convert [e a0] to [Debye]
 Dipole X            :          0.0000000            0.0000000            0.0000000
 Dipole Y            :         -0.0000000            0.0000000           -0.0000000
 Dipole Z            :         -0.0000000            0.0000000           -0.0000000
 Magnitude           :                                                    0.0000000

 ------------------------------------------------------------------------------------

*** tstop() called on moses-razer at Sat Dec 30 16:44:24 2023
Module time:
	user time   =       4.59 seconds =       0.08 minutes
	system time =       0.12 seconds =       0.00 minutes
	total time  =          0 seconds =       0.00 minutes
Total time:
	user time   =      13.69 seconds =       0.23 minutes
	system time =       0.57 seconds =       0.01 minutes
	total time  =          2 seconds =       0.03 minutes

*** tstart() called on moses-razer
*** at Sat Dec 30 16:44:24 2023


  //>>>>>>>>>>>>>>>>>>>>>>>>>>>>>>>>>>>//
  //               DFMP2               //
  //<<<<<<<<<<<<<<<<<<<<<<<<<<<<<<<<<<<//

   => Loading Basis Set <=

    Name: (AUG-CC-PVTZ AUX)
    Role: RIFIT
    Keyword: DF_BASIS_MP2
    atoms 1        entry LI         line    90 file /home/kchung25/anaconda3/envs/p415env/share/psi4/basis/def2-qzvpp-ri.gbs 
    atoms 2, 5     entry O          line   264 file /home/kchung25/anaconda3/envs/p415env/share/psi4/basis/aug-cc-pvtz-ri.gbs 
    atoms 3-4, 6-7 entry H          line    30 file /home/kchung25/anaconda3/envs/p415env/share/psi4/basis/aug-cc-pvtz-ri.gbs 

	 --------------------------------------------------------
	                          DF-MP2                         
	      2nd-Order Density-Fitted Moller-Plesset Theory     
	              RMP2 Wavefunction,   6 Threads             
	                                                         
	        Rob Parrish, Justin Turney, Andy Simmonett,      
	           Ed Hohenstein, and C. David Sherrill          
	 --------------------------------------------------------

   => Auxiliary Basis Set <=

  Basis Set: (AUG-CC-PVTZ AUX)
    Blend: AUG-CC-PVTZ-RI + DEF2-QZVPP-RI
    Number of shells: 139
    Number of basis functions: 497
    Number of Cartesian functions: 622
    Spherical Harmonics?: true
    Max angular momentum: 4

	 --------------------------------------------------------
	                 NBF =   230, NAUX =   497
	 --------------------------------------------------------
	   CLASS    FOCC     OCC    AOCC    AVIR     VIR    FVIR
	   PAIRS       0       1       1     229     229       0
	 --------------------------------------------------------

	-----------------------------------------------------------
	 ==================> DF-MP2 Energies <==================== 
	-----------------------------------------------------------
	 Reference Energy          =      -7.2363842397013922 [Eh]
	 Singles Energy            =      -0.0000000000000000 [Eh]
	 Same-Spin Energy          =      -0.0000000000000000 [Eh]
	 Opposite-Spin Energy      =      -0.0165181867512825 [Eh]
	 Correlation Energy        =      -0.0165181867512825 [Eh]
	 Total Energy              =      -7.2529024264526747 [Eh]
	-----------------------------------------------------------
	 ================> DF-SCS-MP2 Energies <================== 
	-----------------------------------------------------------
	 SCS Same-Spin Scale       =       0.3333333333333333 [-]
	 SCS Opposite-Spin Scale   =       1.2000000000000000 [-]
	 SCS Same-Spin Energy      =      -0.0000000000000000 [Eh]
	 SCS Opposite-Spin Energy  =      -0.0198218241015390 [Eh]
	 SCS Correlation Energy    =      -0.0198218241015390 [Eh]
	 SCS Total Energy          =      -7.2562060638029315 [Eh]
	-----------------------------------------------------------


*** tstop() called on moses-razer at Sat Dec 30 16:44:25 2023
Module time:
	user time   =       2.47 seconds =       0.04 minutes
	system time =       0.07 seconds =       0.00 minutes
	total time  =          1 seconds =       0.02 minutes
Total time:
	user time   =      16.16 seconds =       0.27 minutes
	system time =       0.64 seconds =       0.01 minutes
	total time  =          3 seconds =       0.05 minutes

    Psi4 stopped on: Saturday, 30 December 2023 04:44PM
    Psi4 wall time for execution: 0:00:01.31


    -----------------------------------------------------------------------
          Psi4: An Open-Source Ab Initio Electronic Structure Package
                               Psi4 1.9 release

                         Git: Rev {} zzzzzzz 


    D. G. A. Smith, L. A. Burns, A. C. Simmonett, R. M. Parrish,
    M. C. Schieber, R. Galvelis, P. Kraus, H. Kruse, R. Di Remigio,
    A. Alenaizan, A. M. James, S. Lehtola, J. P. Misiewicz, M. Scheurer,
    R. A. Shaw, J. B. Schriber, Y. Xie, Z. L. Glick, D. A. Sirianni,
    J. S. O'Brien, J. M. Waldrop, A. Kumar, E. G. Hohenstein,
    B. P. Pritchard, B. R. Brooks, H. F. Schaefer III, A. Yu. Sokolov,
    K. Patkowski, A. E. DePrince III, U. Bozkaya, R. A. King,
    F. A. Evangelista, J. M. Turney, T. D. Crawford, C. D. Sherrill,
    J. Chem. Phys. 152(18) 184108 (2020). https://doi.org/10.1063/5.0006002

                            Additional Code Authors
    E. T. Seidl, C. L. Janssen, E. F. Valeev, M. L. Leininger,
    J. F. Gonthier, R. M. Richard, H. R. McAlexander, M. Saitow, X. Wang,
    P. Verma, M. H. Lechner, A. Jiang, S. Behnle, A. G. Heide,
    M. F. Herbst, and D. L. Poole

             Previous Authors, Complete List of Code Contributors,
                       and Citations for Specific Modules
    https://github.com/psi4/psi4/blob/master/codemeta.json
    https://github.com/psi4/psi4/graphs/contributors
    http://psicode.org/psi4manual/master/introduction.html#citing-psifour

    -----------------------------------------------------------------------


    Psi4 started on: Saturday, 30 December 2023 04:44PM

    Process ID: 208650
    Host:       moses-razer
    PSIDATADIR: /home/kchung25/anaconda3/envs/psi4_19/share/psi4
    Memory:     55.9 GiB
    Threads:    6
    
  ==> Input QCSchema <==

--------------------------------------------------------------------------
{'driver': 'energy',
 'extras': {'psiapi': True, 'wfn_qcvars_only': True},
 'id': None,
 'keywords': {'SCF_TYPE': 'DF', 'function_kwargs': {}},
 'model': {'basis': 'aug-cc-pvtz', 'method': 'mp2'},
 'molecule': {'atom_labels': ['', '', '', '', '', '', ''],
              'atomic_numbers': [3, 8, 1, 1, 8, 1, 1],
              'extras': {},
              'fix_com': True,
              'fix_orientation': True,
              'fix_symmetry': 'c1',
              'fragment_charges': [1.0, 0.0],
              'fragment_multiplicities': [1, 1],
              'fragments': [[0], [1, 2, 3, 4, 5, 6]],
              'geometry': [0.0, 0.0, 0.0, 3.1561846699432805, 0.0, 0.0, 4.2616820122406125, 1.4432386440697815, 0.0,
                           4.2616820122406125, -1.4432386440697815, 0.0, -3.1561846699432805, 0.0, 0.0,
                           -4.261680122514487, -1.4432386440697815, 0.0, -4.261680122514487, 1.4432386440697815, 0.0],
              'mass_numbers': [7, 16, 1, 1, 16, 1, 1],
              'masses': [7.0160034366, 15.99491461957, 1.00782503223, 1.00782503223, 15.99491461957, 1.00782503223,
                         1.00782503223],
              'molecular_charge': 1.0,
              'molecular_multiplicity': 1,
              'name': 'dimer',
              'provenance': {'creator': 'QCElemental',
                             'routine': 'qcelemental.molparse.from_string',
                             'version': '0.27.1'},
              'real': [True, True, True, True, True, True, True],
              'schema_name': 'qcschema_molecule',
              'schema_version': 2,
              'symbols': ['Li', 'O', 'H', 'H', 'O', 'H', 'H'],
              'validated': True},
 'protocols': {'stdout': True},
 'provenance': {'creator': 'QCElemental', 'routine': 'qcelemental.models.results', 'version': '0.27.1'},
 'schema_name': 'qcschema_input',
 'schema_version': 1}
--------------------------------------------------------------------------

Scratch directory: /scratch/
   => Libint2 <=

    Primary   basis highest AM E, G, H:  5, 4, 3
    Auxiliary basis highest AM E, G, H:  6, 5, 4
    Onebody   basis highest AM E, G, H:  6, 5, 4
    Solid Harmonics ordering:            gaussian

*** tstart() called on moses-razer
*** at Sat Dec 30 16:44:25 2023

   => Loading Basis Set <=

    Name: AUG-CC-PVTZ
    Role: ORBITAL
    Keyword: BASIS
    atoms 1        entry LI         line    85 file /home/kchung25/anaconda3/envs/p415env/share/psi4/basis/aug-cc-pvtz.gbs 
    atoms 2, 5     entry O          line   331 file /home/kchung25/anaconda3/envs/p415env/share/psi4/basis/aug-cc-pvtz.gbs 
    atoms 3-4, 6-7 entry H          line    40 file /home/kchung25/anaconda3/envs/p415env/share/psi4/basis/aug-cc-pvtz.gbs 


         ---------------------------------------------------------
                                   SCF
               by Justin Turney, Rob Parrish, Andy Simmonett
                          and Daniel G. A. Smith
                              RHF Reference
                        6 Threads,  57220 MiB Core
         ---------------------------------------------------------

  ==> Geometry <==

    Molecular point group: c1
    Full point group: C2v

    Geometry (in Bohr), charge = 1, multiplicity = 1:

       Center              X                  Y                   Z               Mass       
    ------------   -----------------  -----------------  -----------------  -----------------
         LI           0.000000000000     0.000000000000     0.000000000000     7.016003436600
         O            3.156184669943     0.000000000000     0.000000000000    15.994914619570
         H            4.261682012241     1.443238644070     0.000000000000     1.007825032230
         H            4.261682012241    -1.443238644070     0.000000000000     1.007825032230
         O           -3.156184669943     0.000000000000     0.000000000000    15.994914619570
         H           -4.261680122514    -1.443238644070     0.000000000000     1.007825032230
         H           -4.261680122514     1.443238644070     0.000000000000     1.007825032230

  Running in c1 symmetry.

  Rotational constants: A =      7.16923  B =      0.15362  C =      0.15039 [cm^-1]
  Rotational constants: A = 214928.25040  B =   4605.30724  C =   4508.69853 [MHz]
  Nuclear repulsion =   51.000286425424221

  Charge       = 1
  Multiplicity = 1
  Electrons    = 22
  Nalpha       = 11
  Nbeta        = 11

  ==> Algorithm <==

  SCF Algorithm Type is DF.
  DIIS enabled.
  MOM disabled.
  Fractional occupation disabled.
  Guess Type is SAD.
  Energy threshold   = 1.00e-08
  Density threshold  = 1.00e-08
  Integral threshold = 1.00e-12

  ==> Primary Basis <==

  Basis Set: AUG-CC-PVTZ
    Blend: AUG-CC-PVTZ
    Number of shells: 78
    Number of basis functions: 230
    Number of Cartesian functions: 265
    Spherical Harmonics?: true
    Max angular momentum: 3

   => Loading Basis Set <=

    Name: (AUG-CC-PVTZ AUX)
    Role: JKFIT
    Keyword: DF_BASIS_SCF
    atoms 1        entry LI         line    54 file /home/kchung25/anaconda3/envs/p415env/share/psi4/basis/def2-universal-jkfit.gbs 
    atoms 2, 5     entry O          line   286 file /home/kchung25/anaconda3/envs/p415env/share/psi4/basis/aug-cc-pvtz-jkfit.gbs 
    atoms 3-4, 6-7 entry H          line    70 file /home/kchung25/anaconda3/envs/p415env/share/psi4/basis/aug-cc-pvtz-jkfit.gbs 

  ==> Integral Setup <==

  DFHelper Memory: AOs need 0.182 GiB; user supplied 41.910 GiB. 
  Using in-core AOs.

  ==> MemDFJK: Density-Fitted J/K Matrices <==

    J tasked:                   Yes
    K tasked:                   Yes
    wK tasked:                   No
    OpenMP threads:               6
    Memory [MiB]:             42915
    Algorithm:                 Core
    Schwarz Cutoff:           1E-12
    Mask sparsity (%):       4.0416
    Fitting Condition:        1E-10

   => Auxiliary Basis Set <=

  Basis Set: (AUG-CC-PVTZ AUX)
    Blend: AUG-CC-PVTZ-JKFIT + DEF2-UNIVERSAL-JKFIT
    Number of shells: 133
    Number of basis functions: 443
    Number of Cartesian functions: 542
    Spherical Harmonics?: true
    Max angular momentum: 4

  Minimum eigenvalue in the overlap matrix is 1.4721763513E-05.
  Reciprocal condition number of the overlap matrix is 1.4286329626E-06.
    Using symmetric orthogonalization.

  ==> Pre-Iterations <==

  SCF Guess: Superposition of Atomic Densities via on-the-fly atomic UHF (no occupation information).

   -------------------------
    Irrep   Nso     Nmo    
   -------------------------
     A        230     230 
   -------------------------
    Total     230     230
   -------------------------

  ==> Iterations <==

                           Total Energy        Delta E     RMS |[F,P]|

   @DF-RHF iter SAD:  -158.48326227569689   -1.58483e+02   0.00000e+00 
   @DF-RHF iter   1:  -159.27735026845863   -7.94088e-01   3.01512e-03 ADIIS/DIIS
   @DF-RHF iter   2:  -159.39522867374015   -1.17878e-01   1.87966e-03 ADIIS/DIIS
   @DF-RHF iter   3:  -159.45140805639574   -5.61794e-02   1.40059e-04 ADIIS/DIIS
   @DF-RHF iter   4:  -159.45215923462931   -7.51178e-04   3.20478e-05 DIIS
   @DF-RHF iter   5:  -159.45220285344055   -4.36188e-05   6.65965e-06 DIIS
   @DF-RHF iter   6:  -159.45220565996294   -2.80652e-06   1.15861e-06 DIIS
   @DF-RHF iter   7:  -159.45220575169552   -9.17326e-08   2.04616e-07 DIIS
   @DF-RHF iter   8:  -159.45220575421538   -2.51987e-09   3.37001e-08 DIIS
   @DF-RHF iter   9:  -159.45220575426140   -4.60147e-11   5.42859e-09 DIIS
  Energy and wave function converged.


  ==> Post-Iterations <==

    Orbital Energies [Eh]
    ---------------------

    Doubly Occupied:                                                      

       1A    -20.796300     2A    -20.796300     3A     -2.599609  
       4A     -1.592932     5A     -1.589648     6A     -0.953000  
       7A     -0.951580     8A     -0.866742     9A     -0.848865  
      10A     -0.755140    11A     -0.750154  

    Virtual:                                                              

      12A     -0.117977    13A     -0.090259    14A     -0.085105  
      15A     -0.075450    16A     -0.052867    17A     -0.051498  
      18A     -0.049165    19A     -0.040822    20A     -0.037824  
      21A     -0.033795    22A     -0.021618    23A     -0.014890  
      24A     -0.014359    25A     -0.013552    26A     -0.007985  
      27A      0.023472    28A      0.036055    29A      0.038354  
      30A      0.039403    31A      0.043708    32A      0.044234  
      33A      0.054732    34A      0.061721    35A      0.071572  
      36A      0.079517    37A      0.097461    38A      0.112902  
      39A      0.113903    40A      0.120728    41A      0.145827  
      42A      0.146281    43A      0.152816    44A      0.160751  
      45A      0.175712    46A      0.199451    47A      0.200902  
      48A      0.218829    49A      0.233882    50A      0.235347  
      51A      0.237162    52A      0.241263    53A      0.248650  
      54A      0.261800    55A      0.269909    56A      0.278160  
      57A      0.280301    58A      0.280679    59A      0.285307  
      60A      0.289984    61A      0.290956    62A      0.303614  
      63A      0.336457    64A      0.340972    65A      0.345021  
      66A      0.350181    67A      0.379623    68A      0.381403  
      69A      0.403856    70A      0.467264    71A      0.509047  
      72A      0.551968    73A      0.568466    74A      0.580004  
      75A      0.584500    76A      0.585057    77A      0.592408  
      78A      0.594427    79A      0.620543    80A      0.629084  
      81A      0.635157    82A      0.668182    83A      0.687522  
      84A      0.688131    85A      0.697376    86A      0.739481  
      87A      0.757543    88A      0.768850    89A      0.775409  
      90A      0.780398    91A      0.783965    92A      0.788712  
      93A      0.814470    94A      0.818220    95A      0.819542  
      96A      0.830418    97A      0.853856    98A      0.858198  
      99A      0.871619   100A      0.916676   101A      0.932102  
     102A      0.940724   103A      0.955639   104A      0.974459  
     105A      0.994086   106A      1.002415   107A      1.009670  
     108A      1.019596   109A      1.029108   110A      1.054710  
     111A      1.073695   112A      1.095018   113A      1.124150  
     114A      1.164421   115A      1.173756   116A      1.202598  
     117A      1.259360   118A      1.267639   119A      1.285360  
     120A      1.332425   121A      1.466897   122A      1.545824  
     123A      1.572574   124A      1.583306   125A      1.595290  
     126A      1.598476   127A      1.625557   128A      1.627810  
     129A      1.659368   130A      1.769242   131A      1.782821  
     132A      1.804047   133A      1.871309   134A      1.916409  
     135A      1.953530   136A      2.019290   137A      2.020736  
     138A      2.069257   139A      2.090695   140A      2.104247  
     141A      2.115607   142A      2.280961   143A      2.288221  
     144A      2.293457   145A      2.297039   146A      2.313757  
     147A      2.375746   148A      2.415118   149A      2.516420  
     150A      2.533614   151A      2.570440   152A      2.579920  
     153A      2.632449   154A      2.654401   155A      2.660570  
     156A      2.667363   157A      2.673232   158A      2.683581  
     159A      2.708990   160A      2.783814   161A      3.028904  
     162A      3.636858   163A      3.648889   164A      3.742813  
     165A      3.746100   166A      3.819031   167A      3.865015  
     168A      3.912153   169A      4.015987   170A      4.023525  
     171A      4.081710   172A      4.088036   173A      4.097526  
     174A      4.168970   175A      4.263546   176A      4.294624  
     177A      4.322101   178A      4.363596   179A      4.377939  
     180A      4.389954   181A      4.420073   182A      4.429347  
     183A      4.517478   184A      4.569612   185A      4.662045  
     186A      4.668788   187A      4.800185   188A      4.924470  
     189A      4.935100   190A      4.944939   191A      4.956388  
     192A      4.957424   193A      4.995882   194A      5.166243  
     195A      5.182763   196A      5.293042   197A      5.307632  
     198A      5.432322   199A      5.851045   200A      5.856470  
     201A      6.088364   202A      6.238558   203A      6.398877  
     204A      6.402440   205A      6.562533   206A      6.564772  
     207A      6.853463   208A      6.874493   209A      6.918517  
     210A      6.929722   211A      7.064233   212A      7.077230  
     213A      7.117916   214A      7.117917   215A      7.137862  
     216A      7.153771   217A      7.155645   218A      7.175442  
     219A      7.297775   220A      7.363040   221A      7.432628  
     222A      7.478898   223A      7.693539   224A      7.694839  
     225A      7.726194   226A      7.726519   227A      8.621416  
     228A      8.631892   229A     15.918201   230A     16.080081  

    Final Occupation by Irrep:
              A 
    DOCC [    11 ]
    NA   [    11 ]
    NB   [    11 ]

  @DF-RHF Final Energy:  -159.45220575426140

   => Energetics <=

    Nuclear Repulsion Energy =             51.0002864254242212
    One-Electron Energy =                -315.9044415019641292
    Two-Electron Energy =                 105.4519493222784803
    Total Energy =                       -159.4522057542613993

Computation Completed


Properties will be evaluated at   0.000000,   0.000000,   0.000000 [a0]

Properties computed using the SCF density matrix


 Multipole Moments:

 ------------------------------------------------------------------------------------
     Multipole            Electronic (a.u.)      Nuclear  (a.u.)        Total (a.u.)
 ------------------------------------------------------------------------------------

 L = 1.  Multiply by 2.5417464519 to convert [e a0] to [Debye]
 Dipole X            :         -0.0000025            0.0000038            0.0000013
 Dipole Y            :          0.0000000            0.0000000            0.0000000
 Dipole Z            :         -0.0000000            0.0000000           -0.0000000
 Magnitude           :                                                    0.0000013

 ------------------------------------------------------------------------------------

*** tstop() called on moses-razer at Sat Dec 30 16:44:26 2023
Module time:
	user time   =       7.01 seconds =       0.12 minutes
	system time =       0.15 seconds =       0.00 minutes
	total time  =          1 seconds =       0.02 minutes
Total time:
	user time   =      23.53 seconds =       0.39 minutes
	system time =       0.80 seconds =       0.01 minutes
	total time  =          4 seconds =       0.07 minutes

*** tstart() called on moses-razer
*** at Sat Dec 30 16:44:26 2023


  //>>>>>>>>>>>>>>>>>>>>>>>>>>>>>>>>>>>//
  //               DFMP2               //
  //<<<<<<<<<<<<<<<<<<<<<<<<<<<<<<<<<<<//

   => Loading Basis Set <=

    Name: (AUG-CC-PVTZ AUX)
    Role: RIFIT
    Keyword: DF_BASIS_MP2
    atoms 1        entry LI         line    90 file /home/kchung25/anaconda3/envs/p415env/share/psi4/basis/def2-qzvpp-ri.gbs 
    atoms 2, 5     entry O          line   264 file /home/kchung25/anaconda3/envs/p415env/share/psi4/basis/aug-cc-pvtz-ri.gbs 
    atoms 3-4, 6-7 entry H          line    30 file /home/kchung25/anaconda3/envs/p415env/share/psi4/basis/aug-cc-pvtz-ri.gbs 

	 --------------------------------------------------------
	                          DF-MP2                         
	      2nd-Order Density-Fitted Moller-Plesset Theory     
	              RMP2 Wavefunction,   6 Threads             
	                                                         
	        Rob Parrish, Justin Turney, Andy Simmonett,      
	           Ed Hohenstein, and C. David Sherrill          
	 --------------------------------------------------------

   => Auxiliary Basis Set <=

  Basis Set: (AUG-CC-PVTZ AUX)
    Blend: AUG-CC-PVTZ-RI + DEF2-QZVPP-RI
    Number of shells: 139
    Number of basis functions: 497
    Number of Cartesian functions: 622
    Spherical Harmonics?: true
    Max angular momentum: 4

	 --------------------------------------------------------
	                 NBF =   230, NAUX =   497
	 --------------------------------------------------------
	   CLASS    FOCC     OCC    AOCC    AVIR     VIR    FVIR
	   PAIRS       0      11      11     219     219       0
	 --------------------------------------------------------

	-----------------------------------------------------------
	 ==================> DF-MP2 Energies <==================== 
	-----------------------------------------------------------
	 Reference Energy          =    -159.4522057542613993 [Eh]
	 Singles Energy            =      -0.0000000000000000 [Eh]
	 Same-Spin Energy          =      -0.1359738665669248 [Eh]
	 Opposite-Spin Energy      =      -0.4427630441563913 [Eh]
	 Correlation Energy        =      -0.5787369107233161 [Eh]
	 Total Energy              =    -160.0309426649847069 [Eh]
	-----------------------------------------------------------
	 ================> DF-SCS-MP2 Energies <================== 
	-----------------------------------------------------------
	 SCS Same-Spin Scale       =       0.3333333333333333 [-]
	 SCS Opposite-Spin Scale   =       1.2000000000000000 [-]
	 SCS Same-Spin Energy      =      -0.0453246221889749 [Eh]
	 SCS Opposite-Spin Energy  =      -0.5313156529876695 [Eh]
	 SCS Correlation Energy    =      -0.5766402751766444 [Eh]
	 SCS Total Energy          =    -160.0288460294380570 [Eh]
	-----------------------------------------------------------


*** tstop() called on moses-razer at Sat Dec 30 16:44:27 2023
Module time:
	user time   =       3.04 seconds =       0.05 minutes
	system time =       0.09 seconds =       0.00 minutes
	total time  =          1 seconds =       0.02 minutes
Total time:
	user time   =      26.58 seconds =       0.44 minutes
	system time =       0.89 seconds =       0.01 minutes
	total time  =          5 seconds =       0.08 minutes

    Psi4 stopped on: Saturday, 30 December 2023 04:44PM
    Psi4 wall time for execution: 0:00:01.91


  //>>>>>>>>>>>>>>>>>>>>>>>>>>>>>>>>>>>//
  //          ManyBody Results         //
  //<<<<<<<<<<<<<<<<<<<<<<<<<<<<<<<<<<<//


   ==> N-Body: Counterpoise Corrected (CP) energies <==

        n-Body     Total Energy            Interaction Energy                          N-body Contribution to Interaction Energy
                   [Eh]                    [Eh]                  [kcal/mol]            [Eh]                  [kcal/mol]
             1  N/A                         0.000000000000        0.000000000000        0.000000000000        0.000000000000
  FULL/RTN   2  N/A                        -0.091247835938      -57.258881512628       -0.091247835938      -57.258881512628


    Psi4 stopped on: Saturday, 30 December 2023 04:44PM
    Psi4 wall time for execution: 0:00:06.56

*** Psi4 exiting successfully. Buy a developer a beer!
