
    -----------------------------------------------------------------------
          Psi4: An Open-Source Ab Initio Electronic Structure Package
                               Psi4 1.9 release

                         Git: Rev {} zzzzzzz 


    D. G. A. Smith, L. A. Burns, A. C. Simmonett, R. M. Parrish,
    M. C. Schieber, R. Galvelis, P. Kraus, H. Kruse, R. Di Remigio,
    A. Alenaizan, A. M. James, S. Lehtola, J. P. Misiewicz, M. Scheurer,
    R. A. Shaw, J. B. Schriber, Y. Xie, Z. L. Glick, D. A. Sirianni,
    J. S. O'Brien, J. M. Waldrop, A. Kumar, E. G. Hohenstein,
    B. P. Pritchard, B. R. Brooks, H. F. Schaefer III, A. Yu. Sokolov,
    K. Patkowski, A. E. DePrince III, U. Bozkaya, R. A. King,
    F. A. Evangelista, J. M. Turney, T. D. Crawford, C. D. Sherrill,
    J. Chem. Phys. 152(18) 184108 (2020). https://doi.org/10.1063/5.0006002

                            Additional Code Authors
    E. T. Seidl, C. L. Janssen, E. F. Valeev, M. L. Leininger,
    J. F. Gonthier, R. M. Richard, H. R. McAlexander, M. Saitow, X. Wang,
    P. Verma, M. H. Lechner, A. Jiang, S. Behnle, A. G. Heide,
    M. F. Herbst, and D. L. Poole

             Previous Authors, Complete List of Code Contributors,
                       and Citations for Specific Modules
    https://github.com/psi4/psi4/blob/master/codemeta.json
    https://github.com/psi4/psi4/graphs/contributors
    http://psicode.org/psi4manual/master/introduction.html#citing-psifour

    -----------------------------------------------------------------------


    Psi4 started on: Saturday, 30 December 2023 04:44PM

    Process ID: 208792
    Host:       moses-razer
    PSIDATADIR: /home/kchung25/anaconda3/envs/psi4_19/share/psi4
    Memory:     500.0 MiB
    Threads:    6
    
  ==> Input File <==

--------------------------------------------------------------------------
MEMORY 60 GB

molecule dimer {
1 1
Li     0.000000     0.000000     0.000000
--
0 1
O      1.855757     0.000000     0.000000
H      2.440761     0.763729     0.000000
H      2.440761    -0.763729     0.000000
O     -1.855757     0.000000     0.000000
H     -2.440760    -0.763729     0.000000
H     -2.440760     0.763729     0.000000

units ang
no_reorient
no_com
symmetry c1
}

set {
basis        aug-cc-pVTZ
scf_type     df
}

energy("mp2", bsse_type="cp")
--------------------------------------------------------------------------

  Memory set to  55.879 GiB by Python driver.

Scratch directory: /scratch/

  //>>>>>>>>>>>>>>>>>>>>>>>>>>>>>>>>>>>>>//
  // ManyBody Setup: N-Body Levels [1, 2]//
  //<<<<<<<<<<<<<<<<<<<<<<<<<<<<<<<<<<<<<//

        Number of 1-body computations:     2
        Number of 2-body computations:     1

    -----------------------------------------------------------------------
          Psi4: An Open-Source Ab Initio Electronic Structure Package
                               Psi4 1.9 release

                         Git: Rev {} zzzzzzz 


    D. G. A. Smith, L. A. Burns, A. C. Simmonett, R. M. Parrish,
    M. C. Schieber, R. Galvelis, P. Kraus, H. Kruse, R. Di Remigio,
    A. Alenaizan, A. M. James, S. Lehtola, J. P. Misiewicz, M. Scheurer,
    R. A. Shaw, J. B. Schriber, Y. Xie, Z. L. Glick, D. A. Sirianni,
    J. S. O'Brien, J. M. Waldrop, A. Kumar, E. G. Hohenstein,
    B. P. Pritchard, B. R. Brooks, H. F. Schaefer III, A. Yu. Sokolov,
    K. Patkowski, A. E. DePrince III, U. Bozkaya, R. A. King,
    F. A. Evangelista, J. M. Turney, T. D. Crawford, C. D. Sherrill,
    J. Chem. Phys. 152(18) 184108 (2020). https://doi.org/10.1063/5.0006002

                            Additional Code Authors
    E. T. Seidl, C. L. Janssen, E. F. Valeev, M. L. Leininger,
    J. F. Gonthier, R. M. Richard, H. R. McAlexander, M. Saitow, X. Wang,
    P. Verma, M. H. Lechner, A. Jiang, S. Behnle, A. G. Heide,
    M. F. Herbst, and D. L. Poole

             Previous Authors, Complete List of Code Contributors,
                       and Citations for Specific Modules
    https://github.com/psi4/psi4/blob/master/codemeta.json
    https://github.com/psi4/psi4/graphs/contributors
    http://psicode.org/psi4manual/master/introduction.html#citing-psifour

    -----------------------------------------------------------------------


    Psi4 started on: Saturday, 30 December 2023 04:44PM

    Process ID: 208792
    Host:       moses-razer
    PSIDATADIR: /home/kchung25/anaconda3/envs/psi4_19/share/psi4
    Memory:     55.9 GiB
    Threads:    6
    
  ==> Input QCSchema <==

--------------------------------------------------------------------------
{'driver': 'energy',
 'extras': {'psiapi': True, 'wfn_qcvars_only': True},
 'id': None,
 'keywords': {'SCF_TYPE': 'DF', 'function_kwargs': {}},
 'model': {'basis': 'aug-cc-pvtz', 'method': 'mp2'},
 'molecule': {'atom_labels': ['', '', '', '', '', '', ''],
              'atomic_numbers': [3, 8, 1, 1, 8, 1, 1],
              'extras': {},
              'fix_com': True,
              'fix_orientation': True,
              'fix_symmetry': 'c1',
              'fragment_charges': [0.0, 0.0],
              'fragment_multiplicities': [1, 1],
              'fragments': [[0], [1, 2, 3, 4, 5, 6]],
              'geometry': [0.0, 0.0, 0.0, 3.506872485401243, 0.0, 0.0, 4.612369827698575, 1.4432386440697815, 0.0,
                           4.612369827698575, -1.4432386440697815, 0.0, -3.506872485401243, 0.0, 0.0,
                           -4.612367937972449, -1.4432386440697815, 0.0, -4.612367937972449, 1.4432386440697815, 0.0],
              'mass_numbers': [7, 16, 1, 1, 16, 1, 1],
              'masses': [7.0160034366, 15.99491461957, 1.00782503223, 1.00782503223, 15.99491461957, 1.00782503223,
                         1.00782503223],
              'molecular_charge': 0.0,
              'molecular_multiplicity': 1,
              'name': 'dimer',
              'provenance': {'creator': 'QCElemental',
                             'routine': 'qcelemental.molparse.from_string',
                             'version': '0.27.1'},
              'real': [False, True, True, True, True, True, True],
              'schema_name': 'qcschema_molecule',
              'schema_version': 2,
              'symbols': ['Li', 'O', 'H', 'H', 'O', 'H', 'H'],
              'validated': True},
 'protocols': {'stdout': True},
 'provenance': {'creator': 'QCElemental', 'routine': 'qcelemental.models.results', 'version': '0.27.1'},
 'schema_name': 'qcschema_input',
 'schema_version': 1}
--------------------------------------------------------------------------

Scratch directory: /scratch/
   => Libint2 <=

    Primary   basis highest AM E, G, H:  5, 4, 3
    Auxiliary basis highest AM E, G, H:  6, 5, 4
    Onebody   basis highest AM E, G, H:  6, 5, 4
    Solid Harmonics ordering:            gaussian

*** tstart() called on moses-razer
*** at Sat Dec 30 16:44:36 2023

   => Loading Basis Set <=

    Name: AUG-CC-PVTZ
    Role: ORBITAL
    Keyword: BASIS
    atoms 1        entry LI         line    85 file /home/kchung25/anaconda3/envs/p415env/share/psi4/basis/aug-cc-pvtz.gbs 
    atoms 2, 5     entry O          line   331 file /home/kchung25/anaconda3/envs/p415env/share/psi4/basis/aug-cc-pvtz.gbs 
    atoms 3-4, 6-7 entry H          line    40 file /home/kchung25/anaconda3/envs/p415env/share/psi4/basis/aug-cc-pvtz.gbs 


         ---------------------------------------------------------
                                   SCF
               by Justin Turney, Rob Parrish, Andy Simmonett
                          and Daniel G. A. Smith
                              RHF Reference
                        6 Threads,  57220 MiB Core
         ---------------------------------------------------------

  ==> Geometry <==

    Molecular point group: c1
    Full point group: C2v

    Geometry (in Bohr), charge = 0, multiplicity = 1:

       Center              X                  Y                   Z               Mass       
    ------------   -----------------  -----------------  -----------------  -----------------
      Gh(LI)          0.000000000000     0.000000000000     0.000000000000     7.016003436600
         O            3.506872485401     0.000000000000     0.000000000000    15.994914619570
         H            4.612369827699     1.443238644070     0.000000000000     1.007825032230
         H            4.612369827699    -1.443238644070     0.000000000000     1.007825032230
         O           -3.506872485401     0.000000000000     0.000000000000    15.994914619570
         H           -4.612367937972    -1.443238644070     0.000000000000     1.007825032230
         H           -4.612367937972     1.443238644070     0.000000000000     1.007825032230

  Running in c1 symmetry.

  Rotational constants: A =      7.16923  B =      0.12563  C =      0.12347 [cm^-1]
  Rotational constants: A = 214928.25040  B =   3766.33103  C =   3701.46775 [MHz]
  Nuclear repulsion =   31.723906651993282

  Charge       = 0
  Multiplicity = 1
  Electrons    = 20
  Nalpha       = 10
  Nbeta        = 10

  ==> Algorithm <==

  SCF Algorithm Type is DF.
  DIIS enabled.
  MOM disabled.
  Fractional occupation disabled.
  Guess Type is SAD.
  Energy threshold   = 1.00e-08
  Density threshold  = 1.00e-08
  Integral threshold = 1.00e-12

  ==> Primary Basis <==

  Basis Set: AUG-CC-PVTZ
    Blend: AUG-CC-PVTZ
    Number of shells: 78
    Number of basis functions: 230
    Number of Cartesian functions: 265
    Spherical Harmonics?: true
    Max angular momentum: 3

   => Loading Basis Set <=

    Name: (AUG-CC-PVTZ AUX)
    Role: JKFIT
    Keyword: DF_BASIS_SCF
    atoms 1        entry LI         line    54 file /home/kchung25/anaconda3/envs/p415env/share/psi4/basis/def2-universal-jkfit.gbs 
    atoms 2, 5     entry O          line   286 file /home/kchung25/anaconda3/envs/p415env/share/psi4/basis/aug-cc-pvtz-jkfit.gbs 
    atoms 3-4, 6-7 entry H          line    70 file /home/kchung25/anaconda3/envs/p415env/share/psi4/basis/aug-cc-pvtz-jkfit.gbs 

  ==> Integral Setup <==

  DFHelper Memory: AOs need 0.181 GiB; user supplied 41.910 GiB. 
  Using in-core AOs.

  ==> MemDFJK: Density-Fitted J/K Matrices <==

    J tasked:                   Yes
    K tasked:                   Yes
    wK tasked:                   No
    OpenMP threads:               6
    Memory [MiB]:             42915
    Algorithm:                 Core
    Schwarz Cutoff:           1E-12
    Mask sparsity (%):       4.9074
    Fitting Condition:        1E-10

   => Auxiliary Basis Set <=

  Basis Set: (AUG-CC-PVTZ AUX)
    Blend: AUG-CC-PVTZ-JKFIT + DEF2-UNIVERSAL-JKFIT
    Number of shells: 133
    Number of basis functions: 443
    Number of Cartesian functions: 542
    Spherical Harmonics?: true
    Max angular momentum: 4

  Minimum eigenvalue in the overlap matrix is 1.8168559331E-05.
  Reciprocal condition number of the overlap matrix is 1.8255150968E-06.
    Using symmetric orthogonalization.

  ==> Pre-Iterations <==

  SCF Guess: Superposition of Atomic Densities via on-the-fly atomic UHF (no occupation information).

   -------------------------
    Irrep   Nso     Nmo    
   -------------------------
     A        230     230 
   -------------------------
    Total     230     230
   -------------------------

  ==> Iterations <==

                           Total Energy        Delta E     RMS |[F,P]|

   @DF-RHF iter SAD:  -150.94513464504675   -1.50945e+02   0.00000e+00 
   @DF-RHF iter   1:  -151.94494101201420   -9.99806e-01   2.90313e-03 ADIIS/DIIS
   @DF-RHF iter   2:  -152.05094480832210   -1.06004e-01   2.00238e-03 ADIIS/DIIS
   @DF-RHF iter   3:  -152.11685901172598   -6.59142e-02   1.35862e-04 ADIIS/DIIS
   @DF-RHF iter   4:  -152.11766759432442   -8.08583e-04   3.29657e-05 DIIS
   @DF-RHF iter   5:  -152.11771973881667   -5.21445e-05   7.55857e-06 DIIS
   @DF-RHF iter   6:  -152.11772412155327   -4.38274e-06   1.66382e-06 DIIS
   @DF-RHF iter   7:  -152.11772435588782   -2.34335e-07   3.08497e-07 DIIS
   @DF-RHF iter   8:  -152.11772436303190   -7.14408e-09   5.32060e-08 DIIS
   @DF-RHF iter   9:  -152.11772436319788   -1.65983e-10   1.31228e-08 DIIS
   @DF-RHF iter  10:  -152.11772436320740   -9.52127e-12   1.92345e-09 DIIS
  Energy and wave function converged.


  ==> Post-Iterations <==

    Orbital Energies [Eh]
    ---------------------

    Doubly Occupied:                                                      

       1A    -20.554984     2A    -20.554983     3A     -1.338062  
       4A     -1.337762     5A     -0.703794     6A     -0.703502  
       7A     -0.572252     8A     -0.565118     9A     -0.497304  
      10A     -0.496115  

    Virtual:                                                              

      11A      0.012400    12A      0.016016    13A      0.019592  
      14A      0.021715    15A      0.049936    16A      0.058615  
      17A      0.061391    18A      0.071565    19A      0.078598  
      20A      0.082546    21A      0.085958    22A      0.088249  
      23A      0.128962    24A      0.129705    25A      0.134187  
      26A      0.168833    27A      0.169287    28A      0.181540  
      29A      0.186324    30A      0.200760    31A      0.202792  
      32A      0.208767    33A      0.214340    34A      0.231809  
      35A      0.237580    36A      0.240417    37A      0.252897  
      38A      0.266203    39A      0.276188    40A      0.302022  
      41A      0.314143    42A      0.322243    43A      0.325131  
      44A      0.371053    45A      0.371482    46A      0.379269  
      47A      0.383618    48A      0.388022    49A      0.404412  
      50A      0.405926    51A      0.411060    52A      0.424261  
      53A      0.426981    54A      0.433836    55A      0.433972  
      56A      0.434579    57A      0.435816    58A      0.437671  
      59A      0.475267    60A      0.479850    61A      0.496752  
      62A      0.506544    63A      0.517959    64A      0.525408  
      65A      0.544412    66A      0.574068    67A      0.581873  
      68A      0.615153    69A      0.681270    70A      0.727071  
      71A      0.742264    72A      0.773874    73A      0.778182  
      74A      0.796196    75A      0.809624    76A      0.822866  
      77A      0.831045    78A      0.846820    79A      0.847179  
      80A      0.849408    81A      0.876346    82A      0.879799  
      83A      0.912229    84A      0.934097    85A      0.944729  
      86A      0.955650    87A      0.969053    88A      0.980491  
      89A      0.981399    90A      0.986826    91A      0.998504  
      92A      1.017420    93A      1.044959    94A      1.045287  
      95A      1.052705    96A      1.066407    97A      1.095007  
      98A      1.107496    99A      1.117220   100A      1.122947  
     101A      1.133832   102A      1.185027   103A      1.189361  
     104A      1.191344   105A      1.204860   106A      1.210989  
     107A      1.222618   108A      1.223777   109A      1.230794  
     110A      1.275758   111A      1.306935   112A      1.325927  
     113A      1.330395   114A      1.446712   115A      1.448439  
     116A      1.458340   117A      1.471579   118A      1.526436  
     119A      1.581366   120A      1.643910   121A      1.652332  
     122A      1.749156   123A      1.758326   124A      1.763709  
     125A      1.805135   126A      1.806803   127A      1.855657  
     128A      1.919963   129A      1.981896   130A      1.994441  
     131A      2.005553   132A      2.076281   133A      2.112077  
     134A      2.146997   135A      2.214326   136A      2.328154  
     137A      2.355461   138A      2.368124   139A      2.378786  
     140A      2.389682   141A      2.400275   142A      2.533416  
     143A      2.567628   144A      2.571299   145A      2.587025  
     146A      2.595294   147A      2.617374   148A      2.674362  
     149A      2.783060   150A      2.816117   151A      2.827375  
     152A      2.828354   153A      2.861369   154A      2.876869  
     155A      2.904226   156A      2.920376   157A      2.937642  
     158A      2.953032   159A      2.956432   160A      3.109195  
     161A      3.578760   162A      3.836646   163A      3.839268  
     164A      3.935788   165A      3.949390   166A      4.036382  
     167A      4.075516   168A      4.222565   169A      4.276007  
     170A      4.276934   171A      4.296410   172A      4.330852  
     173A      4.332027   174A      4.356280   175A      4.445827  
     176A      4.500026   177A      4.565777   178A      4.566498  
     179A      4.578758   180A      4.614842   181A      4.621371  
     182A      4.639919   183A      4.698485   184A      4.841757  
     185A      4.875844   186A      4.943600   187A      4.958788  
     188A      5.154408   189A      5.175153   190A      5.181822  
     191A      5.182836   192A      5.307239   193A      5.327543  
     194A      5.408838   195A      5.426321   196A      5.530581  
     197A      5.540926   198A      5.862904   199A      6.075826  
     200A      6.319865   201A      6.377433   202A      6.636489  
     203A      6.647782   204A      6.781203   205A      6.829120  
     206A      7.006079   207A      7.131099   208A      7.175544  
     209A      7.182199   210A      7.325580   211A      7.333581  
     212A      7.367566   213A      7.369368   214A      7.379281  
     215A      7.392820   216A      7.401413   217A      7.414507  
     218A      7.483358   219A      7.549531   220A      7.686952  
     221A      7.699111   222A      7.950901   223A      7.955109  
     224A      7.965655   225A      7.969949   226A      8.855755  
     227A      8.865295   228A     12.123656   229A     16.019811  
     230A     16.142698  

    Final Occupation by Irrep:
              A 
    DOCC [    10 ]
    NA   [    10 ]
    NB   [    10 ]

  @DF-RHF Final Energy:  -152.11772436320740

   => Energetics <=

    Nuclear Repulsion Energy =             31.7239066519932820
    One-Electron Energy =                -273.0355095948387998
    Two-Electron Energy =                  89.1938785796381381
    Total Energy =                       -152.1177243632074010

Computation Completed


Properties will be evaluated at   0.000000,   0.000000,   0.000000 [a0]

Properties computed using the SCF density matrix


 Multipole Moments:

 ------------------------------------------------------------------------------------
     Multipole            Electronic (a.u.)      Nuclear  (a.u.)        Total (a.u.)
 ------------------------------------------------------------------------------------

 L = 1.  Multiply by 2.5417464519 to convert [e a0] to [Debye]
 Dipole X            :         -0.0000029            0.0000038            0.0000009
 Dipole Y            :         -0.0000000            0.0000000           -0.0000000
 Dipole Z            :          0.0000000            0.0000000            0.0000000
 Magnitude           :                                                    0.0000009

 ------------------------------------------------------------------------------------

*** tstop() called on moses-razer at Sat Dec 30 16:44:37 2023
Module time:
	user time   =       6.20 seconds =       0.10 minutes
	system time =       0.30 seconds =       0.01 minutes
	total time  =          1 seconds =       0.02 minutes
Total time:
	user time   =       6.20 seconds =       0.10 minutes
	system time =       0.30 seconds =       0.01 minutes
	total time  =          1 seconds =       0.02 minutes

*** tstart() called on moses-razer
*** at Sat Dec 30 16:44:37 2023


  //>>>>>>>>>>>>>>>>>>>>>>>>>>>>>>>>>>>//
  //               DFMP2               //
  //<<<<<<<<<<<<<<<<<<<<<<<<<<<<<<<<<<<//

   => Loading Basis Set <=

    Name: (AUG-CC-PVTZ AUX)
    Role: RIFIT
    Keyword: DF_BASIS_MP2
    atoms 1        entry LI         line    90 file /home/kchung25/anaconda3/envs/p415env/share/psi4/basis/def2-qzvpp-ri.gbs 
    atoms 2, 5     entry O          line   264 file /home/kchung25/anaconda3/envs/p415env/share/psi4/basis/aug-cc-pvtz-ri.gbs 
    atoms 3-4, 6-7 entry H          line    30 file /home/kchung25/anaconda3/envs/p415env/share/psi4/basis/aug-cc-pvtz-ri.gbs 

	 --------------------------------------------------------
	                          DF-MP2                         
	      2nd-Order Density-Fitted Moller-Plesset Theory     
	              RMP2 Wavefunction,   6 Threads             
	                                                         
	        Rob Parrish, Justin Turney, Andy Simmonett,      
	           Ed Hohenstein, and C. David Sherrill          
	 --------------------------------------------------------

   => Auxiliary Basis Set <=

  Basis Set: (AUG-CC-PVTZ AUX)
    Blend: AUG-CC-PVTZ-RI + DEF2-QZVPP-RI
    Number of shells: 139
    Number of basis functions: 497
    Number of Cartesian functions: 622
    Spherical Harmonics?: true
    Max angular momentum: 4

	 --------------------------------------------------------
	                 NBF =   230, NAUX =   497
	 --------------------------------------------------------
	   CLASS    FOCC     OCC    AOCC    AVIR     VIR    FVIR
	   PAIRS       0      10      10     220     220       0
	 --------------------------------------------------------

	-----------------------------------------------------------
	 ==================> DF-MP2 Energies <==================== 
	-----------------------------------------------------------
	 Reference Energy          =    -152.1177243632074010 [Eh]
	 Singles Energy            =      -0.0000000000000000 [Eh]
	 Same-Spin Energy          =      -0.1371937290262895 [Eh]
	 Opposite-Spin Energy      =      -0.4323800939949949 [Eh]
	 Correlation Energy        =      -0.5695738230212843 [Eh]
	 Total Energy              =    -152.6872981862286736 [Eh]
	-----------------------------------------------------------
	 ================> DF-SCS-MP2 Energies <================== 
	-----------------------------------------------------------
	 SCS Same-Spin Scale       =       0.3333333333333333 [-]
	 SCS Opposite-Spin Scale   =       1.2000000000000000 [-]
	 SCS Same-Spin Energy      =      -0.0457312430087632 [Eh]
	 SCS Opposite-Spin Energy  =      -0.5188561127939938 [Eh]
	 SCS Correlation Energy    =      -0.5645873558027570 [Eh]
	 SCS Total Energy          =    -152.6823117190101584 [Eh]
	-----------------------------------------------------------


*** tstop() called on moses-razer at Sat Dec 30 16:44:38 2023
Module time:
	user time   =       2.73 seconds =       0.05 minutes
	system time =       0.12 seconds =       0.00 minutes
	total time  =          1 seconds =       0.02 minutes
Total time:
	user time   =       8.93 seconds =       0.15 minutes
	system time =       0.42 seconds =       0.01 minutes
	total time  =          2 seconds =       0.03 minutes

    Psi4 stopped on: Saturday, 30 December 2023 04:44PM
    Psi4 wall time for execution: 0:00:01.77


    -----------------------------------------------------------------------
          Psi4: An Open-Source Ab Initio Electronic Structure Package
                               Psi4 1.9 release

                         Git: Rev {} zzzzzzz 


    D. G. A. Smith, L. A. Burns, A. C. Simmonett, R. M. Parrish,
    M. C. Schieber, R. Galvelis, P. Kraus, H. Kruse, R. Di Remigio,
    A. Alenaizan, A. M. James, S. Lehtola, J. P. Misiewicz, M. Scheurer,
    R. A. Shaw, J. B. Schriber, Y. Xie, Z. L. Glick, D. A. Sirianni,
    J. S. O'Brien, J. M. Waldrop, A. Kumar, E. G. Hohenstein,
    B. P. Pritchard, B. R. Brooks, H. F. Schaefer III, A. Yu. Sokolov,
    K. Patkowski, A. E. DePrince III, U. Bozkaya, R. A. King,
    F. A. Evangelista, J. M. Turney, T. D. Crawford, C. D. Sherrill,
    J. Chem. Phys. 152(18) 184108 (2020). https://doi.org/10.1063/5.0006002

                            Additional Code Authors
    E. T. Seidl, C. L. Janssen, E. F. Valeev, M. L. Leininger,
    J. F. Gonthier, R. M. Richard, H. R. McAlexander, M. Saitow, X. Wang,
    P. Verma, M. H. Lechner, A. Jiang, S. Behnle, A. G. Heide,
    M. F. Herbst, and D. L. Poole

             Previous Authors, Complete List of Code Contributors,
                       and Citations for Specific Modules
    https://github.com/psi4/psi4/blob/master/codemeta.json
    https://github.com/psi4/psi4/graphs/contributors
    http://psicode.org/psi4manual/master/introduction.html#citing-psifour

    -----------------------------------------------------------------------


    Psi4 started on: Saturday, 30 December 2023 04:44PM

    Process ID: 208792
    Host:       moses-razer
    PSIDATADIR: /home/kchung25/anaconda3/envs/psi4_19/share/psi4
    Memory:     55.9 GiB
    Threads:    6
    
  ==> Input QCSchema <==

--------------------------------------------------------------------------
{'driver': 'energy',
 'extras': {'psiapi': True, 'wfn_qcvars_only': True},
 'id': None,
 'keywords': {'SCF_TYPE': 'DF', 'function_kwargs': {}},
 'model': {'basis': 'aug-cc-pvtz', 'method': 'mp2'},
 'molecule': {'atom_labels': ['', '', '', '', '', '', ''],
              'atomic_numbers': [3, 8, 1, 1, 8, 1, 1],
              'extras': {},
              'fix_com': True,
              'fix_orientation': True,
              'fix_symmetry': 'c1',
              'fragment_charges': [1.0, 0.0],
              'fragment_multiplicities': [1, 1],
              'fragments': [[0], [1, 2, 3, 4, 5, 6]],
              'geometry': [0.0, 0.0, 0.0, 3.506872485401243, 0.0, 0.0, 4.612369827698575, 1.4432386440697815, 0.0,
                           4.612369827698575, -1.4432386440697815, 0.0, -3.506872485401243, 0.0, 0.0,
                           -4.612367937972449, -1.4432386440697815, 0.0, -4.612367937972449, 1.4432386440697815, 0.0],
              'mass_numbers': [7, 16, 1, 1, 16, 1, 1],
              'masses': [7.0160034366, 15.99491461957, 1.00782503223, 1.00782503223, 15.99491461957, 1.00782503223,
                         1.00782503223],
              'molecular_charge': 1.0,
              'molecular_multiplicity': 1,
              'name': 'dimer',
              'provenance': {'creator': 'QCElemental',
                             'routine': 'qcelemental.molparse.from_string',
                             'version': '0.27.1'},
              'real': [True, False, False, False, False, False, False],
              'schema_name': 'qcschema_molecule',
              'schema_version': 2,
              'symbols': ['Li', 'O', 'H', 'H', 'O', 'H', 'H'],
              'validated': True},
 'protocols': {'stdout': True},
 'provenance': {'creator': 'QCElemental', 'routine': 'qcelemental.models.results', 'version': '0.27.1'},
 'schema_name': 'qcschema_input',
 'schema_version': 1}
--------------------------------------------------------------------------

Scratch directory: /scratch/
   => Libint2 <=

    Primary   basis highest AM E, G, H:  5, 4, 3
    Auxiliary basis highest AM E, G, H:  6, 5, 4
    Onebody   basis highest AM E, G, H:  6, 5, 4
    Solid Harmonics ordering:            gaussian

*** tstart() called on moses-razer
*** at Sat Dec 30 16:44:38 2023

   => Loading Basis Set <=

    Name: AUG-CC-PVTZ
    Role: ORBITAL
    Keyword: BASIS
    atoms 1        entry LI         line    85 file /home/kchung25/anaconda3/envs/p415env/share/psi4/basis/aug-cc-pvtz.gbs 
    atoms 2, 5     entry O          line   331 file /home/kchung25/anaconda3/envs/p415env/share/psi4/basis/aug-cc-pvtz.gbs 
    atoms 3-4, 6-7 entry H          line    40 file /home/kchung25/anaconda3/envs/p415env/share/psi4/basis/aug-cc-pvtz.gbs 


         ---------------------------------------------------------
                                   SCF
               by Justin Turney, Rob Parrish, Andy Simmonett
                          and Daniel G. A. Smith
                              RHF Reference
                        6 Threads,  57220 MiB Core
         ---------------------------------------------------------

  ==> Geometry <==

    Molecular point group: c1
    Full point group: C2v

    Geometry (in Bohr), charge = 1, multiplicity = 1:

       Center              X                  Y                   Z               Mass       
    ------------   -----------------  -----------------  -----------------  -----------------
         LI           0.000000000000     0.000000000000     0.000000000000     7.016003436600
      Gh(O)           3.506872485401     0.000000000000     0.000000000000    15.994914619570
      Gh(H)           4.612369827699     1.443238644070     0.000000000000     1.007825032230
      Gh(H)           4.612369827699    -1.443238644070     0.000000000000     1.007825032230
      Gh(O)          -3.506872485401     0.000000000000     0.000000000000    15.994914619570
      Gh(H)          -4.612367937972    -1.443238644070     0.000000000000     1.007825032230
      Gh(H)          -4.612367937972     1.443238644070     0.000000000000     1.007825032230

  Running in c1 symmetry.

  Rotational constants: A =      7.16923  B =      0.12563  C =      0.12347 [cm^-1]
  Rotational constants: A = 214928.25040  B =   3766.33103  C =   3701.46775 [MHz]
  Nuclear repulsion =    0.000000000000000

  Charge       = 1
  Multiplicity = 1
  Electrons    = 2
  Nalpha       = 1
  Nbeta        = 1

  ==> Algorithm <==

  SCF Algorithm Type is DF.
  DIIS enabled.
  MOM disabled.
  Fractional occupation disabled.
  Guess Type is SAD.
  Energy threshold   = 1.00e-08
  Density threshold  = 1.00e-08
  Integral threshold = 1.00e-12

  ==> Primary Basis <==

  Basis Set: AUG-CC-PVTZ
    Blend: AUG-CC-PVTZ
    Number of shells: 78
    Number of basis functions: 230
    Number of Cartesian functions: 265
    Spherical Harmonics?: true
    Max angular momentum: 3

   => Loading Basis Set <=

    Name: (AUG-CC-PVTZ AUX)
    Role: JKFIT
    Keyword: DF_BASIS_SCF
    atoms 1        entry LI         line    54 file /home/kchung25/anaconda3/envs/p415env/share/psi4/basis/def2-universal-jkfit.gbs 
    atoms 2, 5     entry O          line   286 file /home/kchung25/anaconda3/envs/p415env/share/psi4/basis/aug-cc-pvtz-jkfit.gbs 
    atoms 3-4, 6-7 entry H          line    70 file /home/kchung25/anaconda3/envs/p415env/share/psi4/basis/aug-cc-pvtz-jkfit.gbs 

  ==> Integral Setup <==

  DFHelper Memory: AOs need 0.181 GiB; user supplied 41.910 GiB. 
  Using in-core AOs.

  ==> MemDFJK: Density-Fitted J/K Matrices <==

    J tasked:                   Yes
    K tasked:                   Yes
    wK tasked:                   No
    OpenMP threads:               6
    Memory [MiB]:             42915
    Algorithm:                 Core
    Schwarz Cutoff:           1E-12
    Mask sparsity (%):       4.9074
    Fitting Condition:        1E-10

   => Auxiliary Basis Set <=

  Basis Set: (AUG-CC-PVTZ AUX)
    Blend: AUG-CC-PVTZ-JKFIT + DEF2-UNIVERSAL-JKFIT
    Number of shells: 133
    Number of basis functions: 443
    Number of Cartesian functions: 542
    Spherical Harmonics?: true
    Max angular momentum: 4

  Minimum eigenvalue in the overlap matrix is 1.8168559331E-05.
  Reciprocal condition number of the overlap matrix is 1.8255150968E-06.
    Using symmetric orthogonalization.

  ==> Pre-Iterations <==

  SCF Guess: Superposition of Atomic Densities via on-the-fly atomic UHF (no occupation information).

   -------------------------
    Irrep   Nso     Nmo    
   -------------------------
     A        230     230 
   -------------------------
    Total     230     230
   -------------------------

  ==> Iterations <==

                           Total Energy        Delta E     RMS |[F,P]|

   @DF-RHF iter SAD:    -7.31431414468936   -7.31431e+00   0.00000e+00 
   @DF-RHF iter   1:    -7.23638210278293    7.79320e-02   9.84248e-06 DIIS
   @DF-RHF iter   2:    -7.23638398588304   -1.88310e-06   1.15911e-06 DIIS
   @DF-RHF iter   3:    -7.23638401544005   -2.95570e-08   5.95907e-08 DIIS
   @DF-RHF iter   4:    -7.23638401549909   -5.90408e-11   5.09682e-10 DIIS
  Energy and wave function converged.


  ==> Post-Iterations <==

    Orbital Energies [Eh]
    ---------------------

    Doubly Occupied:                                                      

       1A     -2.792362  

    Virtual:                                                              

       2A     -0.196301     3A     -0.128606     4A     -0.128596  
       5A     -0.128595     6A     -0.073734     7A     -0.056404  
       8A     -0.056367     9A     -0.056359    10A     -0.050491  
      11A     -0.049535    12A     -0.032028    13A     -0.031512  
      14A     -0.031398    15A     -0.012534    16A     -0.012307  
      17A     -0.011149    18A     -0.008477    19A     -0.004578  
      20A     -0.004539    21A      0.022775    22A      0.024782  
      23A      0.044681    24A      0.068026    25A      0.091270  
      26A      0.095353    27A      0.096349    28A      0.103746  
      29A      0.107868    30A      0.114056    31A      0.118732  
      32A      0.124681    33A      0.127164    34A      0.133578  
      35A      0.134061    36A      0.140709    37A      0.160511  
      38A      0.172051    39A      0.173446    40A      0.180351  
      41A      0.187283    42A      0.197014    43A      0.203981  
      44A      0.228643    45A      0.240707    46A      0.261877  
      47A      0.264630    48A      0.281742    49A      0.282219  
      50A      0.283545    51A      0.284588    52A      0.297101  
      53A      0.312158    54A      0.314319    55A      0.332038  
      56A      0.341267    57A      0.353828    58A      0.383002  
      59A      0.392193    60A      0.412375    61A      0.494749  
      62A      0.501985    63A      0.523738    64A      0.528988  
      65A      0.533213    66A      0.535825    67A      0.559564  
      68A      0.561963    69A      0.567777    70A      0.570207  
      71A      0.594021    72A      0.626140    73A      0.641249  
      74A      0.651774    75A      0.652998    76A      0.674339  
      77A      0.723235    78A      0.725884    79A      0.727414  
      80A      0.748528    81A      0.761308    82A      0.782960  
      83A      0.787565    84A      0.792048    85A      0.801506  
      86A      0.839472    87A      0.843618    88A      0.848587  
      89A      0.871467    90A      0.880902    91A      0.891330  
      92A      0.920831    93A      0.930561    94A      0.942830  
      95A      0.965456    96A      0.967219    97A      0.992086  
      98A      1.016820    99A      1.027683   100A      1.031857  
     101A      1.050294   102A      1.066725   103A      1.082525  
     104A      1.088470   105A      1.121683   106A      1.157424  
     107A      1.168779   108A      1.262437   109A      1.269930  
     110A      1.318771   111A      1.320715   112A      1.405514  
     113A      1.544477   114A      1.565101   115A      1.611043  
     116A      1.626020   117A      1.632088   118A      1.647142  
     119A      1.654278   120A      1.668579   121A      1.735460  
     122A      1.760284   123A      1.838844   124A      1.867208  
     125A      1.886259   126A      1.944733   127A      1.963369  
     128A      2.217626   129A      2.239107   130A      2.243472  
     131A      2.243615   132A      2.264052   133A      2.268284  
     134A      2.274343   135A      2.288967   136A      2.309809  
     137A      2.343499   138A      2.450040   139A      2.498468  
     140A      2.530241   141A      2.577492   142A      2.602994  
     143A      2.637450   144A      2.664455   145A      2.959369  
     146A      2.977213   147A      2.984514   148A      2.994277  
     149A      2.997421   150A      3.082775   151A      3.088831  
     152A      3.097402   153A      3.138702   154A      3.140353  
     155A      3.188214   156A      3.339193   157A      3.456318  
     158A      3.473077   159A      3.486184   160A      3.887693  
     161A      4.144082   162A      4.174349   163A      4.299252  
     164A      4.333334   165A      4.420871   166A      4.432861  
     167A      4.464260   168A      4.484051   169A      4.580515  
     170A      4.597025   171A      4.680881   172A      4.685328  
     173A      4.772659   174A      4.776910   175A      4.788197  
     176A      4.829787   177A      4.887221   178A      5.000285  
     179A      5.013088   180A      5.094442   181A      5.308633  
     182A      5.337837   183A      5.421456   184A      5.444686  
     185A      5.458167   186A      5.462168   187A      5.686320  
     188A      5.711870   189A      5.920284   190A      5.929543  
     191A      6.256964   192A      6.302911   193A      6.461786  
     194A      6.589047   195A      6.846863   196A      6.870069  
     197A      7.410887   198A      7.461388   199A      7.633581  
     200A      7.677589   201A      7.800228   202A      7.811816  
     203A      7.963525   204A      7.986608   205A      7.995657  
     206A      8.004925   207A      8.538879   208A      8.576258  
     209A      8.579276   210A      8.585874   211A      9.555794  
     212A      9.595862   213A      9.655240   214A      9.692774  
     215A      9.729931   216A      9.751394   217A      9.967669  
     218A     10.026431   219A     10.967437   220A     10.992619  
     221A     11.432721   222A     11.438181   223A     11.998777  
     224A     12.002246   225A     13.295678   226A     13.342291  
     227A     13.577360   228A     13.613511   229A     64.846984  
     230A     65.219682  

    Final Occupation by Irrep:
              A 
    DOCC [     1 ]
    NA   [     1 ]
    NB   [     1 ]

  @DF-RHF Final Energy:    -7.23638401549909

   => Energetics <=

    Nuclear Repulsion Energy =              0.0000000000000000
    One-Electron Energy =                  -8.8880436026243697
    Two-Electron Energy =                   1.6516595871252762
    Total Energy =                         -7.2363840154990937

Computation Completed


Properties will be evaluated at   0.000000,   0.000000,   0.000000 [a0]

Properties computed using the SCF density matrix


 Multipole Moments:

 ------------------------------------------------------------------------------------
     Multipole            Electronic (a.u.)      Nuclear  (a.u.)        Total (a.u.)
 ------------------------------------------------------------------------------------

 L = 1.  Multiply by 2.5417464519 to convert [e a0] to [Debye]
 Dipole X            :          0.0000000            0.0000000            0.0000000
 Dipole Y            :         -0.0000000            0.0000000           -0.0000000
 Dipole Z            :          0.0000000            0.0000000            0.0000000
 Magnitude           :                                                    0.0000000

 ------------------------------------------------------------------------------------

*** tstop() called on moses-razer at Sat Dec 30 16:44:39 2023
Module time:
	user time   =       4.73 seconds =       0.08 minutes
	system time =       0.12 seconds =       0.00 minutes
	total time  =          1 seconds =       0.02 minutes
Total time:
	user time   =      13.94 seconds =       0.23 minutes
	system time =       0.54 seconds =       0.01 minutes
	total time  =          3 seconds =       0.05 minutes

*** tstart() called on moses-razer
*** at Sat Dec 30 16:44:39 2023


  //>>>>>>>>>>>>>>>>>>>>>>>>>>>>>>>>>>>//
  //               DFMP2               //
  //<<<<<<<<<<<<<<<<<<<<<<<<<<<<<<<<<<<//

   => Loading Basis Set <=

    Name: (AUG-CC-PVTZ AUX)
    Role: RIFIT
    Keyword: DF_BASIS_MP2
    atoms 1        entry LI         line    90 file /home/kchung25/anaconda3/envs/p415env/share/psi4/basis/def2-qzvpp-ri.gbs 
    atoms 2, 5     entry O          line   264 file /home/kchung25/anaconda3/envs/p415env/share/psi4/basis/aug-cc-pvtz-ri.gbs 
    atoms 3-4, 6-7 entry H          line    30 file /home/kchung25/anaconda3/envs/p415env/share/psi4/basis/aug-cc-pvtz-ri.gbs 

	 --------------------------------------------------------
	                          DF-MP2                         
	      2nd-Order Density-Fitted Moller-Plesset Theory     
	              RMP2 Wavefunction,   6 Threads             
	                                                         
	        Rob Parrish, Justin Turney, Andy Simmonett,      
	           Ed Hohenstein, and C. David Sherrill          
	 --------------------------------------------------------

   => Auxiliary Basis Set <=

  Basis Set: (AUG-CC-PVTZ AUX)
    Blend: AUG-CC-PVTZ-RI + DEF2-QZVPP-RI
    Number of shells: 139
    Number of basis functions: 497
    Number of Cartesian functions: 622
    Spherical Harmonics?: true
    Max angular momentum: 4

	 --------------------------------------------------------
	                 NBF =   230, NAUX =   497
	 --------------------------------------------------------
	   CLASS    FOCC     OCC    AOCC    AVIR     VIR    FVIR
	   PAIRS       0       1       1     229     229       0
	 --------------------------------------------------------

	-----------------------------------------------------------
	 ==================> DF-MP2 Energies <==================== 
	-----------------------------------------------------------
	 Reference Energy          =      -7.2363840154990928 [Eh]
	 Singles Energy            =      -0.0000000000000000 [Eh]
	 Same-Spin Energy          =       0.0000000000000000 [Eh]
	 Opposite-Spin Energy      =      -0.0149796444755541 [Eh]
	 Correlation Energy        =      -0.0149796444755541 [Eh]
	 Total Energy              =      -7.2513636599746469 [Eh]
	-----------------------------------------------------------
	 ================> DF-SCS-MP2 Energies <================== 
	-----------------------------------------------------------
	 SCS Same-Spin Scale       =       0.3333333333333333 [-]
	 SCS Opposite-Spin Scale   =       1.2000000000000000 [-]
	 SCS Same-Spin Energy      =       0.0000000000000000 [Eh]
	 SCS Opposite-Spin Energy  =      -0.0179755733706650 [Eh]
	 SCS Correlation Energy    =      -0.0179755733706650 [Eh]
	 SCS Total Energy          =      -7.2543595888697574 [Eh]
	-----------------------------------------------------------


*** tstop() called on moses-razer at Sat Dec 30 16:44:39 2023
Module time:
	user time   =       2.43 seconds =       0.04 minutes
	system time =       0.08 seconds =       0.00 minutes
	total time  =          0 seconds =       0.00 minutes
Total time:
	user time   =      16.37 seconds =       0.27 minutes
	system time =       0.62 seconds =       0.01 minutes
	total time  =          3 seconds =       0.05 minutes

    Psi4 stopped on: Saturday, 30 December 2023 04:44PM
    Psi4 wall time for execution: 0:00:01.35


    -----------------------------------------------------------------------
          Psi4: An Open-Source Ab Initio Electronic Structure Package
                               Psi4 1.9 release

                         Git: Rev {} zzzzzzz 


    D. G. A. Smith, L. A. Burns, A. C. Simmonett, R. M. Parrish,
    M. C. Schieber, R. Galvelis, P. Kraus, H. Kruse, R. Di Remigio,
    A. Alenaizan, A. M. James, S. Lehtola, J. P. Misiewicz, M. Scheurer,
    R. A. Shaw, J. B. Schriber, Y. Xie, Z. L. Glick, D. A. Sirianni,
    J. S. O'Brien, J. M. Waldrop, A. Kumar, E. G. Hohenstein,
    B. P. Pritchard, B. R. Brooks, H. F. Schaefer III, A. Yu. Sokolov,
    K. Patkowski, A. E. DePrince III, U. Bozkaya, R. A. King,
    F. A. Evangelista, J. M. Turney, T. D. Crawford, C. D. Sherrill,
    J. Chem. Phys. 152(18) 184108 (2020). https://doi.org/10.1063/5.0006002

                            Additional Code Authors
    E. T. Seidl, C. L. Janssen, E. F. Valeev, M. L. Leininger,
    J. F. Gonthier, R. M. Richard, H. R. McAlexander, M. Saitow, X. Wang,
    P. Verma, M. H. Lechner, A. Jiang, S. Behnle, A. G. Heide,
    M. F. Herbst, and D. L. Poole

             Previous Authors, Complete List of Code Contributors,
                       and Citations for Specific Modules
    https://github.com/psi4/psi4/blob/master/codemeta.json
    https://github.com/psi4/psi4/graphs/contributors
    http://psicode.org/psi4manual/master/introduction.html#citing-psifour

    -----------------------------------------------------------------------


    Psi4 started on: Saturday, 30 December 2023 04:44PM

    Process ID: 208792
    Host:       moses-razer
    PSIDATADIR: /home/kchung25/anaconda3/envs/psi4_19/share/psi4
    Memory:     55.9 GiB
    Threads:    6
    
  ==> Input QCSchema <==

--------------------------------------------------------------------------
{'driver': 'energy',
 'extras': {'psiapi': True, 'wfn_qcvars_only': True},
 'id': None,
 'keywords': {'SCF_TYPE': 'DF', 'function_kwargs': {}},
 'model': {'basis': 'aug-cc-pvtz', 'method': 'mp2'},
 'molecule': {'atom_labels': ['', '', '', '', '', '', ''],
              'atomic_numbers': [3, 8, 1, 1, 8, 1, 1],
              'extras': {},
              'fix_com': True,
              'fix_orientation': True,
              'fix_symmetry': 'c1',
              'fragment_charges': [1.0, 0.0],
              'fragment_multiplicities': [1, 1],
              'fragments': [[0], [1, 2, 3, 4, 5, 6]],
              'geometry': [0.0, 0.0, 0.0, 3.506872485401243, 0.0, 0.0, 4.612369827698575, 1.4432386440697815, 0.0,
                           4.612369827698575, -1.4432386440697815, 0.0, -3.506872485401243, 0.0, 0.0,
                           -4.612367937972449, -1.4432386440697815, 0.0, -4.612367937972449, 1.4432386440697815, 0.0],
              'mass_numbers': [7, 16, 1, 1, 16, 1, 1],
              'masses': [7.0160034366, 15.99491461957, 1.00782503223, 1.00782503223, 15.99491461957, 1.00782503223,
                         1.00782503223],
              'molecular_charge': 1.0,
              'molecular_multiplicity': 1,
              'name': 'dimer',
              'provenance': {'creator': 'QCElemental',
                             'routine': 'qcelemental.molparse.from_string',
                             'version': '0.27.1'},
              'real': [True, True, True, True, True, True, True],
              'schema_name': 'qcschema_molecule',
              'schema_version': 2,
              'symbols': ['Li', 'O', 'H', 'H', 'O', 'H', 'H'],
              'validated': True},
 'protocols': {'stdout': True},
 'provenance': {'creator': 'QCElemental', 'routine': 'qcelemental.models.results', 'version': '0.27.1'},
 'schema_name': 'qcschema_input',
 'schema_version': 1}
--------------------------------------------------------------------------

Scratch directory: /scratch/
   => Libint2 <=

    Primary   basis highest AM E, G, H:  5, 4, 3
    Auxiliary basis highest AM E, G, H:  6, 5, 4
    Onebody   basis highest AM E, G, H:  6, 5, 4
    Solid Harmonics ordering:            gaussian

*** tstart() called on moses-razer
*** at Sat Dec 30 16:44:39 2023

   => Loading Basis Set <=

    Name: AUG-CC-PVTZ
    Role: ORBITAL
    Keyword: BASIS
    atoms 1        entry LI         line    85 file /home/kchung25/anaconda3/envs/p415env/share/psi4/basis/aug-cc-pvtz.gbs 
    atoms 2, 5     entry O          line   331 file /home/kchung25/anaconda3/envs/p415env/share/psi4/basis/aug-cc-pvtz.gbs 
    atoms 3-4, 6-7 entry H          line    40 file /home/kchung25/anaconda3/envs/p415env/share/psi4/basis/aug-cc-pvtz.gbs 


         ---------------------------------------------------------
                                   SCF
               by Justin Turney, Rob Parrish, Andy Simmonett
                          and Daniel G. A. Smith
                              RHF Reference
                        6 Threads,  57220 MiB Core
         ---------------------------------------------------------

  ==> Geometry <==

    Molecular point group: c1
    Full point group: C2v

    Geometry (in Bohr), charge = 1, multiplicity = 1:

       Center              X                  Y                   Z               Mass       
    ------------   -----------------  -----------------  -----------------  -----------------
         LI           0.000000000000     0.000000000000     0.000000000000     7.016003436600
         O            3.506872485401     0.000000000000     0.000000000000    15.994914619570
         H            4.612369827699     1.443238644070     0.000000000000     1.007825032230
         H            4.612369827699    -1.443238644070     0.000000000000     1.007825032230
         O           -3.506872485401     0.000000000000     0.000000000000    15.994914619570
         H           -4.612367937972    -1.443238644070     0.000000000000     1.007825032230
         H           -4.612367937972     1.443238644070     0.000000000000     1.007825032230

  Running in c1 symmetry.

  Rotational constants: A =      7.16923  B =      0.12563  C =      0.12347 [cm^-1]
  Rotational constants: A = 214928.25040  B =   3766.33103  C =   3701.46775 [MHz]
  Nuclear repulsion =   47.894299465111501

  Charge       = 1
  Multiplicity = 1
  Electrons    = 22
  Nalpha       = 11
  Nbeta        = 11

  ==> Algorithm <==

  SCF Algorithm Type is DF.
  DIIS enabled.
  MOM disabled.
  Fractional occupation disabled.
  Guess Type is SAD.
  Energy threshold   = 1.00e-08
  Density threshold  = 1.00e-08
  Integral threshold = 1.00e-12

  ==> Primary Basis <==

  Basis Set: AUG-CC-PVTZ
    Blend: AUG-CC-PVTZ
    Number of shells: 78
    Number of basis functions: 230
    Number of Cartesian functions: 265
    Spherical Harmonics?: true
    Max angular momentum: 3

   => Loading Basis Set <=

    Name: (AUG-CC-PVTZ AUX)
    Role: JKFIT
    Keyword: DF_BASIS_SCF
    atoms 1        entry LI         line    54 file /home/kchung25/anaconda3/envs/p415env/share/psi4/basis/def2-universal-jkfit.gbs 
    atoms 2, 5     entry O          line   286 file /home/kchung25/anaconda3/envs/p415env/share/psi4/basis/aug-cc-pvtz-jkfit.gbs 
    atoms 3-4, 6-7 entry H          line    70 file /home/kchung25/anaconda3/envs/p415env/share/psi4/basis/aug-cc-pvtz-jkfit.gbs 

  ==> Integral Setup <==

  DFHelper Memory: AOs need 0.181 GiB; user supplied 41.910 GiB. 
  Using in-core AOs.

  ==> MemDFJK: Density-Fitted J/K Matrices <==

    J tasked:                   Yes
    K tasked:                   Yes
    wK tasked:                   No
    OpenMP threads:               6
    Memory [MiB]:             42915
    Algorithm:                 Core
    Schwarz Cutoff:           1E-12
    Mask sparsity (%):       4.9074
    Fitting Condition:        1E-10

   => Auxiliary Basis Set <=

  Basis Set: (AUG-CC-PVTZ AUX)
    Blend: AUG-CC-PVTZ-JKFIT + DEF2-UNIVERSAL-JKFIT
    Number of shells: 133
    Number of basis functions: 443
    Number of Cartesian functions: 542
    Spherical Harmonics?: true
    Max angular momentum: 4

  Minimum eigenvalue in the overlap matrix is 1.8168559331E-05.
  Reciprocal condition number of the overlap matrix is 1.8255150968E-06.
    Using symmetric orthogonalization.

  ==> Pre-Iterations <==

  SCF Guess: Superposition of Atomic Densities via on-the-fly atomic UHF (no occupation information).

   -------------------------
    Irrep   Nso     Nmo    
   -------------------------
     A        230     230 
   -------------------------
    Total     230     230
   -------------------------

  ==> Iterations <==

                           Total Energy        Delta E     RMS |[F,P]|

   @DF-RHF iter SAD:  -158.44176972276119   -1.58442e+02   0.00000e+00 
   @DF-RHF iter   1:  -159.29574623614528   -8.53977e-01   2.92039e-03 ADIIS/DIIS
   @DF-RHF iter   2:  -159.40660583417537   -1.10860e-01   1.85105e-03 ADIIS/DIIS
   @DF-RHF iter   3:  -159.46127613964151   -5.46703e-02   1.39586e-04 ADIIS/DIIS
   @DF-RHF iter   4:  -159.46204037133103   -7.64232e-04   3.14295e-05 DIIS
   @DF-RHF iter   5:  -159.46208292882235   -4.25575e-05   6.62885e-06 DIIS
   @DF-RHF iter   6:  -159.46208576079036   -2.83197e-06   1.23355e-06 DIIS
   @DF-RHF iter   7:  -159.46208586772377   -1.06933e-07   2.17031e-07 DIIS
   @DF-RHF iter   8:  -159.46208587058860   -2.86482e-09   3.27708e-08 DIIS
   @DF-RHF iter   9:  -159.46208587063359   -4.49916e-11   5.78320e-09 DIIS
  Energy and wave function converged.


  ==> Post-Iterations <==

    Orbital Energies [Eh]
    ---------------------

    Doubly Occupied:                                                      

       1A    -20.788546     2A    -20.788546     3A     -2.623177  
       4A     -1.578231     5A     -1.577084     6A     -0.940026  
       7A     -0.939422     8A     -0.843668     9A     -0.835296  
      10A     -0.740386    11A     -0.737888  

    Virtual:                                                              

      12A     -0.117407    13A     -0.088526    14A     -0.085596  
      15A     -0.076235    16A     -0.054001    17A     -0.050302  
      18A     -0.048702    19A     -0.042396    20A     -0.036745  
      21A     -0.035764    22A     -0.021528    23A     -0.014305  
      24A     -0.013598    25A     -0.013065    26A     -0.004162  
      27A      0.022383    28A      0.032600    29A      0.037673  
      30A      0.040206    31A      0.042056    32A      0.045979  
      33A      0.054062    34A      0.070805    35A      0.074628  
      36A      0.076370    37A      0.096647    38A      0.112965  
      39A      0.116274    40A      0.117764    41A      0.145370  
      42A      0.148711    43A      0.154175    44A      0.162059  
      45A      0.175329    46A      0.192609    47A      0.210341  
      48A      0.218031    49A      0.226710    50A      0.228437  
      51A      0.230527    52A      0.235699    53A      0.249641  
      54A      0.250251    55A      0.254382    56A      0.270318  
      57A      0.279091    58A      0.282118    59A      0.283419  
      60A      0.284842    61A      0.285176    62A      0.306986  
      63A      0.328518    64A      0.339952    65A      0.349472  
      66A      0.351067    67A      0.367058    68A      0.394611  
      69A      0.406173    70A      0.473110    71A      0.488089  
      72A      0.515491    73A      0.565216    74A      0.568882  
      75A      0.578688    76A      0.581845    77A      0.593743  
      78A      0.595036    79A      0.614678    80A      0.639451  
      81A      0.642203    82A      0.658847    83A      0.665857  
      84A      0.676693    85A      0.681220    86A      0.722260  
      87A      0.735914    88A      0.738805    89A      0.742130  
      90A      0.758808    91A      0.762029    92A      0.774225  
      93A      0.803469    94A      0.807540    95A      0.810118  
      96A      0.822187    97A      0.825923    98A      0.842048  
      99A      0.844032   100A      0.919521   101A      0.928953  
     102A      0.929423   103A      0.943381   104A      0.945039  
     105A      0.985406   106A      0.993771   107A      0.997779  
     108A      1.011377   109A      1.030396   110A      1.033866  
     111A      1.058747   112A      1.074642   113A      1.088223  
     114A      1.094165   115A      1.137149   116A      1.138493  
     117A      1.219346   118A      1.242295   119A      1.249291  
     120A      1.272564   121A      1.436655   122A      1.465912  
     123A      1.530519   124A      1.535557   125A      1.547447  
     126A      1.550085   127A      1.583230   128A      1.584436  
     129A      1.661046   130A      1.752494   131A      1.753263  
     132A      1.829477   133A      1.868244   134A      1.889287  
     135A      1.942474   136A      1.978712   137A      1.985266  
     138A      2.078349   139A      2.099243   140A      2.112350  
     141A      2.123495   142A      2.243294   143A      2.305181  
     144A      2.313710   145A      2.322832   146A      2.324333  
     147A      2.347638   148A      2.379496   149A      2.535599  
     150A      2.545180   151A      2.546532   152A      2.569728  
     153A      2.617353   154A      2.638677   155A      2.638684  
     156A      2.665386   157A      2.670182   158A      2.684704  
     159A      2.688119   160A      2.691253   161A      2.909781  
     162A      3.598366   163A      3.602284   164A      3.688449  
     165A      3.729875   166A      3.748101   167A      3.819820  
     168A      3.859142   169A      3.994966   170A      4.044921  
     171A      4.078856   172A      4.109990   173A      4.110909  
     174A      4.131916   175A      4.147325   176A      4.151459  
     177A      4.285717   178A      4.337107   179A      4.338734  
     180A      4.359017   181A      4.408482   182A      4.415717  
     183A      4.473745   184A      4.592556   185A      4.655834  
     186A      4.685837   187A      4.686435   188A      4.724297  
     189A      4.934783   190A      4.952873   191A      4.953825  
     192A      4.955276   193A      5.053342   194A      5.071178  
     195A      5.192303   196A      5.262957   197A      5.304436  
     198A      5.314534   199A      5.628394   200A      5.802471  
     201A      6.104380   202A      6.129662   203A      6.401460  
     204A      6.411916   205A      6.523973   206A      6.572730  
     207A      6.771620   208A      6.836846   209A      6.932138  
     210A      6.939531   211A      7.080018   212A      7.087614  
     213A      7.123543   214A      7.127164   215A      7.137332  
     216A      7.157157   217A      7.160458   218A      7.178507  
     219A      7.236710   220A      7.340041   221A      7.453592  
     222A      7.460008   223A      7.708260   224A      7.711388  
     225A      7.718519   226A      7.725913   227A      8.619801  
     228A      8.630079   229A     15.775250   230A     15.908301  

    Final Occupation by Irrep:
              A 
    DOCC [    11 ]
    NA   [    11 ]
    NB   [    11 ]

  @DF-RHF Final Energy:  -159.46208587063359

   => Energetics <=

    Nuclear Repulsion Energy =             47.8942994651115015
    One-Electron Energy =                -309.9282296943424058
    Two-Electron Energy =                 102.5718443585973318
    Total Energy =                       -159.4620858706335866

Computation Completed


Properties will be evaluated at   0.000000,   0.000000,   0.000000 [a0]

Properties computed using the SCF density matrix


 Multipole Moments:

 ------------------------------------------------------------------------------------
     Multipole            Electronic (a.u.)      Nuclear  (a.u.)        Total (a.u.)
 ------------------------------------------------------------------------------------

 L = 1.  Multiply by 2.5417464519 to convert [e a0] to [Debye]
 Dipole X            :         -0.0000026            0.0000038            0.0000012
 Dipole Y            :         -0.0000000            0.0000000           -0.0000000
 Dipole Z            :          0.0000000            0.0000000            0.0000000
 Magnitude           :                                                    0.0000012

 ------------------------------------------------------------------------------------

*** tstop() called on moses-razer at Sat Dec 30 16:44:40 2023
Module time:
	user time   =       6.56 seconds =       0.11 minutes
	system time =       0.18 seconds =       0.00 minutes
	total time  =          1 seconds =       0.02 minutes
Total time:
	user time   =      23.23 seconds =       0.39 minutes
	system time =       0.81 seconds =       0.01 minutes
	total time  =          4 seconds =       0.07 minutes

*** tstart() called on moses-razer
*** at Sat Dec 30 16:44:40 2023


  //>>>>>>>>>>>>>>>>>>>>>>>>>>>>>>>>>>>//
  //               DFMP2               //
  //<<<<<<<<<<<<<<<<<<<<<<<<<<<<<<<<<<<//

   => Loading Basis Set <=

    Name: (AUG-CC-PVTZ AUX)
    Role: RIFIT
    Keyword: DF_BASIS_MP2
    atoms 1        entry LI         line    90 file /home/kchung25/anaconda3/envs/p415env/share/psi4/basis/def2-qzvpp-ri.gbs 
    atoms 2, 5     entry O          line   264 file /home/kchung25/anaconda3/envs/p415env/share/psi4/basis/aug-cc-pvtz-ri.gbs 
    atoms 3-4, 6-7 entry H          line    30 file /home/kchung25/anaconda3/envs/p415env/share/psi4/basis/aug-cc-pvtz-ri.gbs 

	 --------------------------------------------------------
	                          DF-MP2                         
	      2nd-Order Density-Fitted Moller-Plesset Theory     
	              RMP2 Wavefunction,   6 Threads             
	                                                         
	        Rob Parrish, Justin Turney, Andy Simmonett,      
	           Ed Hohenstein, and C. David Sherrill          
	 --------------------------------------------------------

   => Auxiliary Basis Set <=

  Basis Set: (AUG-CC-PVTZ AUX)
    Blend: AUG-CC-PVTZ-RI + DEF2-QZVPP-RI
    Number of shells: 139
    Number of basis functions: 497
    Number of Cartesian functions: 622
    Spherical Harmonics?: true
    Max angular momentum: 4

	 --------------------------------------------------------
	                 NBF =   230, NAUX =   497
	 --------------------------------------------------------
	   CLASS    FOCC     OCC    AOCC    AVIR     VIR    FVIR
	   PAIRS       0      11      11     219     219       0
	 --------------------------------------------------------

	-----------------------------------------------------------
	 ==================> DF-MP2 Energies <==================== 
	-----------------------------------------------------------
	 Reference Energy          =    -159.4620858706335866 [Eh]
	 Singles Energy            =      -0.0000000000000000 [Eh]
	 Same-Spin Energy          =      -0.1359483330169034 [Eh]
	 Opposite-Spin Energy      =      -0.4422320826654506 [Eh]
	 Correlation Energy        =      -0.5781804156823540 [Eh]
	 Total Energy              =    -160.0402662863159549 [Eh]
	-----------------------------------------------------------
	 ================> DF-SCS-MP2 Energies <================== 
	-----------------------------------------------------------
	 SCS Same-Spin Scale       =       0.3333333333333333 [-]
	 SCS Opposite-Spin Scale   =       1.2000000000000000 [-]
	 SCS Same-Spin Energy      =      -0.0453161110056345 [Eh]
	 SCS Opposite-Spin Energy  =      -0.5306784991985407 [Eh]
	 SCS Correlation Energy    =      -0.5759946102041752 [Eh]
	 SCS Total Energy          =    -160.0380804808377491 [Eh]
	-----------------------------------------------------------


*** tstop() called on moses-razer at Sat Dec 30 16:44:41 2023
Module time:
	user time   =       2.85 seconds =       0.05 minutes
	system time =       0.11 seconds =       0.00 minutes
	total time  =          1 seconds =       0.02 minutes
Total time:
	user time   =      26.09 seconds =       0.43 minutes
	system time =       0.92 seconds =       0.02 minutes
	total time  =          5 seconds =       0.08 minutes

    Psi4 stopped on: Saturday, 30 December 2023 04:44PM
    Psi4 wall time for execution: 0:00:01.78


  //>>>>>>>>>>>>>>>>>>>>>>>>>>>>>>>>>>>//
  //          ManyBody Results         //
  //<<<<<<<<<<<<<<<<<<<<<<<<<<<<<<<<<<<//


   ==> N-Body: Counterpoise Corrected (CP) energies <==

        n-Body     Total Energy            Interaction Energy                          N-body Contribution to Interaction Energy
                   [Eh]                    [Eh]                  [kcal/mol]            [Eh]                  [kcal/mol]
             1  N/A                         0.000000000000        0.000000000000        0.000000000000        0.000000000000
  FULL/RTN   2  N/A                        -0.101604440113      -63.757748748534       -0.101604440113      -63.757748748534


    Psi4 stopped on: Saturday, 30 December 2023 04:44PM
    Psi4 wall time for execution: 0:00:06.54

*** Psi4 exiting successfully. Buy a developer a beer!
