
    -----------------------------------------------------------------------
          Psi4: An Open-Source Ab Initio Electronic Structure Package
                               Psi4 1.8.2 release

                         Git: Rev {} zzzzzzz 


    D. G. A. Smith, L. A. Burns, A. C. Simmonett, R. M. Parrish,
    M. C. Schieber, R. Galvelis, P. Kraus, H. Kruse, R. Di Remigio,
    A. Alenaizan, A. M. James, S. Lehtola, J. P. Misiewicz, M. Scheurer,
    R. A. Shaw, J. B. Schriber, Y. Xie, Z. L. Glick, D. A. Sirianni,
    J. S. O'Brien, J. M. Waldrop, A. Kumar, E. G. Hohenstein,
    B. P. Pritchard, B. R. Brooks, H. F. Schaefer III, A. Yu. Sokolov,
    K. Patkowski, A. E. DePrince III, U. Bozkaya, R. A. King,
    F. A. Evangelista, J. M. Turney, T. D. Crawford, C. D. Sherrill,
    J. Chem. Phys. 152(18) 184108 (2020). https://doi.org/10.1063/5.0006002

                            Additional Code Authors
    E. T. Seidl, C. L. Janssen, E. F. Valeev, M. L. Leininger,
    J. F. Gonthier, R. M. Richard, H. R. McAlexander, M. Saitow, X. Wang,
    P. Verma, M. H. Lechner, A. Jiang, S. Behnle, A. G. Heide,
    M. F. Herbst, and D. L. Poole

             Previous Authors, Complete List of Code Contributors,
                       and Citations for Specific Modules
    https://github.com/psi4/psi4/blob/master/codemeta.json
    https://github.com/psi4/psi4/graphs/contributors
    http://psicode.org/psi4manual/master/introduction.html#citing-psifour

    -----------------------------------------------------------------------


    Psi4 started on: Monday, 22 January 2024 11:12AM

    Process ID: 36748
    Host:       ddmfs1
    PSIDATADIR: /ddmfs1b/softs/psi4conda/share/psi4
    Memory:     500.0 MiB
    Threads:    20
    
  ==> Input File <==

--------------------------------------------------------------------------
MEMORY 60 GB

molecule dimer {
1 1
Li         0.000000     0.000000     0.000000
O          2.412484     0.000000     0.000000
H          2.997488     0.763729     0.000000
H          2.997488    -0.763729     0.000000
O         -2.412484     0.000000     0.000000
H         -2.997487    -0.763729     0.000000
H         -2.997487     0.763729     0.000000

units ang
no_reorient
no_com
symmetry c1
}

set {
basis        aug-cc-pVTZ
scf_type     df
}

energy("mp2")
--------------------------------------------------------------------------

  Memory set to  55.879 GiB by Python driver.

Scratch directory: /ddmfs1a/scratch/
   => Libint2 <=

    Primary   basis highest AM E, G, H:  5, 4, 3
    Auxiliary basis highest AM E, G, H:  6, 5, 4
    Onebody   basis highest AM E, G, H:  6, 5, 4
    Solid Harmonics ordering:            gaussian

*** tstart() called on ddmfs1
*** at Mon Jan 22 11:12:19 2024

   => Loading Basis Set <=

    Name: AUG-CC-PVTZ
    Role: ORBITAL
    Keyword: BASIS
    atoms 1        entry LI         line    85 file /ddmfs1b/softs/psi4conda/share/psi4/basis/aug-cc-pvtz.gbs 
    atoms 2, 5     entry O          line   331 file /ddmfs1b/softs/psi4conda/share/psi4/basis/aug-cc-pvtz.gbs 
    atoms 3-4, 6-7 entry H          line    40 file /ddmfs1b/softs/psi4conda/share/psi4/basis/aug-cc-pvtz.gbs 


         ---------------------------------------------------------
                                   SCF
               by Justin Turney, Rob Parrish, Andy Simmonett
                          and Daniel G. A. Smith
                              RHF Reference
                       20 Threads,  57220 MiB Core
         ---------------------------------------------------------

  ==> Geometry <==

    Molecular point group: c1
    Full point group: C2v

    Geometry (in Angstrom), charge = 1, multiplicity = 1:

       Center              X                  Y                   Z               Mass       
    ------------   -----------------  -----------------  -----------------  -----------------
         LI           0.000000000000     0.000000000000     0.000000000000     7.016003436600
         O            2.412484000000     0.000000000000     0.000000000000    15.994914619570
         H            2.997488000000     0.763729000000     0.000000000000     1.007825032230
         H            2.997488000000    -0.763729000000     0.000000000000     1.007825032230
         O           -2.412484000000     0.000000000000     0.000000000000    15.994914619570
         H           -2.997487000000    -0.763729000000     0.000000000000     1.007825032230
         H           -2.997487000000     0.763729000000     0.000000000000     1.007825032230

  Running in c1 symmetry.

  Rotational constants: A =      7.16923  B =      0.07580  C =      0.07500 [cm^-1]
  Rotational constants: A = 214928.25040  B =   2272.34380  C =   2248.57063 [MHz]
  Nuclear repulsion =   41.342642826493503

  Charge       = 1
  Multiplicity = 1
  Electrons    = 22
  Nalpha       = 11
  Nbeta        = 11

  ==> Algorithm <==

  SCF Algorithm Type is DF.
  DIIS enabled.
  MOM disabled.
  Fractional occupation disabled.
  Guess Type is SAD.
  Energy threshold   = 1.00e-08
  Density threshold  = 1.00e-08
  Integral threshold = 1.00e-12

  ==> Primary Basis <==

  Basis Set: AUG-CC-PVTZ
    Blend: AUG-CC-PVTZ
    Number of shells: 78
    Number of basis functions: 230
    Number of Cartesian functions: 265
    Spherical Harmonics?: true
    Max angular momentum: 3

   => Loading Basis Set <=

    Name: (AUG-CC-PVTZ AUX)
    Role: JKFIT
    Keyword: DF_BASIS_SCF
    atoms 1        entry LI         line    54 file /ddmfs1b/softs/psi4conda/share/psi4/basis/def2-universal-jkfit.gbs 
    atoms 2, 5     entry O          line   286 file /ddmfs1b/softs/psi4conda/share/psi4/basis/aug-cc-pvtz-jkfit.gbs 
    atoms 3-4, 6-7 entry H          line    70 file /ddmfs1b/softs/psi4conda/share/psi4/basis/aug-cc-pvtz-jkfit.gbs 

  ==> Integral Setup <==

  DFHelper Memory: AOs need 0.176 GiB; user supplied 41.910 GiB. 
  Using in-core AOs.

  ==> MemDFJK: Density-Fitted J/K Matrices <==

    J tasked:                   Yes
    K tasked:                   Yes
    wK tasked:                   No
    OpenMP threads:              20
    Memory [MiB]:             42915
    Algorithm:                 Core
    Schwarz Cutoff:           1E-12
    Mask sparsity (%):      10.4802
    Fitting Condition:        1E-10

   => Auxiliary Basis Set <=

  Basis Set: (AUG-CC-PVTZ AUX)
    Blend: AUG-CC-PVTZ-JKFIT + DEF2-UNIVERSAL-JKFIT
    Number of shells: 133
    Number of basis functions: 443
    Number of Cartesian functions: 542
    Spherical Harmonics?: true
    Max angular momentum: 4

  Minimum eigenvalue in the overlap matrix is 5.0764193705E-05.
  Reciprocal condition number of the overlap matrix is 5.5739166491E-06.
    Using symmetric orthogonalization.

  ==> Pre-Iterations <==

  SCF Guess: Superposition of Atomic Densities via on-the-fly atomic UHF (no occupation information).

   -------------------------
    Irrep   Nso     Nmo    
   -------------------------
     A        230     230 
   -------------------------
    Total     230     230
   -------------------------

  ==> Iterations <==

                           Total Energy        Delta E     RMS |[F,P]|

   @DF-RHF iter SAD:  -158.36947633046401   -1.58369e+02   0.00000e+00 
   @DF-RHF iter   1:  -159.27826098379978   -9.08785e-01   2.82381e-03 DIIS/ADIIS
   @DF-RHF iter   2:  -159.38033310626906   -1.02072e-01   1.85629e-03 DIIS/ADIIS
   @DF-RHF iter   3:  -159.43583626781935   -5.55032e-02   1.37467e-04 DIIS/ADIIS
   @DF-RHF iter   4:  -159.43662343649595   -7.87169e-04   3.03064e-05 DIIS
   @DF-RHF iter   5:  -159.43666476373167   -4.13272e-05   6.68512e-06 DIIS
   @DF-RHF iter   6:  -159.43666778613391   -3.02240e-06   1.38580e-06 DIIS
   @DF-RHF iter   7:  -159.43666792905060   -1.42917e-07   2.42583e-07 DIIS
   @DF-RHF iter   8:  -159.43666793281980   -3.76920e-09   3.42203e-08 DIIS
   @DF-RHF iter   9:  -159.43666793287341   -5.36033e-11   7.11151e-09 DIIS
  Energy and wave function converged.


  ==> Post-Iterations <==

    Orbital Energies [Eh]
    ---------------------

    Doubly Occupied:                                                      

       1A    -20.757366     2A    -20.757366     3A     -2.688560  
       4A     -1.540348     5A     -1.540295     6A     -0.904677  
       7A     -0.904625     8A     -0.789745     9A     -0.788952  
      10A     -0.702302    11A     -0.701966  

    Virtual:                                                              

      12A     -0.124112    13A     -0.089916    14A     -0.083483  
      15A     -0.082258    16A     -0.061203    17A     -0.047225  
      18A     -0.047044    19A     -0.046707    20A     -0.042445  
      21A     -0.033634    22A     -0.020455    23A     -0.015712  
      24A     -0.011951    25A     -0.011495    26A      0.003297  
      27A      0.016750    28A      0.018563    29A      0.021561  
      30A      0.041828    31A      0.045941    32A      0.052573  
      33A      0.056846    34A      0.075223    35A      0.082740  
      36A      0.083264    37A      0.093636    38A      0.108807  
      39A      0.108845    40A      0.111619    41A      0.144359  
      42A      0.150835    43A      0.154450    44A      0.163052  
      45A      0.171867    46A      0.175731    47A      0.191634  
      48A      0.192142    49A      0.195116    50A      0.204962  
      51A      0.219385    52A      0.220363    53A      0.237267  
      54A      0.245323    55A      0.257949    56A      0.259240  
      57A      0.263793    58A      0.264472    59A      0.282347  
      60A      0.283623    61A      0.296157    62A      0.303282  
      63A      0.317012    64A      0.324872    65A      0.335981  
      66A      0.341959    67A      0.342905    68A      0.359958  
      69A      0.388991    70A      0.438801    71A      0.529715  
      72A      0.549882    73A      0.564243    74A      0.575069  
      75A      0.583341    76A      0.585255    77A      0.587053  
      78A      0.587235    79A      0.604039    80A      0.605191  
      81A      0.632597    82A      0.632916    83A      0.633814  
      84A      0.640522    85A      0.650879    86A      0.669888  
      87A      0.679157    88A      0.688346    89A      0.709560  
      90A      0.711327    91A      0.721757    92A      0.744593  
      93A      0.757193    94A      0.784317    95A      0.793785  
      96A      0.794660    97A      0.807442    98A      0.817654  
      99A      0.821668   100A      0.877089   101A      0.894006  
     102A      0.896733   103A      0.925132   104A      0.930355  
     105A      0.932784   106A      0.949373   107A      0.949678  
     108A      0.954597   109A      1.002157   110A      1.033744  
     111A      1.047227   112A      1.053326   113A      1.066587  
     114A      1.081885   115A      1.100734   116A      1.110574  
     117A      1.114814   118A      1.124116   119A      1.203286  
     120A      1.205590   121A      1.276427   122A      1.355959  
     123A      1.381311   124A      1.427450   125A      1.456215  
     126A      1.456688   127A      1.497539   128A      1.508436  
     129A      1.627281   130A      1.667697   131A      1.680001  
     132A      1.773948   133A      1.795456   134A      1.851278  
     135A      1.862044   136A      1.944384   137A      1.978989  
     138A      2.127350   139A      2.131440   140A      2.136990  
     141A      2.145567   142A      2.211453   143A      2.242633  
     144A      2.246252   145A      2.250311   146A      2.330831  
     147A      2.332897   148A      2.379517   149A      2.382958  
     150A      2.562707   151A      2.565770   152A      2.575324  
     153A      2.584884   154A      2.631220   155A      2.642285  
     156A      2.651960   157A      2.700530   158A      2.702943  
     159A      2.708963   160A      2.714925   161A      2.738333  
     162A      3.422358   163A      3.556747   164A      3.610834  
     165A      3.620608   166A      3.641666   167A      3.840779  
     168A      3.854713   169A      3.957652   170A      4.025988  
     171A      4.050579   172A      4.059650   173A      4.097071  
     174A      4.119358   175A      4.130669   176A      4.131621  
     177A      4.236206   178A      4.315532   179A      4.325471  
     180A      4.335720   181A      4.344333   182A      4.349433  
     183A      4.359046   184A      4.369079   185A      4.616000  
     186A      4.667276   187A      4.689407   188A      4.706676  
     189A      4.961497   190A      4.970760   191A      4.971049  
     192A      4.978543   193A      5.085123   194A      5.086415  
     195A      5.166305   196A      5.186156   197A      5.336054  
     198A      5.340036   199A      5.606975   200A      5.620002  
     201A      6.062167   202A      6.104484   203A      6.425443  
     204A      6.436563   205A      6.536635   206A      6.539876  
     207A      6.736262   208A      6.788927   209A      6.970048  
     210A      6.972931   211A      7.117728   212A      7.120817  
     213A      7.138781   214A      7.143184   215A      7.159801  
     216A      7.171012   217A      7.180339   218A      7.193031  
     219A      7.265909   220A      7.275346   221A      7.421441  
     222A      7.475405   223A      7.730314   224A      7.739946  
     225A      7.741657   226A      7.747510   227A      8.623224  
     228A      8.634773   229A     15.625317   230A     15.721310  

    Final Occupation by Irrep:
              A 
    DOCC [    11 ]
    NA   [    11 ]
    NB   [    11 ]

  @DF-RHF Final Energy:  -159.43666793287341

   => Energetics <=

    Nuclear Repulsion Energy =             41.3426428264935026
    One-Electron Energy =                -297.4062147267430873
    Two-Electron Energy =                  96.6269039673761938
    Total Energy =                       -159.4366679328734051

Computation Completed


Properties will be evaluated at   0.000000,   0.000000,   0.000000 [a0]

Properties computed using the SCF density matrix


 Multipole Moments:

 ------------------------------------------------------------------------------------
     Multipole            Electronic (a.u.)      Nuclear  (a.u.)        Total (a.u.)
 ------------------------------------------------------------------------------------

 L = 1.  Multiply by 2.5417464519 to convert [e a0] to [Debye]
 Dipole X            :         -0.0000027            0.0000038            0.0000010
 Dipole Y            :         -0.0000000            0.0000000           -0.0000000
 Dipole Z            :         -0.0000000            0.0000000           -0.0000000
 Magnitude           :                                                    0.0000010

 ------------------------------------------------------------------------------------

*** tstop() called on ddmfs1 at Mon Jan 22 11:12:21 2024
Module time:
	user time   =      20.70 seconds =       0.34 minutes
	system time =       1.28 seconds =       0.02 minutes
	total time  =          2 seconds =       0.03 minutes
Total time:
	user time   =      20.70 seconds =       0.34 minutes
	system time =       1.28 seconds =       0.02 minutes
	total time  =          2 seconds =       0.03 minutes

*** tstart() called on ddmfs1
*** at Mon Jan 22 11:12:21 2024


  //>>>>>>>>>>>>>>>>>>>>>>>>>>>>>>>>>>>//
  //               DFMP2               //
  //<<<<<<<<<<<<<<<<<<<<<<<<<<<<<<<<<<<//

   => Loading Basis Set <=

    Name: (AUG-CC-PVTZ AUX)
    Role: RIFIT
    Keyword: DF_BASIS_MP2
    atoms 1        entry LI         line    90 file /ddmfs1b/softs/psi4conda/share/psi4/basis/def2-qzvpp-ri.gbs 
    atoms 2, 5     entry O          line   264 file /ddmfs1b/softs/psi4conda/share/psi4/basis/aug-cc-pvtz-ri.gbs 
    atoms 3-4, 6-7 entry H          line    30 file /ddmfs1b/softs/psi4conda/share/psi4/basis/aug-cc-pvtz-ri.gbs 

	 --------------------------------------------------------
	                          DF-MP2                         
	      2nd-Order Density-Fitted Moller-Plesset Theory     
	              RMP2 Wavefunction,  20 Threads             
	                                                         
	        Rob Parrish, Justin Turney, Andy Simmonett,      
	           Ed Hohenstein, and C. David Sherrill          
	 --------------------------------------------------------

   => Auxiliary Basis Set <=

  Basis Set: (AUG-CC-PVTZ AUX)
    Blend: AUG-CC-PVTZ-RI + DEF2-QZVPP-RI
    Number of shells: 139
    Number of basis functions: 497
    Number of Cartesian functions: 622
    Spherical Harmonics?: true
    Max angular momentum: 4

	 --------------------------------------------------------
	                 NBF =   230, NAUX =   497
	 --------------------------------------------------------
	   CLASS    FOCC     OCC    AOCC    AVIR     VIR    FVIR
	   PAIRS       0      11      11     219     219       0
	 --------------------------------------------------------

	-----------------------------------------------------------
	 ==================> DF-MP2 Energies <==================== 
	-----------------------------------------------------------
	 Reference Energy          =    -159.4366679328734051 [Eh]
	 Singles Energy            =      -0.0000000000000000 [Eh]
	 Same-Spin Energy          =      -0.1363691908596253 [Eh]
	 Opposite-Spin Energy      =      -0.4416538733954572 [Eh]
	 Correlation Energy        =      -0.5780230642550825 [Eh]
	 Total Energy              =    -160.0146909971284970 [Eh]
	-----------------------------------------------------------
	 ================> DF-SCS-MP2 Energies <================== 
	-----------------------------------------------------------
	 SCS Same-Spin Scale       =       0.3333333333333333 [-]
	 SCS Opposite-Spin Scale   =       1.2000000000000000 [-]
	 SCS Same-Spin Energy      =      -0.0454563969532084 [Eh]
	 SCS Opposite-Spin Energy  =      -0.5299846480745486 [Eh]
	 SCS Correlation Energy    =      -0.5754410450277571 [Eh]
	 SCS Total Energy          =    -160.0121089779011641 [Eh]
	-----------------------------------------------------------


*** tstop() called on ddmfs1 at Mon Jan 22 11:12:22 2024
Module time:
	user time   =       7.81 seconds =       0.13 minutes
	system time =       0.44 seconds =       0.01 minutes
	total time  =          1 seconds =       0.02 minutes
Total time:
	user time   =      28.52 seconds =       0.48 minutes
	system time =       1.72 seconds =       0.03 minutes
	total time  =          3 seconds =       0.05 minutes

    Psi4 stopped on: Monday, 22 January 2024 11:12AM
    Psi4 wall time for execution: 0:00:02.49

*** Psi4 exiting successfully. Buy a developer a beer!
