
    -----------------------------------------------------------------------
          Psi4: An Open-Source Ab Initio Electronic Structure Package
                               Psi4 1.8.2 release

                         Git: Rev {} zzzzzzz 


    D. G. A. Smith, L. A. Burns, A. C. Simmonett, R. M. Parrish,
    M. C. Schieber, R. Galvelis, P. Kraus, H. Kruse, R. Di Remigio,
    A. Alenaizan, A. M. James, S. Lehtola, J. P. Misiewicz, M. Scheurer,
    R. A. Shaw, J. B. Schriber, Y. Xie, Z. L. Glick, D. A. Sirianni,
    J. S. O'Brien, J. M. Waldrop, A. Kumar, E. G. Hohenstein,
    B. P. Pritchard, B. R. Brooks, H. F. Schaefer III, A. Yu. Sokolov,
    K. Patkowski, A. E. DePrince III, U. Bozkaya, R. A. King,
    F. A. Evangelista, J. M. Turney, T. D. Crawford, C. D. Sherrill,
    J. Chem. Phys. 152(18) 184108 (2020). https://doi.org/10.1063/5.0006002

                            Additional Code Authors
    E. T. Seidl, C. L. Janssen, E. F. Valeev, M. L. Leininger,
    J. F. Gonthier, R. M. Richard, H. R. McAlexander, M. Saitow, X. Wang,
    P. Verma, M. H. Lechner, A. Jiang, S. Behnle, A. G. Heide,
    M. F. Herbst, and D. L. Poole

             Previous Authors, Complete List of Code Contributors,
                       and Citations for Specific Modules
    https://github.com/psi4/psi4/blob/master/codemeta.json
    https://github.com/psi4/psi4/graphs/contributors
    http://psicode.org/psi4manual/master/introduction.html#citing-psifour

    -----------------------------------------------------------------------


    Psi4 started on: Monday, 22 January 2024 11:15AM

    Process ID: 37628
    Host:       ddmfs1
    PSIDATADIR: /ddmfs1b/softs/psi4conda/share/psi4
    Memory:     500.0 MiB
    Threads:    20
    
  ==> Input File <==

--------------------------------------------------------------------------
MEMORY 60 GB

molecule dimer {
1 1
Na         0.000000     0.000000     0.000000
O          2.905549     0.000000     0.000000
H          3.494507     0.759416     0.000000
H          3.494507    -0.759416     0.000000
O         -2.905549     0.000000     0.000000
H         -3.494507    -0.759416     0.000000
H         -3.494507     0.759416     0.000000

units ang
no_reorient
no_com
symmetry c1
}

set {
basis        aug-cc-pVTZ
scf_type     df
}

energy("mp2")
--------------------------------------------------------------------------

  Memory set to  55.879 GiB by Python driver.

Scratch directory: /ddmfs1a/scratch/
   => Libint2 <=

    Primary   basis highest AM E, G, H:  5, 4, 3
    Auxiliary basis highest AM E, G, H:  6, 5, 4
    Onebody   basis highest AM E, G, H:  6, 5, 4
    Solid Harmonics ordering:            gaussian

*** tstart() called on ddmfs1
*** at Mon Jan 22 11:15:43 2024

   => Loading Basis Set <=

    Name: AUG-CC-PVTZ
    Role: ORBITAL
    Keyword: BASIS
    atoms 1        entry NA         line   469 file /ddmfs1b/softs/psi4conda/share/psi4/basis/aug-cc-pvtz.gbs 
    atoms 2, 5     entry O          line   331 file /ddmfs1b/softs/psi4conda/share/psi4/basis/aug-cc-pvtz.gbs 
    atoms 3-4, 6-7 entry H          line    40 file /ddmfs1b/softs/psi4conda/share/psi4/basis/aug-cc-pvtz.gbs 


         ---------------------------------------------------------
                                   SCF
               by Justin Turney, Rob Parrish, Andy Simmonett
                          and Daniel G. A. Smith
                              RHF Reference
                       20 Threads,  57220 MiB Core
         ---------------------------------------------------------

  ==> Geometry <==

    Molecular point group: c1
    Full point group: D2h

    Geometry (in Angstrom), charge = 1, multiplicity = 1:

       Center              X                  Y                   Z               Mass       
    ------------   -----------------  -----------------  -----------------  -----------------
         NA           0.000000000000     0.000000000000     0.000000000000    22.989769282000
         O            2.905549000000     0.000000000000     0.000000000000    15.994914619570
         H            3.494507000000     0.759416000000     0.000000000000     1.007825032230
         H            3.494507000000    -0.759416000000     0.000000000000     1.007825032230
         O           -2.905549000000     0.000000000000     0.000000000000    15.994914619570
         H           -3.494507000000    -0.759416000000     0.000000000000     1.007825032230
         H           -3.494507000000     0.759416000000     0.000000000000     1.007825032230

  Running in c1 symmetry.

  Rotational constants: A =      7.25090  B =      0.05280  C =      0.05241 [cm^-1]
  Rotational constants: A = 217376.49454  B =   1582.80366  C =   1571.36195 [MHz]
  Nuclear repulsion =   65.637234123907575

  Charge       = 1
  Multiplicity = 1
  Electrons    = 30
  Nalpha       = 15
  Nbeta        = 15

  ==> Algorithm <==

  SCF Algorithm Type is DF.
  DIIS enabled.
  MOM disabled.
  Fractional occupation disabled.
  Guess Type is SAD.
  Energy threshold   = 1.00e-08
  Density threshold  = 1.00e-08
  Integral threshold = 1.00e-12

  ==> Primary Basis <==

  Basis Set: AUG-CC-PVTZ
    Blend: AUG-CC-PVTZ
    Number of shells: 80
    Number of basis functions: 234
    Number of Cartesian functions: 269
    Spherical Harmonics?: true
    Max angular momentum: 3

   => Loading Basis Set <=

    Name: (AUG-CC-PVTZ AUX)
    Role: JKFIT
    Keyword: DF_BASIS_SCF
    atoms 1        entry NA         line   498 file /ddmfs1b/softs/psi4conda/share/psi4/basis/def2-universal-jkfit.gbs 
    atoms 2, 5     entry O          line   286 file /ddmfs1b/softs/psi4conda/share/psi4/basis/aug-cc-pvtz-jkfit.gbs 
    atoms 3-4, 6-7 entry H          line    70 file /ddmfs1b/softs/psi4conda/share/psi4/basis/aug-cc-pvtz-jkfit.gbs 

  ==> Integral Setup <==

  DFHelper Memory: AOs need 0.197 GiB; user supplied 41.910 GiB. 
  Using in-core AOs.

  ==> MemDFJK: Density-Fitted J/K Matrices <==

    J tasked:                   Yes
    K tasked:                   Yes
    wK tasked:                   No
    OpenMP threads:              20
    Memory [MiB]:             42915
    Algorithm:                 Core
    Schwarz Cutoff:           1E-12
    Mask sparsity (%):      14.5737
    Fitting Condition:        1E-10

   => Auxiliary Basis Set <=

  Basis Set: (AUG-CC-PVTZ AUX)
    Blend: AUG-CC-PVTZ-JKFIT + DEF2-UNIVERSAL-JKFIT
    Number of shells: 150
    Number of basis functions: 504
    Number of Cartesian functions: 619
    Spherical Harmonics?: true
    Max angular momentum: 4

  Minimum eigenvalue in the overlap matrix is 1.5572730947E-04.
  Reciprocal condition number of the overlap matrix is 1.7595227120E-05.
    Using symmetric orthogonalization.

  ==> Pre-Iterations <==

  SCF Guess: Superposition of Atomic Densities via on-the-fly atomic UHF (no occupation information).

   -------------------------
    Irrep   Nso     Nmo    
   -------------------------
     A        234     234 
   -------------------------
    Total     234     234
   -------------------------

  ==> Iterations <==

                           Total Energy        Delta E     RMS |[F,P]|

   @DF-RHF iter SAD:  -312.76352206387827   -3.12764e+02   0.00000e+00 
   @DF-RHF iter   1:  -313.68888476387804   -9.25363e-01   2.80071e-03 ADIIS/DIIS
   @DF-RHF iter   2:  -313.79185456776781   -1.02970e-01   1.86212e-03 ADIIS/DIIS
   @DF-RHF iter   3:  -313.84988200628635   -5.80274e-02   1.32881e-04 ADIIS/DIIS
   @DF-RHF iter   4:  -313.85064832956454   -7.66323e-04   2.96662e-05 DIIS
   @DF-RHF iter   5:  -313.85068979526449   -4.14657e-05   6.56448e-06 DIIS
   @DF-RHF iter   6:  -313.85069288600101   -3.09074e-06   1.37648e-06 DIIS
   @DF-RHF iter   7:  -313.85069303550785   -1.49507e-07   2.42522e-07 DIIS
   @DF-RHF iter   8:  -313.85069303951065   -4.00280e-09   3.58050e-08 DIIS
   @DF-RHF iter   9:  -313.85069303957374   -6.30962e-11   7.73314e-09 DIIS
  Energy and wave function converged.


  ==> Post-Iterations <==

    Orbital Energies [Eh]
    ---------------------

    Doubly Occupied:                                                      

       1A    -40.695895     2A    -20.729456     3A    -20.729456  
       4A     -3.009060     5A     -1.733069     6A     -1.732821  
       7A     -1.731101     8A     -1.513499     9A     -1.513465  
      10A     -0.876747    11A     -0.876745    12A     -0.757681  
      13A     -0.757108    14A     -0.674105    15A     -0.674090  

    Virtual:                                                              

      16A     -0.128966    17A     -0.085527    18A     -0.080392  
      19A     -0.078256    20A     -0.063286    21A     -0.045680  
      22A     -0.045023    23A     -0.042505    24A     -0.039671  
      25A     -0.037488    26A     -0.037486    27A     -0.033441  
      28A     -0.032093    29A     -0.018971    30A     -0.018753  
      31A     -0.003076    32A      0.009533    33A      0.011909  
      34A      0.014723    35A      0.028007    36A      0.032035  
      37A      0.056973    38A      0.068355    39A      0.068808  
      40A      0.084138    41A      0.084366    42A      0.088143  
      43A      0.088397    44A      0.095021    45A      0.096595  
      46A      0.103305    47A      0.113868    48A      0.122783  
      49A      0.126533    50A      0.128064    51A      0.135075  
      52A      0.142083    53A      0.163523    54A      0.164854  
      55A      0.188842    56A      0.189652    57A      0.198034  
      58A      0.200124    59A      0.225555    60A      0.226172  
      61A      0.237116    62A      0.237270    63A      0.260127  
      64A      0.266256    65A      0.277923    66A      0.289130  
      67A      0.290033    68A      0.294984    69A      0.337169  
      70A      0.342931    71A      0.346072    72A      0.350396  
      73A      0.357728    74A      0.367704    75A      0.416506  
      76A      0.416716    77A      0.417896    78A      0.420425  
      79A      0.429945    80A      0.459786    81A      0.507769  
      82A      0.518934    83A      0.534329    84A      0.536281  
      85A      0.536920    86A      0.550691    87A      0.562786  
      88A      0.570923    89A      0.588793    90A      0.595179  
      91A      0.629609    92A      0.634356    93A      0.681057  
      94A      0.695236    95A      0.707704    96A      0.709437  
      97A      0.709619    98A      0.724791    99A      0.768956  
     100A      0.776569   101A      0.804052   102A      0.816065  
     103A      0.826377   104A      0.840318   105A      0.856680  
     106A      0.869782   107A      0.884222   108A      0.889320  
     109A      0.926336   110A      0.940807   111A      0.944684  
     112A      0.946402   113A      0.961839   114A      0.971169  
     115A      0.989307   116A      1.008911   117A      1.042467  
     118A      1.054546   119A      1.056480   120A      1.066789  
     121A      1.083502   122A      1.109785   123A      1.136147  
     124A      1.172480   125A      1.206284   126A      1.243978  
     127A      1.370391   128A      1.374519   129A      1.407638  
     130A      1.458479   131A      1.472112   132A      1.476644  
     133A      1.532627   134A      1.690166   135A      1.692922  
     136A      1.701887   137A      1.737761   138A      1.846195  
     139A      1.862382   140A      1.957207   141A      1.976959  
     142A      2.034254   143A      2.125008   144A      2.150358  
     145A      2.157862   146A      2.158884   147A      2.199570  
     148A      2.243341   149A      2.249545   150A      2.255074  
     151A      2.311684   152A      2.357740   153A      2.359116  
     154A      2.364216   155A      2.558979   156A      2.570347  
     157A      2.575454   158A      2.581442   159A      2.581801  
     160A      2.607751   161A      2.646864   162A      2.679818  
     163A      2.728927   164A      2.730600   165A      2.734804  
     166A      2.766404   167A      3.568725   168A      3.586821  
     169A      3.620973   170A      3.635754   171A      3.866703  
     172A      3.871456   173A      3.948885   174A      3.973623  
     175A      4.056164   176A      4.069345   177A      4.122045  
     178A      4.137527   179A      4.140356   180A      4.146056  
     181A      4.235994   182A      4.266959   183A      4.269605  
     184A      4.279442   185A      4.297990   186A      4.353763  
     187A      4.369116   188A      4.378376   189A      4.627985  
     190A      4.633311   191A      4.696681   192A      4.700799  
     193A      4.994448   194A      4.994779   195A      4.996788  
     196A      4.996821   197A      5.098700   198A      5.099247  
     199A      5.187355   200A      5.194192   201A      5.366424  
     202A      5.368484   203A      5.530707   204A      5.577115  
     205A      6.072082   206A      6.097585   207A      6.425148  
     208A      6.454416   209A      6.548324   210A      6.555932  
     211A      6.753523   212A      6.762712   213A      6.987924  
     214A      6.994453   215A      7.134560   216A      7.150939  
     217A      7.152323   218A      7.157770   219A      7.164218  
     220A      7.172951   221A      7.203583   222A      7.211032  
     223A      7.271940   224A      7.295430   225A      7.414362  
     226A      7.422728   227A      7.756933   228A      7.760491  
     229A      7.761713   230A      7.761799   231A      8.660017  
     232A      8.662182   233A     15.657690   234A     15.662055  

    Final Occupation by Irrep:
              A 
    DOCC [    15 ]
    NA   [    15 ]
    NB   [    15 ]

  @DF-RHF Final Energy:  -313.85069303957374

   => Energetics <=

    Nuclear Repulsion Energy =             65.6372341239075752
    One-Electron Energy =                -562.9672501867767096
    Two-Electron Energy =                 183.4793230232953647
    Total Energy =                       -313.8506930395737982

Computation Completed


Properties will be evaluated at   0.000000,   0.000000,   0.000000 [a0]

Properties computed using the SCF density matrix


 Multipole Moments:

 ------------------------------------------------------------------------------------
     Multipole            Electronic (a.u.)      Nuclear  (a.u.)        Total (a.u.)
 ------------------------------------------------------------------------------------

 L = 1.  Multiply by 2.5417464519 to convert [e a0] to [Debye]
 Dipole X            :         -0.0000000            0.0000000           -0.0000000
 Dipole Y            :          0.0000000            0.0000000            0.0000000
 Dipole Z            :         -0.0000000            0.0000000           -0.0000000
 Magnitude           :                                                    0.0000000

 ------------------------------------------------------------------------------------

*** tstop() called on ddmfs1 at Mon Jan 22 11:15:46 2024
Module time:
	user time   =      36.64 seconds =       0.61 minutes
	system time =       4.80 seconds =       0.08 minutes
	total time  =          3 seconds =       0.05 minutes
Total time:
	user time   =      36.64 seconds =       0.61 minutes
	system time =       4.80 seconds =       0.08 minutes
	total time  =          3 seconds =       0.05 minutes

*** tstart() called on ddmfs1
*** at Mon Jan 22 11:15:46 2024


  //>>>>>>>>>>>>>>>>>>>>>>>>>>>>>>>>>>>//
  //               DFMP2               //
  //<<<<<<<<<<<<<<<<<<<<<<<<<<<<<<<<<<<//

   => Loading Basis Set <=

    Name: (AUG-CC-PVTZ AUX)
    Role: RIFIT
    Keyword: DF_BASIS_MP2
    atoms 1        entry NA         line   610 file /ddmfs1b/softs/psi4conda/share/psi4/basis/def2-qzvpp-ri.gbs 
    atoms 2, 5     entry O          line   264 file /ddmfs1b/softs/psi4conda/share/psi4/basis/aug-cc-pvtz-ri.gbs 
    atoms 3-4, 6-7 entry H          line    30 file /ddmfs1b/softs/psi4conda/share/psi4/basis/aug-cc-pvtz-ri.gbs 

	 --------------------------------------------------------
	                          DF-MP2                         
	      2nd-Order Density-Fitted Moller-Plesset Theory     
	              RMP2 Wavefunction,  20 Threads             
	                                                         
	        Rob Parrish, Justin Turney, Andy Simmonett,      
	           Ed Hohenstein, and C. David Sherrill          
	 --------------------------------------------------------

   => Auxiliary Basis Set <=

  Basis Set: (AUG-CC-PVTZ AUX)
    Blend: AUG-CC-PVTZ-RI + DEF2-QZVPP-RI
    Number of shells: 154
    Number of basis functions: 562
    Number of Cartesian functions: 706
    Spherical Harmonics?: true
    Max angular momentum: 4

	 --------------------------------------------------------
	                 NBF =   234, NAUX =   562
	 --------------------------------------------------------
	   CLASS    FOCC     OCC    AOCC    AVIR     VIR    FVIR
	   PAIRS       0      15      15     219     219       0
	 --------------------------------------------------------

	-----------------------------------------------------------
	 ==================> DF-MP2 Energies <==================== 
	-----------------------------------------------------------
	 Reference Energy          =    -313.8506930395737413 [Eh]
	 Singles Energy            =      -0.0000000000000000 [Eh]
	 Same-Spin Energy          =      -0.1394101887688995 [Eh]
	 Opposite-Spin Energy      =      -0.4400248789932102 [Eh]
	 Correlation Energy        =      -0.5794350677621097 [Eh]
	 Total Energy              =    -314.4301281073358609 [Eh]
	-----------------------------------------------------------
	 ================> DF-SCS-MP2 Energies <================== 
	-----------------------------------------------------------
	 SCS Same-Spin Scale       =       0.3333333333333333 [-]
	 SCS Opposite-Spin Scale   =       1.2000000000000000 [-]
	 SCS Same-Spin Energy      =      -0.0464700629229665 [Eh]
	 SCS Opposite-Spin Energy  =      -0.5280298547918523 [Eh]
	 SCS Correlation Energy    =      -0.5744999177148188 [Eh]
	 SCS Total Energy          =    -314.4251929572885729 [Eh]
	-----------------------------------------------------------


*** tstop() called on ddmfs1 at Mon Jan 22 11:15:49 2024
Module time:
	user time   =      12.80 seconds =       0.21 minutes
	system time =       1.13 seconds =       0.02 minutes
	total time  =          3 seconds =       0.05 minutes
Total time:
	user time   =      49.45 seconds =       0.82 minutes
	system time =       5.93 seconds =       0.10 minutes
	total time  =          6 seconds =       0.10 minutes

    Psi4 stopped on: Monday, 22 January 2024 11:15AM
    Psi4 wall time for execution: 0:00:05.93

*** Psi4 exiting successfully. Buy a developer a beer!
