
    -----------------------------------------------------------------------
          Psi4: An Open-Source Ab Initio Electronic Structure Package
                               Psi4 1.9 release

                         Git: Rev {} zzzzzzz 


    D. G. A. Smith, L. A. Burns, A. C. Simmonett, R. M. Parrish,
    M. C. Schieber, R. Galvelis, P. Kraus, H. Kruse, R. Di Remigio,
    A. Alenaizan, A. M. James, S. Lehtola, J. P. Misiewicz, M. Scheurer,
    R. A. Shaw, J. B. Schriber, Y. Xie, Z. L. Glick, D. A. Sirianni,
    J. S. O'Brien, J. M. Waldrop, A. Kumar, E. G. Hohenstein,
    B. P. Pritchard, B. R. Brooks, H. F. Schaefer III, A. Yu. Sokolov,
    K. Patkowski, A. E. DePrince III, U. Bozkaya, R. A. King,
    F. A. Evangelista, J. M. Turney, T. D. Crawford, C. D. Sherrill,
    J. Chem. Phys. 152(18) 184108 (2020). https://doi.org/10.1063/5.0006002

                            Additional Code Authors
    E. T. Seidl, C. L. Janssen, E. F. Valeev, M. L. Leininger,
    J. F. Gonthier, R. M. Richard, H. R. McAlexander, M. Saitow, X. Wang,
    P. Verma, M. H. Lechner, A. Jiang, S. Behnle, A. G. Heide,
    M. F. Herbst, and D. L. Poole

             Previous Authors, Complete List of Code Contributors,
                       and Citations for Specific Modules
    https://github.com/psi4/psi4/blob/master/codemeta.json
    https://github.com/psi4/psi4/graphs/contributors
    http://psicode.org/psi4manual/master/introduction.html#citing-psifour

    -----------------------------------------------------------------------


    Psi4 started on: Wednesday, 24 January 2024 01:44PM

    Process ID: 1212216
    Host:       moses-razer
    PSIDATADIR: /home/kchung25/anaconda3/envs/psi4_19/share/psi4
    Memory:     500.0 MiB
    Threads:    6
    
  ==> Input File <==

--------------------------------------------------------------------------
MEMORY 60 GB

molecule dimer {
0 1
Gh(K)      0.000000     0.000000     0.000000
O          5.050390     0.000000     0.000000
H          5.643561     0.755912     0.000000
H          5.643561    -0.755912     0.000000
Gh(O)     -5.050390     0.000000     0.000000
Gh(H)     -5.643561    -0.755912     0.000000
Gh(H)     -5.643561     0.755912     0.000000

units ang
no_reorient
no_com
symmetry c1
}

set {
basis        aug-cc-pVTZ
scf_type     df
}

energy("mp2")
--------------------------------------------------------------------------

  Memory set to  55.879 GiB by Python driver.

Scratch directory: /scratch/
   => Libint2 <=

    Primary   basis highest AM E, G, H:  5, 4, 3
    Auxiliary basis highest AM E, G, H:  6, 5, 4
    Onebody   basis highest AM E, G, H:  6, 5, 4
    Solid Harmonics ordering:            gaussian

*** tstart() called on moses-razer
*** at Wed Jan 24 13:44:50 2024

   => Loading Basis Set <=

    Name: AUG-CC-PVTZ
    Role: ORBITAL
    Keyword: BASIS
    atoms 1        entry K          line  1152 file /home/kchung25/anaconda3/envs/p415env/share/psi4/basis/aug-cc-pvtz.gbs 
    atoms 2, 5     entry O          line   331 file /home/kchung25/anaconda3/envs/p415env/share/psi4/basis/aug-cc-pvtz.gbs 
    atoms 3-4, 6-7 entry H          line    40 file /home/kchung25/anaconda3/envs/p415env/share/psi4/basis/aug-cc-pvtz.gbs 


         ---------------------------------------------------------
                                   SCF
               by Justin Turney, Rob Parrish, Andy Simmonett
                          and Daniel G. A. Smith
                              RHF Reference
                        6 Threads,  57220 MiB Core
         ---------------------------------------------------------

  ==> Geometry <==

    Molecular point group: c1
    Full point group: C2v

    Geometry (in Angstrom), charge = 0, multiplicity = 1:

       Center              X                  Y                   Z               Mass       
    ------------   -----------------  -----------------  -----------------  -----------------
      Gh(K)           0.000000000000     0.000000000000     0.000000000000    38.963706486400
         O            5.050390000000     0.000000000000     0.000000000000    15.994914619570
         H            5.643561000000     0.755912000000     0.000000000000     1.007825032230
         H            5.643561000000    -0.755912000000     0.000000000000     1.007825032230
      Gh(O)          -5.050390000000     0.000000000000     0.000000000000    15.994914619570
      Gh(H)          -5.643561000000    -0.755912000000     0.000000000000     1.007825032230
      Gh(H)          -5.643561000000     0.755912000000     0.000000000000     1.007825032230

  Running in c1 symmetry.

  Rotational constants: A =      7.31828  B =      0.01785  C =      0.01781 [cm^-1]
  Rotational constants: A = 219396.44560  B =    535.16486  C =    533.86263 [MHz]
  Nuclear repulsion =    9.161738423061454

  Charge       = 0
  Multiplicity = 1
  Electrons    = 10
  Nalpha       = 5
  Nbeta        = 5

  ==> Algorithm <==

  SCF Algorithm Type is DF.
  DIIS enabled.
  MOM disabled.
  Fractional occupation disabled.
  Guess Type is SAD.
  Energy threshold   = 1.00e-08
  Density threshold  = 1.00e-08
  Integral threshold = 1.00e-12

  ==> Primary Basis <==

  Basis Set: AUG-CC-PVTZ
    Blend: AUG-CC-PVTZ
    Number of shells: 83
    Number of basis functions: 243
    Number of Cartesian functions: 279
    Spherical Harmonics?: true
    Max angular momentum: 3

   => Loading Basis Set <=

    Name: (AUG-CC-PVTZ AUX)
    Role: JKFIT
    Keyword: DF_BASIS_SCF
    atoms 1        entry K          line  1152 file /home/kchung25/anaconda3/envs/p415env/share/psi4/basis/def2-universal-jkfit.gbs 
    atoms 2, 5     entry O          line   286 file /home/kchung25/anaconda3/envs/p415env/share/psi4/basis/aug-cc-pvtz-jkfit.gbs 
    atoms 3-4, 6-7 entry H          line    70 file /home/kchung25/anaconda3/envs/p415env/share/psi4/basis/aug-cc-pvtz-jkfit.gbs 

  ==> Integral Setup <==

  DFHelper Memory: AOs need 0.200 GiB; user supplied 41.910 GiB. 
  Using in-core AOs.

  ==> MemDFJK: Density-Fitted J/K Matrices <==

    J tasked:                   Yes
    K tasked:                   Yes
    wK tasked:                   No
    OpenMP threads:               6
    Memory [MiB]:             42915
    Algorithm:                 Core
    Schwarz Cutoff:           1E-12
    Mask sparsity (%):      24.5694
    Fitting Condition:        1E-10

   => Auxiliary Basis Set <=

  Basis Set: (AUG-CC-PVTZ AUX)
    Blend: AUG-CC-PVTZ-JKFIT + DEF2-UNIVERSAL-JKFIT
    Number of shells: 160
    Number of basis functions: 552
    Number of Cartesian functions: 685
    Spherical Harmonics?: true
    Max angular momentum: 4

  Minimum eigenvalue in the overlap matrix is 2.7564722205E-04.
  Reciprocal condition number of the overlap matrix is 3.5012535788E-05.
    Using symmetric orthogonalization.

  ==> Pre-Iterations <==

  SCF Guess: Superposition of Atomic Densities via on-the-fly atomic UHF (no occupation information).

   -------------------------
    Irrep   Nso     Nmo    
   -------------------------
     A        243     243 
   -------------------------
    Total     243     243
   -------------------------

  ==> Iterations <==

                           Total Energy        Delta E     RMS |[F,P]|

   @DF-RHF iter SAD:   -75.47466770245698   -7.54747e+01   0.00000e+00 
   @DF-RHF iter   1:   -75.97581602699967   -5.01148e-01   1.92743e-03 ADIIS/DIIS
   @DF-RHF iter   2:   -76.02828308541933   -5.24671e-02   1.31665e-03 ADIIS/DIIS
   @DF-RHF iter   3:   -76.05987001075898   -3.15869e-02   8.96613e-05 DIIS
   @DF-RHF iter   4:   -76.06026167314060   -3.91662e-04   2.14242e-05 DIIS
   @DF-RHF iter   5:   -76.06028621068791   -2.45375e-05   4.88863e-06 DIIS
   @DF-RHF iter   6:   -76.06028822844364   -2.01776e-06   1.06867e-06 DIIS
   @DF-RHF iter   7:   -76.06028833435741   -1.05914e-07   1.91268e-07 DIIS
   @DF-RHF iter   8:   -76.06028833732842   -2.97101e-09   3.19520e-08 DIIS
   @DF-RHF iter   9:   -76.06028833739370   -6.52847e-11   7.86688e-09 DIIS
  Energy and wave function converged.


  ==> Post-Iterations <==

    Orbital Energies [Eh]
    ---------------------

    Doubly Occupied:                                                      

       1A    -20.568184     2A     -1.352291     3A     -0.714401  
       4A     -0.585739     5A     -0.510291  

    Virtual:                                                              

       6A      0.008763     7A      0.010563     8A      0.010933  
       9A      0.011299    10A      0.018059    11A      0.018930  
      12A      0.019663    13A      0.020043    14A      0.020047  
      15A      0.038386    16A      0.038541    17A      0.039142  
      18A      0.044300    19A      0.052990    20A      0.059381  
      21A      0.059578    22A      0.063900    23A      0.068434  
      24A      0.068439    25A      0.069821    26A      0.081875  
      27A      0.083502    28A      0.106324    29A      0.106768  
      30A      0.109082    31A      0.111524    32A      0.141217  
      33A      0.146503    34A      0.147279    35A      0.147492  
      36A      0.147514    37A      0.148861    38A      0.166561  
      39A      0.178805    40A      0.183334    41A      0.190350  
      42A      0.192799    43A      0.197183    44A      0.211913  
      45A      0.217872    46A      0.234118    47A      0.234778  
      48A      0.235734    49A      0.235825    50A      0.243214  
      51A      0.259880    52A      0.264393    53A      0.266122  
      54A      0.270937    55A      0.289434    56A      0.291696  
      57A      0.292892    58A      0.312781    59A      0.340312  
      60A      0.343183    61A      0.364407    62A      0.371915  
      63A      0.380996    64A      0.386720    65A      0.394181  
      66A      0.401692    67A      0.421293    68A      0.445413  
      69A      0.463847    70A      0.463893    71A      0.464441  
      72A      0.467418    73A      0.469263    74A      0.475335  
      75A      0.476256    76A      0.494423    77A      0.549582  
      78A      0.604517    79A      0.635805    80A      0.654612  
      81A      0.661745    82A      0.681991    83A      0.724939  
      84A      0.756949    85A      0.759836    86A      0.764150  
      87A      0.783223    88A      0.805040    89A      0.830770  
      90A      0.835038    91A      0.848338    92A      0.856294  
      93A      0.875409    94A      0.912047    95A      0.913759  
      96A      0.926299    97A      0.928674    98A      0.930037  
      99A      0.957395   100A      0.960836   101A      0.971174  
     102A      0.981128   103A      0.997257   104A      1.003020  
     105A      1.047271   106A      1.051392   107A      1.062784  
     108A      1.078152   109A      1.084903   110A      1.099894  
     111A      1.113702   112A      1.154267   113A      1.177290  
     114A      1.197209   115A      1.213407   116A      1.216238  
     117A      1.282493   118A      1.443318   119A      1.470387  
     120A      1.505217   121A      1.510877   122A      1.577550  
     123A      1.589907   124A      1.700325   125A      1.713427  
     126A      1.724976   127A      1.833713   128A      1.835965  
     129A      1.837923   130A      1.840834   131A      1.844112  
     132A      1.853209   133A      1.907557   134A      1.908591  
     135A      1.908723   136A      1.924613   137A      1.950946  
     138A      1.985982   139A      2.065739   140A      2.121055  
     141A      2.137490   142A      2.267729   143A      2.316190  
     144A      2.353765   145A      2.371885   146A      2.383531  
     147A      2.422600   148A      2.445787   149A      2.448733  
     150A      2.505289   151A      2.521115   152A      2.535659  
     153A      2.541374   154A      2.547868   155A      2.553582  
     156A      2.656442   157A      2.681665   158A      2.707126  
     159A      2.787422   160A      2.819961   161A      2.870122  
     162A      2.885790   163A      3.161429   164A      3.165559  
     165A      3.188262   166A      3.306061   167A      3.328922  
     168A      3.536101   169A      3.655794   170A      3.671672  
     171A      3.743837   172A      4.020387   173A      4.090951  
     174A      4.180243   175A      4.253080   176A      4.283658  
     177A      4.355003   178A      4.377733   179A      4.378428  
     180A      4.406836   181A      4.438573   182A      4.482998  
     183A      4.526019   184A      4.599794   185A      4.652877  
     186A      4.653059   187A      4.752900   188A      4.849654  
     189A      4.859191   190A      4.866389   191A      4.874912  
     192A      5.149155   193A      5.154933   194A      5.201701  
     195A      5.251221   196A      5.326886   197A      5.524993  
     198A      5.547948   199A      5.607562   200A      5.647585  
     201A      5.673053   202A      5.840615   203A      6.095944  
     204A      6.208051   205A      6.386746   206A      6.518166  
     207A      6.604427   208A      6.714832   209A      6.909045  
     210A      7.058453   211A      7.143591   212A      7.262152  
     213A      7.300578   214A      7.318145   215A      7.348587  
     216A      7.361154   217A      7.539889   218A      7.664783  
     219A      7.819506   220A      7.904062   221A      7.930528  
     222A      8.052687   223A      8.153927   224A      8.281104  
     225A      8.723216   226A      8.813350   227A      8.823533  
     228A      9.634747   229A      9.731798   230A      9.829840  
     231A      9.988644   232A     10.225931   233A     11.236696  
     234A     11.605724   235A     12.092199   236A     13.499376  
     237A     13.773020   238A     15.747300   239A     30.217098  
     240A     30.220444   241A     30.348172   242A     64.475912  
     243A    196.965568  

    Final Occupation by Irrep:
              A 
    DOCC [     5 ]
    NA   [     5 ]
    NB   [     5 ]

  @DF-RHF Final Energy:   -76.06028833739370

   => Energetics <=

    Nuclear Repulsion Energy =              9.1617384230614540
    One-Electron Energy =                -122.9822384883624977
    Two-Electron Energy =                  37.7602117279073610
    Total Energy =                        -76.0602883373936862

Computation Completed


Properties will be evaluated at   0.000000,   0.000000,   0.000000 [a0]

Properties computed using the SCF density matrix


 Multipole Moments:

 ------------------------------------------------------------------------------------
     Multipole            Electronic (a.u.)      Nuclear  (a.u.)        Total (a.u.)
 ------------------------------------------------------------------------------------

 L = 1.  Multiply by 2.5417464519 to convert [e a0] to [Debye]
 Dipole X            :        -96.8940294           97.6804007            0.7863714
 Dipole Y            :         -0.0000000            0.0000000           -0.0000000
 Dipole Z            :          0.0000000            0.0000000            0.0000000
 Magnitude           :                                                    0.7863714

 ------------------------------------------------------------------------------------

*** tstop() called on moses-razer at Wed Jan 24 13:44:55 2024
Module time:
	user time   =      11.96 seconds =       0.20 minutes
	system time =       1.48 seconds =       0.02 minutes
	total time  =          5 seconds =       0.08 minutes
Total time:
	user time   =      11.96 seconds =       0.20 minutes
	system time =       1.48 seconds =       0.02 minutes
	total time  =          5 seconds =       0.08 minutes

*** tstart() called on moses-razer
*** at Wed Jan 24 13:44:55 2024


  //>>>>>>>>>>>>>>>>>>>>>>>>>>>>>>>>>>>//
  //               DFMP2               //
  //<<<<<<<<<<<<<<<<<<<<<<<<<<<<<<<<<<<//

   => Loading Basis Set <=

    Name: (AUG-CC-PVTZ AUX)
    Role: RIFIT
    Keyword: DF_BASIS_MP2
    atoms 1        entry K          line  1282 file /home/kchung25/anaconda3/envs/p415env/share/psi4/basis/def2-qzvpp-ri.gbs 
    atoms 2, 5     entry O          line   264 file /home/kchung25/anaconda3/envs/p415env/share/psi4/basis/aug-cc-pvtz-ri.gbs 
    atoms 3-4, 6-7 entry H          line    30 file /home/kchung25/anaconda3/envs/p415env/share/psi4/basis/aug-cc-pvtz-ri.gbs 

	 --------------------------------------------------------
	                          DF-MP2                         
	      2nd-Order Density-Fitted Moller-Plesset Theory     
	              RMP2 Wavefunction,   6 Threads             
	                                                         
	        Rob Parrish, Justin Turney, Andy Simmonett,      
	           Ed Hohenstein, and C. David Sherrill          
	 --------------------------------------------------------

   => Auxiliary Basis Set <=

  Basis Set: (AUG-CC-PVTZ AUX)
    Blend: AUG-CC-PVTZ-RI + DEF2-QZVPP-RI
    Number of shells: 161
    Number of basis functions: 595
    Number of Cartesian functions: 754
    Spherical Harmonics?: true
    Max angular momentum: 4

	 --------------------------------------------------------
	                 NBF =   243, NAUX =   595
	 --------------------------------------------------------
	   CLASS    FOCC     OCC    AOCC    AVIR     VIR    FVIR
	   PAIRS       0       5       5     238     238       0
	 --------------------------------------------------------

	-----------------------------------------------------------
	 ==================> DF-MP2 Energies <==================== 
	-----------------------------------------------------------
	 Reference Energy          =     -76.0602883373937004 [Eh]
	 Singles Energy            =      -0.0000000000000000 [Eh]
	 Same-Spin Energy          =      -0.0684189776991006 [Eh]
	 Opposite-Spin Energy      =      -0.2154195842879715 [Eh]
	 Correlation Energy        =      -0.2838385619870721 [Eh]
	 Total Energy              =     -76.3441268993807682 [Eh]
	-----------------------------------------------------------
	 ================> DF-SCS-MP2 Energies <================== 
	-----------------------------------------------------------
	 SCS Same-Spin Scale       =       0.3333333333333333 [-]
	 SCS Opposite-Spin Scale   =       1.2000000000000000 [-]
	 SCS Same-Spin Energy      =      -0.0228063258997002 [Eh]
	 SCS Opposite-Spin Energy  =      -0.2585035011455658 [Eh]
	 SCS Correlation Energy    =      -0.2813098270452660 [Eh]
	 SCS Total Energy          =     -76.3415981644389632 [Eh]
	-----------------------------------------------------------


*** tstop() called on moses-razer at Wed Jan 24 13:45:00 2024
Module time:
	user time   =       7.36 seconds =       0.12 minutes
	system time =       0.91 seconds =       0.02 minutes
	total time  =          5 seconds =       0.08 minutes
Total time:
	user time   =      19.33 seconds =       0.32 minutes
	system time =       2.39 seconds =       0.04 minutes
	total time  =         10 seconds =       0.17 minutes

    Psi4 stopped on: Wednesday, 24 January 2024 01:45PM
    Psi4 wall time for execution: 0:00:09.84

*** Psi4 exiting successfully. Buy a developer a beer!
