
    -----------------------------------------------------------------------
          Psi4: An Open-Source Ab Initio Electronic Structure Package
                               Psi4 1.9 release

                         Git: Rev {} zzzzzzz 


    D. G. A. Smith, L. A. Burns, A. C. Simmonett, R. M. Parrish,
    M. C. Schieber, R. Galvelis, P. Kraus, H. Kruse, R. Di Remigio,
    A. Alenaizan, A. M. James, S. Lehtola, J. P. Misiewicz, M. Scheurer,
    R. A. Shaw, J. B. Schriber, Y. Xie, Z. L. Glick, D. A. Sirianni,
    J. S. O'Brien, J. M. Waldrop, A. Kumar, E. G. Hohenstein,
    B. P. Pritchard, B. R. Brooks, H. F. Schaefer III, A. Yu. Sokolov,
    K. Patkowski, A. E. DePrince III, U. Bozkaya, R. A. King,
    F. A. Evangelista, J. M. Turney, T. D. Crawford, C. D. Sherrill,
    J. Chem. Phys. 152(18) 184108 (2020). https://doi.org/10.1063/5.0006002

                            Additional Code Authors
    E. T. Seidl, C. L. Janssen, E. F. Valeev, M. L. Leininger,
    J. F. Gonthier, R. M. Richard, H. R. McAlexander, M. Saitow, X. Wang,
    P. Verma, M. H. Lechner, A. Jiang, S. Behnle, A. G. Heide,
    M. F. Herbst, and D. L. Poole

             Previous Authors, Complete List of Code Contributors,
                       and Citations for Specific Modules
    https://github.com/psi4/psi4/blob/master/codemeta.json
    https://github.com/psi4/psi4/graphs/contributors
    http://psicode.org/psi4manual/master/introduction.html#citing-psifour

    -----------------------------------------------------------------------


    Psi4 started on: Wednesday, 24 January 2024 04:48AM

    Process ID: 1192527
    Host:       moses-razer
    PSIDATADIR: /home/kchung25/anaconda3/envs/psi4_19/share/psi4
    Memory:     500.0 MiB
    Threads:    6
    
  ==> Input File <==

--------------------------------------------------------------------------
MEMORY 60 GB

molecule dimer {
1 1
K      0.000000     0.000000     0.000000
--
0 1
O      2.525195     0.000000     0.000000
H      3.118366     0.755912     0.000000
H      3.118366    -0.755912     0.000000
--
0 1
O     -2.525195     0.000000     0.000000
H     -3.118366    -0.755912     0.000000
H     -3.118366     0.755912     0.000000

units ang
no_reorient
no_com
symmetry c1
}

set {
basis        aug-cc-pVTZ
scf_type     df
}

energy("mp2", bsse_type="cp")
--------------------------------------------------------------------------

  Memory set to  55.879 GiB by Python driver.

Scratch directory: /scratch/

  //>>>>>>>>>>>>>>>>>>>>>>>>>>>>>>>>>>>>>>>>//
  // ManyBody Setup: N-Body Levels [1, 2, 3]//
  //<<<<<<<<<<<<<<<<<<<<<<<<<<<<<<<<<<<<<<<<//

        Number of 1-body computations:     3
        Number of 2-body computations:     3
        Number of 3-body computations:     1

    -----------------------------------------------------------------------
          Psi4: An Open-Source Ab Initio Electronic Structure Package
                               Psi4 1.9 release

                         Git: Rev {} zzzzzzz 


    D. G. A. Smith, L. A. Burns, A. C. Simmonett, R. M. Parrish,
    M. C. Schieber, R. Galvelis, P. Kraus, H. Kruse, R. Di Remigio,
    A. Alenaizan, A. M. James, S. Lehtola, J. P. Misiewicz, M. Scheurer,
    R. A. Shaw, J. B. Schriber, Y. Xie, Z. L. Glick, D. A. Sirianni,
    J. S. O'Brien, J. M. Waldrop, A. Kumar, E. G. Hohenstein,
    B. P. Pritchard, B. R. Brooks, H. F. Schaefer III, A. Yu. Sokolov,
    K. Patkowski, A. E. DePrince III, U. Bozkaya, R. A. King,
    F. A. Evangelista, J. M. Turney, T. D. Crawford, C. D. Sherrill,
    J. Chem. Phys. 152(18) 184108 (2020). https://doi.org/10.1063/5.0006002

                            Additional Code Authors
    E. T. Seidl, C. L. Janssen, E. F. Valeev, M. L. Leininger,
    J. F. Gonthier, R. M. Richard, H. R. McAlexander, M. Saitow, X. Wang,
    P. Verma, M. H. Lechner, A. Jiang, S. Behnle, A. G. Heide,
    M. F. Herbst, and D. L. Poole

             Previous Authors, Complete List of Code Contributors,
                       and Citations for Specific Modules
    https://github.com/psi4/psi4/blob/master/codemeta.json
    https://github.com/psi4/psi4/graphs/contributors
    http://psicode.org/psi4manual/master/introduction.html#citing-psifour

    -----------------------------------------------------------------------


    Psi4 started on: Wednesday, 24 January 2024 04:48AM

    Process ID: 1192527
    Host:       moses-razer
    PSIDATADIR: /home/kchung25/anaconda3/envs/psi4_19/share/psi4
    Memory:     55.9 GiB
    Threads:    6
    
  ==> Input QCSchema <==

--------------------------------------------------------------------------
{'driver': 'energy',
 'extras': {'psiapi': True, 'wfn_qcvars_only': True},
 'id': None,
 'keywords': {'SCF_TYPE': 'DF', 'function_kwargs': {}},
 'model': {'basis': 'aug-cc-pvtz', 'method': 'mp2'},
 'molecule': {'atom_labels': ['', '', '', '', '', '', ''],
              'atomic_numbers': [19, 8, 1, 1, 8, 1, 1],
              'extras': {},
              'fix_com': True,
              'fix_orientation': True,
              'fix_symmetry': 'c1',
              'fragment_charges': [1.0, 0.0, 0.0],
              'fragment_multiplicities': [1, 1, 1],
              'fragments': [[0], [1, 2, 3], [4, 5, 6]],
              'geometry': [0.0, 0.0, 0.0, 4.77192696337548, 0.0, 0.0, 5.892857698939426, 1.428466654947078, 0.0,
                           5.892857698939426, -1.428466654947078, 0.0, -4.77192696337548, 0.0, 0.0, -5.892857698939426,
                           -1.428466654947078, 0.0, -5.892857698939426, 1.428466654947078, 0.0],
              'mass_numbers': [39, 16, 1, 1, 16, 1, 1],
              'masses': [38.9637064864, 15.99491461957, 1.00782503223, 1.00782503223, 15.99491461957, 1.00782503223,
                         1.00782503223],
              'molecular_charge': 1.0,
              'molecular_multiplicity': 1,
              'name': 'dimer',
              'provenance': {'creator': 'QCElemental',
                             'routine': 'qcelemental.molparse.from_string',
                             'version': '0.27.1'},
              'real': [True, False, False, False, False, False, False],
              'schema_name': 'qcschema_molecule',
              'schema_version': 2,
              'symbols': ['K', 'O', 'H', 'H', 'O', 'H', 'H'],
              'validated': True},
 'protocols': {'stdout': True},
 'provenance': {'creator': 'QCElemental', 'routine': 'qcelemental.models.results', 'version': '0.27.1'},
 'schema_name': 'qcschema_input',
 'schema_version': 1}
--------------------------------------------------------------------------

Scratch directory: /scratch/
   => Libint2 <=

    Primary   basis highest AM E, G, H:  5, 4, 3
    Auxiliary basis highest AM E, G, H:  6, 5, 4
    Onebody   basis highest AM E, G, H:  6, 5, 4
    Solid Harmonics ordering:            gaussian

*** tstart() called on moses-razer
*** at Wed Jan 24 04:48:21 2024

   => Loading Basis Set <=

    Name: AUG-CC-PVTZ
    Role: ORBITAL
    Keyword: BASIS
    atoms 1        entry K          line  1152 file /home/kchung25/anaconda3/envs/p415env/share/psi4/basis/aug-cc-pvtz.gbs 
    atoms 2, 5     entry O          line   331 file /home/kchung25/anaconda3/envs/p415env/share/psi4/basis/aug-cc-pvtz.gbs 
    atoms 3-4, 6-7 entry H          line    40 file /home/kchung25/anaconda3/envs/p415env/share/psi4/basis/aug-cc-pvtz.gbs 


         ---------------------------------------------------------
                                   SCF
               by Justin Turney, Rob Parrish, Andy Simmonett
                          and Daniel G. A. Smith
                              RHF Reference
                        6 Threads,  57220 MiB Core
         ---------------------------------------------------------

  ==> Geometry <==

    Molecular point group: c1
    Full point group: D2h

    Geometry (in Bohr), charge = 1, multiplicity = 1:

       Center              X                  Y                   Z               Mass       
    ------------   -----------------  -----------------  -----------------  -----------------
         K            0.000000000000     0.000000000000     0.000000000000    38.963706486400
      Gh(O)           4.771926963375     0.000000000000     0.000000000000    15.994914619570
      Gh(H)           5.892857698939     1.428466654947     0.000000000000     1.007825032230
      Gh(H)           5.892857698939    -1.428466654947     0.000000000000     1.007825032230
      Gh(O)          -4.771926963375     0.000000000000     0.000000000000    15.994914619570
      Gh(H)          -5.892857698939    -1.428466654947     0.000000000000     1.007825032230
      Gh(H)          -5.892857698939     1.428466654947     0.000000000000     1.007825032230

  Running in c1 symmetry.

  Rotational constants: A =      7.31828  B =      0.06932  C =      0.06867 [cm^-1]
  Rotational constants: A = 219396.44560  B =   2078.14248  C =   2058.64284 [MHz]
  Nuclear repulsion =    0.000000000000000

  Charge       = 1
  Multiplicity = 1
  Electrons    = 18
  Nalpha       = 9
  Nbeta        = 9

  ==> Algorithm <==

  SCF Algorithm Type is DF.
  DIIS enabled.
  MOM disabled.
  Fractional occupation disabled.
  Guess Type is SAD.
  Energy threshold   = 1.00e-08
  Density threshold  = 1.00e-08
  Integral threshold = 1.00e-12

  ==> Primary Basis <==

  Basis Set: AUG-CC-PVTZ
    Blend: AUG-CC-PVTZ
    Number of shells: 83
    Number of basis functions: 243
    Number of Cartesian functions: 279
    Spherical Harmonics?: true
    Max angular momentum: 3

   => Loading Basis Set <=

    Name: (AUG-CC-PVTZ AUX)
    Role: JKFIT
    Keyword: DF_BASIS_SCF
    atoms 1        entry K          line  1152 file /home/kchung25/anaconda3/envs/p415env/share/psi4/basis/def2-universal-jkfit.gbs 
    atoms 2, 5     entry O          line   286 file /home/kchung25/anaconda3/envs/p415env/share/psi4/basis/aug-cc-pvtz-jkfit.gbs 
    atoms 3-4, 6-7 entry H          line    70 file /home/kchung25/anaconda3/envs/p415env/share/psi4/basis/aug-cc-pvtz-jkfit.gbs 

  ==> Integral Setup <==

  DFHelper Memory: AOs need 0.235 GiB; user supplied 41.910 GiB. 
  Using in-core AOs.

  ==> MemDFJK: Density-Fitted J/K Matrices <==

    J tasked:                   Yes
    K tasked:                   Yes
    wK tasked:                   No
    OpenMP threads:               6
    Memory [MiB]:             42915
    Algorithm:                 Core
    Schwarz Cutoff:           1E-12
    Mask sparsity (%):      10.0019
    Fitting Condition:        1E-10

   => Auxiliary Basis Set <=

  Basis Set: (AUG-CC-PVTZ AUX)
    Blend: AUG-CC-PVTZ-JKFIT + DEF2-UNIVERSAL-JKFIT
    Number of shells: 160
    Number of basis functions: 552
    Number of Cartesian functions: 685
    Spherical Harmonics?: true
    Max angular momentum: 4

  Minimum eigenvalue in the overlap matrix is 5.3807369693E-05.
  Reciprocal condition number of the overlap matrix is 5.8063425601E-06.
    Using symmetric orthogonalization.

  ==> Pre-Iterations <==

  SCF Guess: Superposition of Atomic Densities via on-the-fly atomic UHF (no occupation information).

   -------------------------
    Irrep   Nso     Nmo    
   -------------------------
     A        243     243 
   -------------------------
    Total     243     243
   -------------------------

  ==> Iterations <==

                           Total Energy        Delta E     RMS |[F,P]|

   @DF-RHF iter SAD:  -599.05185144647135   -5.99052e+02   0.00000e+00 
   @DF-RHF iter   1:  -599.01747648283231    3.43750e-02   3.31948e-05 DIIS
   @DF-RHF iter   2:  -599.01751021519408   -3.37324e-05   4.51355e-06 DIIS
   @DF-RHF iter   3:  -599.01751114259184   -9.27398e-07   4.42821e-07 DIIS
   @DF-RHF iter   4:  -599.01751115032334   -7.73150e-09   3.62942e-08 DIIS
   @DF-RHF iter   5:  -599.01751115039451   -7.11680e-11   5.32524e-09 DIIS
  Energy and wave function converged.


  ==> Post-Iterations <==

    Orbital Energies [Eh]
    ---------------------

    Doubly Occupied:                                                      

       1A   -133.753360     2A    -14.708884     3A    -11.738954  
       4A    -11.738951     5A    -11.738950     6A     -1.964193  
       7A     -1.170914     8A     -1.170804     9A     -1.170787  

    Virtual:                                                              

      10A     -0.146968    11A     -0.095566    12A     -0.095550  
      13A     -0.095549    14A     -0.060660    15A     -0.057917  
      16A     -0.057826    17A     -0.057799    18A     -0.057723  
      19A     -0.057722    20A     -0.045544    21A     -0.045535  
      22A     -0.045534    23A     -0.031344    24A     -0.031267  
      25A     -0.031230    26A     -0.031207    27A     -0.031207  
      28A     -0.019020    29A     -0.017191    30A     -0.016449  
      31A     -0.016295    32A     -0.011535    33A     -0.009640  
      34A      0.003460    35A      0.009019    36A      0.011417  
      37A      0.014731    38A      0.016105    39A      0.016453  
      40A      0.016866    41A      0.016910    42A      0.019603  
      43A      0.019628    44A      0.028413    45A      0.039683  
      46A      0.055412    47A      0.064191    48A      0.078559  
      49A      0.090373    50A      0.097873    51A      0.100745  
      52A      0.103416    53A      0.129942    54A      0.137180  
      55A      0.138054    56A      0.145123    57A      0.157581  
      58A      0.168227    59A      0.177310    60A      0.195277  
      61A      0.209364    62A      0.209619    63A      0.213983  
      64A      0.217297    65A      0.219176    66A      0.228043  
      67A      0.235062    68A      0.236744    69A      0.238180  
      70A      0.247623    71A      0.256166    72A      0.259514  
      73A      0.262926    74A      0.272075    75A      0.291729  
      76A      0.291915    77A      0.300863    78A      0.315281  
      79A      0.321730    80A      0.325842    81A      0.327073  
      82A      0.350585    83A      0.371547    84A      0.377813  
      85A      0.432504    86A      0.441531    87A      0.557862  
      88A      0.558533    89A      0.603270    90A      0.642051  
      91A      0.659001    92A      0.675223    93A      0.685574  
      94A      0.702881    95A      0.709443    96A      0.718402  
      97A      0.734654    98A      0.748088    99A      0.757035  
     100A      0.788524   101A      0.790488   102A      0.808187  
     103A      0.817185   104A      0.830696   105A      0.831413  
     106A      0.857260   107A      0.859400   108A      0.862618  
     109A      0.911752   110A      0.930315   111A      0.939231  
     112A      0.941463   113A      0.952525   114A      0.992635  
     115A      0.995848   116A      1.021458   117A      1.050116  
     118A      1.052237   119A      1.062011   120A      1.066779  
     121A      1.067253   122A      1.073779   123A      1.099557  
     124A      1.174337   125A      1.286418   126A      1.345701  
     127A      1.399949   128A      1.411168   129A      1.454317  
     130A      1.555479   131A      1.566606   132A      1.570360  
     133A      1.574866   134A      1.629659   135A      1.662208  
     136A      1.688084   137A      1.696082   138A      1.770773  
     139A      1.808427   140A      1.913575   141A      1.933444  
     142A      2.187332   143A      2.208953   144A      2.219065  
     145A      2.246484   146A      2.307199   147A      2.314545  
     148A      2.318697   149A      2.334431   150A      2.339651  
     151A      2.345985   152A      2.358066   153A      2.383278  
     154A      2.445682   155A      2.478284   156A      2.535848  
     157A      2.662311   158A      2.668662   159A      2.678260  
     160A      2.997029   161A      3.000299   162A      3.008078  
     163A      3.038224   164A      3.066212   165A      3.123553  
     166A      3.139412   167A      3.153133   168A      3.160755  
     169A      3.189779   170A      3.363528   171A      3.393879  
     172A      3.500135   173A      3.504493   174A      4.191250  
     175A      4.196581   176A      4.323149   177A      4.340870  
     178A      4.350815   179A      4.355001   180A      4.431925  
     181A      4.436351   182A      4.505684   183A      4.530777  
     184A      4.539519   185A      4.561488   186A      4.722234  
     187A      4.739930   188A      4.753981   189A      4.754943  
     190A      4.762322   191A      4.775750   192A      5.039704  
     193A      5.047812   194A      5.372691   195A      5.383558  
     196A      5.439261   197A      5.453725   198A      5.465885  
     199A      5.466523   200A      5.656397   201A      5.668768  
     202A      5.918240   203A      5.919249   204A      6.223044  
     205A      6.242284   206A      6.437522   207A      6.497757  
     208A      6.878189   209A      6.896102   210A      7.452210  
     211A      7.457189   212A      7.627145   213A      7.640489  
     214A      7.851238   215A      7.862156   216A      7.964690  
     217A      7.993962   218A      8.075355   219A      8.083343  
     220A      8.532473   221A      8.549787   222A      8.627544  
     223A      8.655358   224A      9.501171   225A      9.611034  
     226A      9.672966   227A      9.732998   228A      9.786456  
     229A      9.798173   230A     10.025553   231A     10.036580  
     232A     11.037537   233A     11.040539   234A     11.413842  
     235A     11.464728   236A     11.892448   237A     11.941402  
     238A     13.317013   239A     13.344511   240A     13.621879  
     241A     13.622066   242A     64.369013   243A     64.656527  

    Final Occupation by Irrep:
              A 
    DOCC [     9 ]
    NA   [     9 ]
    NB   [     9 ]

  @DF-RHF Final Energy:  -599.01751115039451

   => Energetics <=

    Nuclear Repulsion Energy =              0.0000000000000000
    One-Electron Energy =                -819.7234305455211825
    Two-Electron Energy =                 220.7059193951266707
    Total Energy =                       -599.0175111503945118

Computation Completed


Properties will be evaluated at   0.000000,   0.000000,   0.000000 [a0]

Properties computed using the SCF density matrix


 Multipole Moments:

 ------------------------------------------------------------------------------------
     Multipole            Electronic (a.u.)      Nuclear  (a.u.)        Total (a.u.)
 ------------------------------------------------------------------------------------

 L = 1.  Multiply by 2.5417464519 to convert [e a0] to [Debye]
 Dipole X            :         -0.0000000            0.0000000           -0.0000000
 Dipole Y            :         -0.0000000            0.0000000           -0.0000000
 Dipole Z            :         -0.0000000            0.0000000           -0.0000000
 Magnitude           :                                                    0.0000000

 ------------------------------------------------------------------------------------

*** tstop() called on moses-razer at Wed Jan 24 04:48:28 2024
Module time:
	user time   =      14.76 seconds =       0.25 minutes
	system time =       2.94 seconds =       0.05 minutes
	total time  =          7 seconds =       0.12 minutes
Total time:
	user time   =      14.76 seconds =       0.25 minutes
	system time =       2.94 seconds =       0.05 minutes
	total time  =          7 seconds =       0.12 minutes

*** tstart() called on moses-razer
*** at Wed Jan 24 04:48:28 2024


  //>>>>>>>>>>>>>>>>>>>>>>>>>>>>>>>>>>>//
  //               DFMP2               //
  //<<<<<<<<<<<<<<<<<<<<<<<<<<<<<<<<<<<//

   => Loading Basis Set <=

    Name: (AUG-CC-PVTZ AUX)
    Role: RIFIT
    Keyword: DF_BASIS_MP2
    atoms 1        entry K          line  1282 file /home/kchung25/anaconda3/envs/p415env/share/psi4/basis/def2-qzvpp-ri.gbs 
    atoms 2, 5     entry O          line   264 file /home/kchung25/anaconda3/envs/p415env/share/psi4/basis/aug-cc-pvtz-ri.gbs 
    atoms 3-4, 6-7 entry H          line    30 file /home/kchung25/anaconda3/envs/p415env/share/psi4/basis/aug-cc-pvtz-ri.gbs 

	 --------------------------------------------------------
	                          DF-MP2                         
	      2nd-Order Density-Fitted Moller-Plesset Theory     
	              RMP2 Wavefunction,   6 Threads             
	                                                         
	        Rob Parrish, Justin Turney, Andy Simmonett,      
	           Ed Hohenstein, and C. David Sherrill          
	 --------------------------------------------------------

   => Auxiliary Basis Set <=

  Basis Set: (AUG-CC-PVTZ AUX)
    Blend: AUG-CC-PVTZ-RI + DEF2-QZVPP-RI
    Number of shells: 161
    Number of basis functions: 595
    Number of Cartesian functions: 754
    Spherical Harmonics?: true
    Max angular momentum: 4

	 --------------------------------------------------------
	                 NBF =   243, NAUX =   595
	 --------------------------------------------------------
	   CLASS    FOCC     OCC    AOCC    AVIR     VIR    FVIR
	   PAIRS       0       9       9     234     234       0
	 --------------------------------------------------------

	-----------------------------------------------------------
	 ==================> DF-MP2 Energies <==================== 
	-----------------------------------------------------------
	 Reference Energy          =    -599.0175111503945118 [Eh]
	 Singles Energy            =      -0.0000000000000000 [Eh]
	 Same-Spin Energy          =      -0.0314102609785223 [Eh]
	 Opposite-Spin Energy      =      -0.0755610320069077 [Eh]
	 Correlation Energy        =      -0.1069712929854300 [Eh]
	 Total Energy              =    -599.1244824433799749 [Eh]
	-----------------------------------------------------------
	 ================> DF-SCS-MP2 Energies <================== 
	-----------------------------------------------------------
	 SCS Same-Spin Scale       =       0.3333333333333333 [-]
	 SCS Opposite-Spin Scale   =       1.2000000000000000 [-]
	 SCS Same-Spin Energy      =      -0.0104700869928408 [Eh]
	 SCS Opposite-Spin Energy  =      -0.0906732384082892 [Eh]
	 SCS Correlation Energy    =      -0.1011433254011300 [Eh]
	 SCS Total Energy          =    -599.1186544757956653 [Eh]
	-----------------------------------------------------------


*** tstop() called on moses-razer at Wed Jan 24 04:48:33 2024
Module time:
	user time   =       7.52 seconds =       0.13 minutes
	system time =       0.87 seconds =       0.01 minutes
	total time  =          5 seconds =       0.08 minutes
Total time:
	user time   =      22.28 seconds =       0.37 minutes
	system time =       3.81 seconds =       0.06 minutes
	total time  =         12 seconds =       0.20 minutes

    Psi4 stopped on: Wednesday, 24 January 2024 04:48AM
    Psi4 wall time for execution: 0:00:11.93


    -----------------------------------------------------------------------
          Psi4: An Open-Source Ab Initio Electronic Structure Package
                               Psi4 1.9 release

                         Git: Rev {} zzzzzzz 


    D. G. A. Smith, L. A. Burns, A. C. Simmonett, R. M. Parrish,
    M. C. Schieber, R. Galvelis, P. Kraus, H. Kruse, R. Di Remigio,
    A. Alenaizan, A. M. James, S. Lehtola, J. P. Misiewicz, M. Scheurer,
    R. A. Shaw, J. B. Schriber, Y. Xie, Z. L. Glick, D. A. Sirianni,
    J. S. O'Brien, J. M. Waldrop, A. Kumar, E. G. Hohenstein,
    B. P. Pritchard, B. R. Brooks, H. F. Schaefer III, A. Yu. Sokolov,
    K. Patkowski, A. E. DePrince III, U. Bozkaya, R. A. King,
    F. A. Evangelista, J. M. Turney, T. D. Crawford, C. D. Sherrill,
    J. Chem. Phys. 152(18) 184108 (2020). https://doi.org/10.1063/5.0006002

                            Additional Code Authors
    E. T. Seidl, C. L. Janssen, E. F. Valeev, M. L. Leininger,
    J. F. Gonthier, R. M. Richard, H. R. McAlexander, M. Saitow, X. Wang,
    P. Verma, M. H. Lechner, A. Jiang, S. Behnle, A. G. Heide,
    M. F. Herbst, and D. L. Poole

             Previous Authors, Complete List of Code Contributors,
                       and Citations for Specific Modules
    https://github.com/psi4/psi4/blob/master/codemeta.json
    https://github.com/psi4/psi4/graphs/contributors
    http://psicode.org/psi4manual/master/introduction.html#citing-psifour

    -----------------------------------------------------------------------


    Psi4 started on: Wednesday, 24 January 2024 04:48AM

    Process ID: 1192527
    Host:       moses-razer
    PSIDATADIR: /home/kchung25/anaconda3/envs/psi4_19/share/psi4
    Memory:     55.9 GiB
    Threads:    6
    
  ==> Input QCSchema <==

--------------------------------------------------------------------------
{'driver': 'energy',
 'extras': {'psiapi': True, 'wfn_qcvars_only': True},
 'id': None,
 'keywords': {'SCF_TYPE': 'DF', 'function_kwargs': {}},
 'model': {'basis': 'aug-cc-pvtz', 'method': 'mp2'},
 'molecule': {'atom_labels': ['', '', '', '', '', '', ''],
              'atomic_numbers': [19, 8, 1, 1, 8, 1, 1],
              'extras': {},
              'fix_com': True,
              'fix_orientation': True,
              'fix_symmetry': 'c1',
              'fragment_charges': [0.0, 0.0, 0.0],
              'fragment_multiplicities': [1, 1, 1],
              'fragments': [[0], [1, 2, 3], [4, 5, 6]],
              'geometry': [0.0, 0.0, 0.0, 4.77192696337548, 0.0, 0.0, 5.892857698939426, 1.428466654947078, 0.0,
                           5.892857698939426, -1.428466654947078, 0.0, -4.77192696337548, 0.0, 0.0, -5.892857698939426,
                           -1.428466654947078, 0.0, -5.892857698939426, 1.428466654947078, 0.0],
              'mass_numbers': [39, 16, 1, 1, 16, 1, 1],
              'masses': [38.9637064864, 15.99491461957, 1.00782503223, 1.00782503223, 15.99491461957, 1.00782503223,
                         1.00782503223],
              'molecular_charge': 0.0,
              'molecular_multiplicity': 1,
              'name': 'dimer',
              'provenance': {'creator': 'QCElemental',
                             'routine': 'qcelemental.molparse.from_string',
                             'version': '0.27.1'},
              'real': [False, True, True, True, False, False, False],
              'schema_name': 'qcschema_molecule',
              'schema_version': 2,
              'symbols': ['K', 'O', 'H', 'H', 'O', 'H', 'H'],
              'validated': True},
 'protocols': {'stdout': True},
 'provenance': {'creator': 'QCElemental', 'routine': 'qcelemental.models.results', 'version': '0.27.1'},
 'schema_name': 'qcschema_input',
 'schema_version': 1}
--------------------------------------------------------------------------

Scratch directory: /scratch/
   => Libint2 <=

    Primary   basis highest AM E, G, H:  5, 4, 3
    Auxiliary basis highest AM E, G, H:  6, 5, 4
    Onebody   basis highest AM E, G, H:  6, 5, 4
    Solid Harmonics ordering:            gaussian

*** tstart() called on moses-razer
*** at Wed Jan 24 04:48:33 2024

   => Loading Basis Set <=

    Name: AUG-CC-PVTZ
    Role: ORBITAL
    Keyword: BASIS
    atoms 1        entry K          line  1152 file /home/kchung25/anaconda3/envs/p415env/share/psi4/basis/aug-cc-pvtz.gbs 
    atoms 2, 5     entry O          line   331 file /home/kchung25/anaconda3/envs/p415env/share/psi4/basis/aug-cc-pvtz.gbs 
    atoms 3-4, 6-7 entry H          line    40 file /home/kchung25/anaconda3/envs/p415env/share/psi4/basis/aug-cc-pvtz.gbs 


         ---------------------------------------------------------
                                   SCF
               by Justin Turney, Rob Parrish, Andy Simmonett
                          and Daniel G. A. Smith
                              RHF Reference
                        6 Threads,  57220 MiB Core
         ---------------------------------------------------------

  ==> Geometry <==

    Molecular point group: c1
    Full point group: C2v

    Geometry (in Bohr), charge = 0, multiplicity = 1:

       Center              X                  Y                   Z               Mass       
    ------------   -----------------  -----------------  -----------------  -----------------
      Gh(K)           0.000000000000     0.000000000000     0.000000000000    38.963706486400
         O            4.771926963375     0.000000000000     0.000000000000    15.994914619570
         H            5.892857698939     1.428466654947     0.000000000000     1.007825032230
         H            5.892857698939    -1.428466654947     0.000000000000     1.007825032230
      Gh(O)          -4.771926963375     0.000000000000     0.000000000000    15.994914619570
      Gh(H)          -5.892857698939    -1.428466654947     0.000000000000     1.007825032230
      Gh(H)          -5.892857698939     1.428466654947     0.000000000000     1.007825032230

  Running in c1 symmetry.

  Rotational constants: A =      7.31828  B =      0.06932  C =      0.06867 [cm^-1]
  Rotational constants: A = 219396.44560  B =   2078.14248  C =   2058.64284 [MHz]
  Nuclear repulsion =    9.161738423061454

  Charge       = 0
  Multiplicity = 1
  Electrons    = 10
  Nalpha       = 5
  Nbeta        = 5

  ==> Algorithm <==

  SCF Algorithm Type is DF.
  DIIS enabled.
  MOM disabled.
  Fractional occupation disabled.
  Guess Type is SAD.
  Energy threshold   = 1.00e-08
  Density threshold  = 1.00e-08
  Integral threshold = 1.00e-12

  ==> Primary Basis <==

  Basis Set: AUG-CC-PVTZ
    Blend: AUG-CC-PVTZ
    Number of shells: 83
    Number of basis functions: 243
    Number of Cartesian functions: 279
    Spherical Harmonics?: true
    Max angular momentum: 3

   => Loading Basis Set <=

    Name: (AUG-CC-PVTZ AUX)
    Role: JKFIT
    Keyword: DF_BASIS_SCF
    atoms 1        entry K          line  1152 file /home/kchung25/anaconda3/envs/p415env/share/psi4/basis/def2-universal-jkfit.gbs 
    atoms 2, 5     entry O          line   286 file /home/kchung25/anaconda3/envs/p415env/share/psi4/basis/aug-cc-pvtz-jkfit.gbs 
    atoms 3-4, 6-7 entry H          line    70 file /home/kchung25/anaconda3/envs/p415env/share/psi4/basis/aug-cc-pvtz-jkfit.gbs 

  ==> Integral Setup <==

  DFHelper Memory: AOs need 0.235 GiB; user supplied 41.910 GiB. 
  Using in-core AOs.

  ==> MemDFJK: Density-Fitted J/K Matrices <==

    J tasked:                   Yes
    K tasked:                   Yes
    wK tasked:                   No
    OpenMP threads:               6
    Memory [MiB]:             42915
    Algorithm:                 Core
    Schwarz Cutoff:           1E-12
    Mask sparsity (%):      10.0019
    Fitting Condition:        1E-10

   => Auxiliary Basis Set <=

  Basis Set: (AUG-CC-PVTZ AUX)
    Blend: AUG-CC-PVTZ-JKFIT + DEF2-UNIVERSAL-JKFIT
    Number of shells: 160
    Number of basis functions: 552
    Number of Cartesian functions: 685
    Spherical Harmonics?: true
    Max angular momentum: 4

  Minimum eigenvalue in the overlap matrix is 5.3807369693E-05.
  Reciprocal condition number of the overlap matrix is 5.8063425601E-06.
    Using symmetric orthogonalization.

  ==> Pre-Iterations <==

  SCF Guess: Superposition of Atomic Densities via on-the-fly atomic UHF (no occupation information).

   -------------------------
    Irrep   Nso     Nmo    
   -------------------------
     A        243     243 
   -------------------------
    Total     243     243
   -------------------------

  ==> Iterations <==

                           Total Energy        Delta E     RMS |[F,P]|

   @DF-RHF iter SAD:   -75.47466766916901   -7.54747e+01   0.00000e+00 
   @DF-RHF iter   1:   -75.97583127059266   -5.01164e-01   1.92758e-03 ADIIS/DIIS
   @DF-RHF iter   2:   -76.02830685641342   -5.24756e-02   1.31686e-03 ADIIS/DIIS
   @DF-RHF iter   3:   -76.05990164978546   -3.15948e-02   8.96662e-05 DIIS
   @DF-RHF iter   4:   -76.06029336848252   -3.91719e-04   2.14287e-05 DIIS
   @DF-RHF iter   5:   -76.06031791502342   -2.45465e-05   4.88820e-06 DIIS
   @DF-RHF iter   6:   -76.06031993268606   -2.01766e-06   1.06848e-06 DIIS
   @DF-RHF iter   7:   -76.06032003858110   -1.05895e-07   1.91618e-07 DIIS
   @DF-RHF iter   8:   -76.06032004156664   -2.98554e-09   3.20305e-08 DIIS
   @DF-RHF iter   9:   -76.06032004163208   -6.54410e-11   7.88008e-09 DIIS
  Energy and wave function converged.


  ==> Post-Iterations <==

    Orbital Energies [Eh]
    ---------------------

    Doubly Occupied:                                                      

       1A    -20.568119     2A     -1.352248     3A     -0.714363  
       4A     -0.585716     5A     -0.510254  

    Virtual:                                                              

       6A      0.006911     7A      0.009952     8A      0.010515  
       9A      0.010959    10A      0.018052    11A      0.018541  
      12A      0.019154    13A      0.019668    14A      0.019669  
      15A      0.034145    16A      0.037358    17A      0.039130  
      18A      0.040800    19A      0.057891    20A      0.062273  
      21A      0.066383    22A      0.067790    23A      0.067874  
      24A      0.072057    25A      0.075490    26A      0.099395  
      27A      0.101009    28A      0.105201    29A      0.109098  
      30A      0.110779    31A      0.113100    32A      0.133502  
      33A      0.139205    34A      0.143737    35A      0.147616  
      36A      0.147696    37A      0.182668    38A      0.189695  
      39A      0.201843    40A      0.203267    41A      0.203307  
      42A      0.214395    43A      0.233738    44A      0.235688  
      45A      0.237442    46A      0.260880    47A      0.263636  
      48A      0.267635    49A      0.268705    50A      0.284616  
      51A      0.285154    52A      0.286864    53A      0.296982  
      54A      0.310348    55A      0.340022    56A      0.352116  
      57A      0.352871    58A      0.372103    59A      0.383553  
      60A      0.411558    61A      0.413532    62A      0.413652  
      63A      0.416335    64A      0.439053    65A      0.442185  
      66A      0.453970    67A      0.454090    68A      0.471658  
      69A      0.473958    70A      0.477127    71A      0.483536  
      72A      0.495182    73A      0.497649    74A      0.515487  
      75A      0.582171    76A      0.600494    77A      0.602928  
      78A      0.678384    79A      0.692940    80A      0.730043  
      81A      0.751947    82A      0.766115    83A      0.796874  
      84A      0.810137    85A      0.828066    86A      0.840922  
      87A      0.857934    88A      0.877725    89A      0.879191  
      90A      0.893048    91A      0.894251    92A      0.939038  
      93A      0.941107    94A      0.952270    95A      0.974928  
      96A      0.976717    97A      0.998304    98A      1.021998  
      99A      1.061204   100A      1.074452   101A      1.076502  
     102A      1.078047   103A      1.092777   104A      1.107278  
     105A      1.111134   106A      1.118852   107A      1.129228  
     108A      1.155159   109A      1.174255   110A      1.185287  
     111A      1.202634   112A      1.226554   113A      1.231540  
     114A      1.267807   115A      1.270190   116A      1.309987  
     117A      1.316251   118A      1.490026   119A      1.542485  
     120A      1.557772   121A      1.591369   122A      1.598094  
     123A      1.709089   124A      1.758526   125A      1.761779  
     126A      1.846884   127A      1.864636   128A      1.868596  
     129A      1.891448   130A      1.904876   131A      1.946567  
     132A      1.993064   133A      2.002526   134A      2.044718  
     135A      2.086855   136A      2.139985   137A      2.238786  
     138A      2.309697   139A      2.328590   140A      2.352498  
     141A      2.379672   142A      2.422309   143A      2.436671  
     144A      2.444966   145A      2.475997   146A      2.493731  
     147A      2.555426   148A      2.556428   149A      2.558089  
     150A      2.614898   151A      2.638115   152A      2.669428  
     153A      2.711623   154A      2.736379   155A      2.786855  
     156A      2.807069   157A      2.815000   158A      2.872334  
     159A      2.884163   160A      2.901811   161A      3.078260  
     162A      3.223839   163A      3.290353   164A      3.310032  
     165A      3.325740   166A      3.348235   167A      3.550902  
     168A      3.699792   169A      3.754577   170A      3.761400  
     171A      3.835256   172A      4.027294   173A      4.152432  
     174A      4.231689   175A      4.279964   176A      4.294397  
     177A      4.362046   178A      4.418978   179A      4.457102  
     180A      4.459315   181A      4.501982   182A      4.536709  
     183A      4.547926   184A      4.619972   185A      4.708095  
     186A      4.712980   187A      4.815051   188A      4.865387  
     189A      4.916819   190A      4.916857   191A      4.934731  
     192A      5.152333   193A      5.161047   194A      5.216695  
     195A      5.262992   196A      5.354037   197A      5.529289  
     198A      5.558583   199A      5.630453   200A      5.653224  
     201A      5.728856   202A      5.859311   203A      6.116713  
     204A      6.263016   205A      6.439187   206A      6.587604  
     207A      6.669012   208A      6.720504   209A      6.944223  
     210A      7.086808   211A      7.155804   212A      7.313224  
     213A      7.323325   214A      7.334458   215A      7.372172  
     216A      7.438646   217A      7.581189   218A      7.674125  
     219A      7.854666   220A      7.913347   221A      7.940560  
     222A      8.069173   223A      8.190830   224A      8.293083  
     225A      8.743187   226A      8.827202   227A      8.854145  
     228A      9.782554   229A      9.925367   230A     10.005186  
     231A     10.248073   232A     10.427056   233A     11.247358  
     234A     11.651695   235A     12.130896   236A     13.540332  
     237A     13.835441   238A     15.849041   239A     30.264015  
     240A     30.380752   241A     31.345563   242A     64.726617  
     243A    198.060556  

    Final Occupation by Irrep:
              A 
    DOCC [     5 ]
    NA   [     5 ]
    NB   [     5 ]

  @DF-RHF Final Energy:   -76.06032004163208

   => Energetics <=

    Nuclear Repulsion Energy =              9.1617384230614540
    One-Electron Energy =                -122.9827151547528672
    Two-Electron Energy =                  37.7606566900593279
    Total Energy =                        -76.0603200416320817

Computation Completed


Properties will be evaluated at   0.000000,   0.000000,   0.000000 [a0]

Properties computed using the SCF density matrix


 Multipole Moments:

 ------------------------------------------------------------------------------------
     Multipole            Electronic (a.u.)      Nuclear  (a.u.)        Total (a.u.)
 ------------------------------------------------------------------------------------

 L = 1.  Multiply by 2.5417464519 to convert [e a0] to [Debye]
 Dipole X            :        -49.1753379           49.9611311            0.7857932
 Dipole Y            :         -0.0000000            0.0000000           -0.0000000
 Dipole Z            :          0.0000000            0.0000000            0.0000000
 Magnitude           :                                                    0.7857932

 ------------------------------------------------------------------------------------

*** tstop() called on moses-razer at Wed Jan 24 04:48:38 2024
Module time:
	user time   =      12.23 seconds =       0.20 minutes
	system time =       1.42 seconds =       0.02 minutes
	total time  =          5 seconds =       0.08 minutes
Total time:
	user time   =      34.75 seconds =       0.58 minutes
	system time =       5.23 seconds =       0.09 minutes
	total time  =         17 seconds =       0.28 minutes

*** tstart() called on moses-razer
*** at Wed Jan 24 04:48:38 2024


  //>>>>>>>>>>>>>>>>>>>>>>>>>>>>>>>>>>>//
  //               DFMP2               //
  //<<<<<<<<<<<<<<<<<<<<<<<<<<<<<<<<<<<//

   => Loading Basis Set <=

    Name: (AUG-CC-PVTZ AUX)
    Role: RIFIT
    Keyword: DF_BASIS_MP2
    atoms 1        entry K          line  1282 file /home/kchung25/anaconda3/envs/p415env/share/psi4/basis/def2-qzvpp-ri.gbs 
    atoms 2, 5     entry O          line   264 file /home/kchung25/anaconda3/envs/p415env/share/psi4/basis/aug-cc-pvtz-ri.gbs 
    atoms 3-4, 6-7 entry H          line    30 file /home/kchung25/anaconda3/envs/p415env/share/psi4/basis/aug-cc-pvtz-ri.gbs 

	 --------------------------------------------------------
	                          DF-MP2                         
	      2nd-Order Density-Fitted Moller-Plesset Theory     
	              RMP2 Wavefunction,   6 Threads             
	                                                         
	        Rob Parrish, Justin Turney, Andy Simmonett,      
	           Ed Hohenstein, and C. David Sherrill          
	 --------------------------------------------------------

   => Auxiliary Basis Set <=

  Basis Set: (AUG-CC-PVTZ AUX)
    Blend: AUG-CC-PVTZ-RI + DEF2-QZVPP-RI
    Number of shells: 161
    Number of basis functions: 595
    Number of Cartesian functions: 754
    Spherical Harmonics?: true
    Max angular momentum: 4

	 --------------------------------------------------------
	                 NBF =   243, NAUX =   595
	 --------------------------------------------------------
	   CLASS    FOCC     OCC    AOCC    AVIR     VIR    FVIR
	   PAIRS       0       5       5     238     238       0
	 --------------------------------------------------------

	-----------------------------------------------------------
	 ==================> DF-MP2 Energies <==================== 
	-----------------------------------------------------------
	 Reference Energy          =     -76.0603200416320817 [Eh]
	 Singles Energy            =      -0.0000000000000000 [Eh]
	 Same-Spin Energy          =      -0.0684408314483056 [Eh]
	 Opposite-Spin Energy      =      -0.2156127780854821 [Eh]
	 Correlation Energy        =      -0.2840536095337877 [Eh]
	 Total Energy              =     -76.3443736511658670 [Eh]
	-----------------------------------------------------------
	 ================> DF-SCS-MP2 Energies <================== 
	-----------------------------------------------------------
	 SCS Same-Spin Scale       =       0.3333333333333333 [-]
	 SCS Opposite-Spin Scale   =       1.2000000000000000 [-]
	 SCS Same-Spin Energy      =      -0.0228136104827685 [Eh]
	 SCS Opposite-Spin Energy  =      -0.2587353337025785 [Eh]
	 SCS Correlation Energy    =      -0.2815489441853470 [Eh]
	 SCS Total Energy          =     -76.3418689858174275 [Eh]
	-----------------------------------------------------------


*** tstop() called on moses-razer at Wed Jan 24 04:48:42 2024
Module time:
	user time   =       7.41 seconds =       0.12 minutes
	system time =       0.84 seconds =       0.01 minutes
	total time  =          4 seconds =       0.07 minutes
Total time:
	user time   =      42.16 seconds =       0.70 minutes
	system time =       6.07 seconds =       0.10 minutes
	total time  =         21 seconds =       0.35 minutes

    Psi4 stopped on: Wednesday, 24 January 2024 04:48AM
    Psi4 wall time for execution: 0:00:09.68


    -----------------------------------------------------------------------
          Psi4: An Open-Source Ab Initio Electronic Structure Package
                               Psi4 1.9 release

                         Git: Rev {} zzzzzzz 


    D. G. A. Smith, L. A. Burns, A. C. Simmonett, R. M. Parrish,
    M. C. Schieber, R. Galvelis, P. Kraus, H. Kruse, R. Di Remigio,
    A. Alenaizan, A. M. James, S. Lehtola, J. P. Misiewicz, M. Scheurer,
    R. A. Shaw, J. B. Schriber, Y. Xie, Z. L. Glick, D. A. Sirianni,
    J. S. O'Brien, J. M. Waldrop, A. Kumar, E. G. Hohenstein,
    B. P. Pritchard, B. R. Brooks, H. F. Schaefer III, A. Yu. Sokolov,
    K. Patkowski, A. E. DePrince III, U. Bozkaya, R. A. King,
    F. A. Evangelista, J. M. Turney, T. D. Crawford, C. D. Sherrill,
    J. Chem. Phys. 152(18) 184108 (2020). https://doi.org/10.1063/5.0006002

                            Additional Code Authors
    E. T. Seidl, C. L. Janssen, E. F. Valeev, M. L. Leininger,
    J. F. Gonthier, R. M. Richard, H. R. McAlexander, M. Saitow, X. Wang,
    P. Verma, M. H. Lechner, A. Jiang, S. Behnle, A. G. Heide,
    M. F. Herbst, and D. L. Poole

             Previous Authors, Complete List of Code Contributors,
                       and Citations for Specific Modules
    https://github.com/psi4/psi4/blob/master/codemeta.json
    https://github.com/psi4/psi4/graphs/contributors
    http://psicode.org/psi4manual/master/introduction.html#citing-psifour

    -----------------------------------------------------------------------


    Psi4 started on: Wednesday, 24 January 2024 04:48AM

    Process ID: 1192527
    Host:       moses-razer
    PSIDATADIR: /home/kchung25/anaconda3/envs/psi4_19/share/psi4
    Memory:     55.9 GiB
    Threads:    6
    
  ==> Input QCSchema <==

--------------------------------------------------------------------------
{'driver': 'energy',
 'extras': {'psiapi': True, 'wfn_qcvars_only': True},
 'id': None,
 'keywords': {'SCF_TYPE': 'DF', 'function_kwargs': {}},
 'model': {'basis': 'aug-cc-pvtz', 'method': 'mp2'},
 'molecule': {'atom_labels': ['', '', '', '', '', '', ''],
              'atomic_numbers': [19, 8, 1, 1, 8, 1, 1],
              'extras': {},
              'fix_com': True,
              'fix_orientation': True,
              'fix_symmetry': 'c1',
              'fragment_charges': [0.0, 0.0, 0.0],
              'fragment_multiplicities': [1, 1, 1],
              'fragments': [[0], [1, 2, 3], [4, 5, 6]],
              'geometry': [0.0, 0.0, 0.0, 4.77192696337548, 0.0, 0.0, 5.892857698939426, 1.428466654947078, 0.0,
                           5.892857698939426, -1.428466654947078, 0.0, -4.77192696337548, 0.0, 0.0, -5.892857698939426,
                           -1.428466654947078, 0.0, -5.892857698939426, 1.428466654947078, 0.0],
              'mass_numbers': [39, 16, 1, 1, 16, 1, 1],
              'masses': [38.9637064864, 15.99491461957, 1.00782503223, 1.00782503223, 15.99491461957, 1.00782503223,
                         1.00782503223],
              'molecular_charge': 0.0,
              'molecular_multiplicity': 1,
              'name': 'dimer',
              'provenance': {'creator': 'QCElemental',
                             'routine': 'qcelemental.molparse.from_string',
                             'version': '0.27.1'},
              'real': [False, True, True, True, True, True, True],
              'schema_name': 'qcschema_molecule',
              'schema_version': 2,
              'symbols': ['K', 'O', 'H', 'H', 'O', 'H', 'H'],
              'validated': True},
 'protocols': {'stdout': True},
 'provenance': {'creator': 'QCElemental', 'routine': 'qcelemental.models.results', 'version': '0.27.1'},
 'schema_name': 'qcschema_input',
 'schema_version': 1}
--------------------------------------------------------------------------

Scratch directory: /scratch/
   => Libint2 <=

    Primary   basis highest AM E, G, H:  5, 4, 3
    Auxiliary basis highest AM E, G, H:  6, 5, 4
    Onebody   basis highest AM E, G, H:  6, 5, 4
    Solid Harmonics ordering:            gaussian

*** tstart() called on moses-razer
*** at Wed Jan 24 04:48:42 2024

   => Loading Basis Set <=

    Name: AUG-CC-PVTZ
    Role: ORBITAL
    Keyword: BASIS
    atoms 1        entry K          line  1152 file /home/kchung25/anaconda3/envs/p415env/share/psi4/basis/aug-cc-pvtz.gbs 
    atoms 2, 5     entry O          line   331 file /home/kchung25/anaconda3/envs/p415env/share/psi4/basis/aug-cc-pvtz.gbs 
    atoms 3-4, 6-7 entry H          line    40 file /home/kchung25/anaconda3/envs/p415env/share/psi4/basis/aug-cc-pvtz.gbs 


         ---------------------------------------------------------
                                   SCF
               by Justin Turney, Rob Parrish, Andy Simmonett
                          and Daniel G. A. Smith
                              RHF Reference
                        6 Threads,  57220 MiB Core
         ---------------------------------------------------------

  ==> Geometry <==

    Molecular point group: c1
    Full point group: D2h

    Geometry (in Bohr), charge = 0, multiplicity = 1:

       Center              X                  Y                   Z               Mass       
    ------------   -----------------  -----------------  -----------------  -----------------
      Gh(K)           0.000000000000     0.000000000000     0.000000000000    38.963706486400
         O            4.771926963375     0.000000000000     0.000000000000    15.994914619570
         H            5.892857698939     1.428466654947     0.000000000000     1.007825032230
         H            5.892857698939    -1.428466654947     0.000000000000     1.007825032230
         O           -4.771926963375     0.000000000000     0.000000000000    15.994914619570
         H           -5.892857698939    -1.428466654947     0.000000000000     1.007825032230
         H           -5.892857698939     1.428466654947     0.000000000000     1.007825032230

  Running in c1 symmetry.

  Rotational constants: A =      7.31828  B =      0.06932  C =      0.06867 [cm^-1]
  Rotational constants: A = 219396.44560  B =   2078.14248  C =   2058.64284 [MHz]
  Nuclear repulsion =   28.337951493795718

  Charge       = 0
  Multiplicity = 1
  Electrons    = 20
  Nalpha       = 10
  Nbeta        = 10

  ==> Algorithm <==

  SCF Algorithm Type is DF.
  DIIS enabled.
  MOM disabled.
  Fractional occupation disabled.
  Guess Type is SAD.
  Energy threshold   = 1.00e-08
  Density threshold  = 1.00e-08
  Integral threshold = 1.00e-12

  ==> Primary Basis <==

  Basis Set: AUG-CC-PVTZ
    Blend: AUG-CC-PVTZ
    Number of shells: 83
    Number of basis functions: 243
    Number of Cartesian functions: 279
    Spherical Harmonics?: true
    Max angular momentum: 3

   => Loading Basis Set <=

    Name: (AUG-CC-PVTZ AUX)
    Role: JKFIT
    Keyword: DF_BASIS_SCF
    atoms 1        entry K          line  1152 file /home/kchung25/anaconda3/envs/p415env/share/psi4/basis/def2-universal-jkfit.gbs 
    atoms 2, 5     entry O          line   286 file /home/kchung25/anaconda3/envs/p415env/share/psi4/basis/aug-cc-pvtz-jkfit.gbs 
    atoms 3-4, 6-7 entry H          line    70 file /home/kchung25/anaconda3/envs/p415env/share/psi4/basis/aug-cc-pvtz-jkfit.gbs 

  ==> Integral Setup <==

  DFHelper Memory: AOs need 0.235 GiB; user supplied 41.910 GiB. 
  Using in-core AOs.

  ==> MemDFJK: Density-Fitted J/K Matrices <==

    J tasked:                   Yes
    K tasked:                   Yes
    wK tasked:                   No
    OpenMP threads:               6
    Memory [MiB]:             42915
    Algorithm:                 Core
    Schwarz Cutoff:           1E-12
    Mask sparsity (%):      10.0019
    Fitting Condition:        1E-10

   => Auxiliary Basis Set <=

  Basis Set: (AUG-CC-PVTZ AUX)
    Blend: AUG-CC-PVTZ-JKFIT + DEF2-UNIVERSAL-JKFIT
    Number of shells: 160
    Number of basis functions: 552
    Number of Cartesian functions: 685
    Spherical Harmonics?: true
    Max angular momentum: 4

  Minimum eigenvalue in the overlap matrix is 5.3807369693E-05.
  Reciprocal condition number of the overlap matrix is 5.8063425601E-06.
    Using symmetric orthogonalization.

  ==> Pre-Iterations <==

  SCF Guess: Superposition of Atomic Densities via on-the-fly atomic UHF (no occupation information).

   -------------------------
    Irrep   Nso     Nmo    
   -------------------------
     A        243     243 
   -------------------------
    Total     243     243
   -------------------------

  ==> Iterations <==

                           Total Energy        Delta E     RMS |[F,P]|

   @DF-RHF iter SAD:  -150.94941260936520   -1.50949e+02   0.00000e+00 
   @DF-RHF iter   1:  -151.94868838077227   -9.99276e-01   2.73572e-03 ADIIS/DIIS
   @DF-RHF iter   2:  -152.05416926497301   -1.05481e-01   1.87690e-03 ADIIS/DIIS
   @DF-RHF iter   3:  -152.11853919656045   -6.43699e-02   1.27722e-04 ADIIS/DIIS
   @DF-RHF iter   4:  -152.11933201638942   -7.92820e-04   3.06329e-05 DIIS
   @DF-RHF iter   5:  -152.11938218175666   -5.01654e-05   7.01241e-06 DIIS
   @DF-RHF iter   6:  -152.11938634434298   -4.16259e-06   1.53442e-06 DIIS
   @DF-RHF iter   7:  -152.11938656334954   -2.19007e-07   2.76743e-07 DIIS
   @DF-RHF iter   8:  -152.11938656961308   -6.26355e-09   4.67545e-08 DIIS
   @DF-RHF iter   9:  -152.11938656975332   -1.40233e-10   1.14857e-08 DIIS
   @DF-RHF iter  10:  -152.11938656976150   -8.18545e-12   1.69177e-09 DIIS
  Energy and wave function converged.


  ==> Post-Iterations <==

    Orbital Energies [Eh]
    ---------------------

    Doubly Occupied:                                                      

       1A    -20.560756     2A    -20.560756     3A     -1.344828  
       4A     -1.344822     5A     -0.706970     6A     -0.706956  
       7A     -0.577981     8A     -0.577441     9A     -0.502732  
      10A     -0.502648  

    Virtual:                                                              

      11A      0.008227    12A      0.009720    13A      0.010355  
      14A      0.011228    15A      0.017558    16A      0.017966  
      17A      0.019095    18A      0.020157    19A      0.020194  
      20A      0.034324    21A      0.038991    22A      0.041955  
      23A      0.045085    24A      0.058619    25A      0.062939  
      26A      0.068744    27A      0.070299    28A      0.070350  
      29A      0.071244    30A      0.073767    31A      0.098402  
      32A      0.104468    33A      0.114647    34A      0.116587  
      35A      0.116964    36A      0.120487    37A      0.136758  
      38A      0.141512    39A      0.146008    40A      0.151842  
      41A      0.151894    42A      0.186432    43A      0.191544  
      44A      0.210305    45A      0.216017    46A      0.222371  
      47A      0.235155    48A      0.235189    49A      0.243790  
      50A      0.246933    51A      0.268645    52A      0.269431  
      53A      0.273664    54A      0.279752    55A      0.283122  
      56A      0.293283    57A      0.293879    58A      0.300487  
      59A      0.309541    60A      0.340352    61A      0.340827  
      62A      0.356565    63A      0.382413    64A      0.387464  
      65A      0.410221    66A      0.418371    67A      0.420159  
      68A      0.430241    69A      0.437797    70A      0.444354  
      71A      0.450395    72A      0.481363    73A      0.483504  
      74A      0.487101    75A      0.492970    76A      0.494077  
      77A      0.502378    78A      0.502513    79A      0.552657  
      80A      0.600098    81A      0.608801    82A      0.632858  
      83A      0.683198    84A      0.698582    85A      0.705725  
      86A      0.740422    87A      0.765629    88A      0.791570  
      89A      0.798903    90A      0.804253    91A      0.831097  
      92A      0.844561    93A      0.866537    94A      0.872499  
      95A      0.901801    96A      0.912282    97A      0.955575  
      98A      0.958100    99A      0.962007   100A      0.972584  
     101A      0.981637   102A      1.030011   103A      1.042109  
     104A      1.044514   105A      1.071882   106A      1.072042  
     107A      1.087293   108A      1.089527   109A      1.095187  
     110A      1.114995   111A      1.119449   112A      1.129711  
     113A      1.143618   114A      1.165916   115A      1.186348  
     116A      1.197828   117A      1.220394   118A      1.224259  
     119A      1.268811   120A      1.276107   121A      1.282583  
     122A      1.358847   123A      1.442282   124A      1.513973  
     125A      1.572929   126A      1.581324   127A      1.600779  
     128A      1.628389   129A      1.629333   130A      1.849595  
     131A      1.850390   132A      1.859839   133A      1.912747  
     134A      1.936631   135A      1.952422   136A      1.994304  
     137A      2.002415   138A      2.006118   139A      2.086770  
     140A      2.142905   141A      2.151565   142A      2.227180  
     143A      2.330050   144A      2.337899   145A      2.338515  
     146A      2.343159   147A      2.357192   148A      2.381628  
     149A      2.416075   150A      2.428108   151A      2.440215  
     152A      2.459637   153A      2.528667   154A      2.568341  
     155A      2.582285   156A      2.586986   157A      2.633779  
     158A      2.643843   159A      2.744842   160A      2.774961  
     161A      2.801904   162A      2.802278   163A      2.811871  
     164A      2.834296   165A      2.895312   166A      2.896880  
     167A      2.899861   168A      2.918586   169A      3.226271  
     170A      3.677510   171A      3.765192   172A      3.765336  
     173A      3.821883   174A      3.831149   175A      4.028745  
     176A      4.039372   177A      4.115311   178A      4.202620  
     179A      4.224768   180A      4.249844   181A      4.275402  
     182A      4.297441   183A      4.299719   184A      4.304092  
     185A      4.404103   186A      4.447853   187A      4.455672  
     188A      4.462893   189A      4.468343   190A      4.483357  
     191A      4.538803   192A      4.548406   193A      4.808501  
     194A      4.840372   195A      4.863543   196A      4.880407  
     197A      5.158152   198A      5.160675   199A      5.165148  
     200A      5.170838   201A      5.266080   202A      5.274139  
     203A      5.354704   204A      5.367334   205A      5.533951  
     206A      5.539091   207A      5.722320   208A      5.748829  
     209A      6.256636   210A      6.292516   211A      6.580976  
     212A      6.608981   213A      6.725323   214A      6.731092  
     215A      6.948450   216A      6.954233   217A      7.158809  
     218A      7.167775   219A      7.314761   220A      7.322523  
     221A      7.326771   222A      7.327457   223A      7.334414  
     224A      7.362843   225A      7.373499   226A      7.385690  
     227A      7.435147   228A      7.456498   229A      7.563969  
     230A      7.615545   231A      7.919525   232A      7.922225  
     233A      7.941752   234A      7.956592   235A      8.833080  
     236A      8.836070   237A     10.454361   238A     15.805771  
     239A     15.906374   240A     30.293642   241A     30.410163  
     242A     31.375038   243A    198.090435  

    Final Occupation by Irrep:
              A 
    DOCC [    10 ]
    NA   [    10 ]
    NB   [    10 ]

  @DF-RHF Final Energy:  -152.11938656976150

   => Energetics <=

    Nuclear Repulsion Energy =             28.3379514937957175
    One-Electron Energy =                -266.1428953122568828
    Two-Electron Energy =                  85.6855572486996664
    Total Energy =                       -152.1193865697615024

Computation Completed


Properties will be evaluated at   0.000000,   0.000000,   0.000000 [a0]

Properties computed using the SCF density matrix


 Multipole Moments:

 ------------------------------------------------------------------------------------
     Multipole            Electronic (a.u.)      Nuclear  (a.u.)        Total (a.u.)
 ------------------------------------------------------------------------------------

 L = 1.  Multiply by 2.5417464519 to convert [e a0] to [Debye]
 Dipole X            :         -0.0000000           -0.0000000           -0.0000000
 Dipole Y            :         -0.0000000            0.0000000           -0.0000000
 Dipole Z            :          0.0000000            0.0000000            0.0000000
 Magnitude           :                                                    0.0000000

 ------------------------------------------------------------------------------------

*** tstop() called on moses-razer at Wed Jan 24 04:48:47 2024
Module time:
	user time   =      12.09 seconds =       0.20 minutes
	system time =       1.43 seconds =       0.02 minutes
	total time  =          5 seconds =       0.08 minutes
Total time:
	user time   =      54.48 seconds =       0.91 minutes
	system time =       7.50 seconds =       0.12 minutes
	total time  =         26 seconds =       0.43 minutes

*** tstart() called on moses-razer
*** at Wed Jan 24 04:48:47 2024


  //>>>>>>>>>>>>>>>>>>>>>>>>>>>>>>>>>>>//
  //               DFMP2               //
  //<<<<<<<<<<<<<<<<<<<<<<<<<<<<<<<<<<<//

   => Loading Basis Set <=

    Name: (AUG-CC-PVTZ AUX)
    Role: RIFIT
    Keyword: DF_BASIS_MP2
    atoms 1        entry K          line  1282 file /home/kchung25/anaconda3/envs/p415env/share/psi4/basis/def2-qzvpp-ri.gbs 
    atoms 2, 5     entry O          line   264 file /home/kchung25/anaconda3/envs/p415env/share/psi4/basis/aug-cc-pvtz-ri.gbs 
    atoms 3-4, 6-7 entry H          line    30 file /home/kchung25/anaconda3/envs/p415env/share/psi4/basis/aug-cc-pvtz-ri.gbs 

	 --------------------------------------------------------
	                          DF-MP2                         
	      2nd-Order Density-Fitted Moller-Plesset Theory     
	              RMP2 Wavefunction,   6 Threads             
	                                                         
	        Rob Parrish, Justin Turney, Andy Simmonett,      
	           Ed Hohenstein, and C. David Sherrill          
	 --------------------------------------------------------

   => Auxiliary Basis Set <=

  Basis Set: (AUG-CC-PVTZ AUX)
    Blend: AUG-CC-PVTZ-RI + DEF2-QZVPP-RI
    Number of shells: 161
    Number of basis functions: 595
    Number of Cartesian functions: 754
    Spherical Harmonics?: true
    Max angular momentum: 4

	 --------------------------------------------------------
	                 NBF =   243, NAUX =   595
	 --------------------------------------------------------
	   CLASS    FOCC     OCC    AOCC    AVIR     VIR    FVIR
	   PAIRS       0      10      10     233     233       0
	 --------------------------------------------------------

	-----------------------------------------------------------
	 ==================> DF-MP2 Energies <==================== 
	-----------------------------------------------------------
	 Reference Energy          =    -152.1193865697615024 [Eh]
	 Singles Energy            =      -0.0000000000000000 [Eh]
	 Same-Spin Energy          =      -0.1369425588839688 [Eh]
	 Opposite-Spin Energy      =      -0.4313735639183894 [Eh]
	 Correlation Energy        =      -0.5683161228023582 [Eh]
	 Total Energy              =    -152.6877026925638745 [Eh]
	-----------------------------------------------------------
	 ================> DF-SCS-MP2 Energies <================== 
	-----------------------------------------------------------
	 SCS Same-Spin Scale       =       0.3333333333333333 [-]
	 SCS Opposite-Spin Scale   =       1.2000000000000000 [-]
	 SCS Same-Spin Energy      =      -0.0456475196279896 [Eh]
	 SCS Opposite-Spin Energy  =      -0.5176482767020673 [Eh]
	 SCS Correlation Energy    =      -0.5632957963300569 [Eh]
	 SCS Total Energy          =    -152.6826823660915693 [Eh]
	-----------------------------------------------------------


*** tstop() called on moses-razer at Wed Jan 24 04:48:52 2024
Module time:
	user time   =       7.45 seconds =       0.12 minutes
	system time =       0.86 seconds =       0.01 minutes
	total time  =          5 seconds =       0.08 minutes
Total time:
	user time   =      61.94 seconds =       1.03 minutes
	system time =       8.36 seconds =       0.14 minutes
	total time  =         31 seconds =       0.52 minutes

    Psi4 stopped on: Wednesday, 24 January 2024 04:48AM
    Psi4 wall time for execution: 0:00:09.67


    -----------------------------------------------------------------------
          Psi4: An Open-Source Ab Initio Electronic Structure Package
                               Psi4 1.9 release

                         Git: Rev {} zzzzzzz 


    D. G. A. Smith, L. A. Burns, A. C. Simmonett, R. M. Parrish,
    M. C. Schieber, R. Galvelis, P. Kraus, H. Kruse, R. Di Remigio,
    A. Alenaizan, A. M. James, S. Lehtola, J. P. Misiewicz, M. Scheurer,
    R. A. Shaw, J. B. Schriber, Y. Xie, Z. L. Glick, D. A. Sirianni,
    J. S. O'Brien, J. M. Waldrop, A. Kumar, E. G. Hohenstein,
    B. P. Pritchard, B. R. Brooks, H. F. Schaefer III, A. Yu. Sokolov,
    K. Patkowski, A. E. DePrince III, U. Bozkaya, R. A. King,
    F. A. Evangelista, J. M. Turney, T. D. Crawford, C. D. Sherrill,
    J. Chem. Phys. 152(18) 184108 (2020). https://doi.org/10.1063/5.0006002

                            Additional Code Authors
    E. T. Seidl, C. L. Janssen, E. F. Valeev, M. L. Leininger,
    J. F. Gonthier, R. M. Richard, H. R. McAlexander, M. Saitow, X. Wang,
    P. Verma, M. H. Lechner, A. Jiang, S. Behnle, A. G. Heide,
    M. F. Herbst, and D. L. Poole

             Previous Authors, Complete List of Code Contributors,
                       and Citations for Specific Modules
    https://github.com/psi4/psi4/blob/master/codemeta.json
    https://github.com/psi4/psi4/graphs/contributors
    http://psicode.org/psi4manual/master/introduction.html#citing-psifour

    -----------------------------------------------------------------------


    Psi4 started on: Wednesday, 24 January 2024 04:48AM

    Process ID: 1192527
    Host:       moses-razer
    PSIDATADIR: /home/kchung25/anaconda3/envs/psi4_19/share/psi4
    Memory:     55.9 GiB
    Threads:    6
    
  ==> Input QCSchema <==

--------------------------------------------------------------------------
{'driver': 'energy',
 'extras': {'psiapi': True, 'wfn_qcvars_only': True},
 'id': None,
 'keywords': {'SCF_TYPE': 'DF', 'function_kwargs': {}},
 'model': {'basis': 'aug-cc-pvtz', 'method': 'mp2'},
 'molecule': {'atom_labels': ['', '', '', '', '', '', ''],
              'atomic_numbers': [19, 8, 1, 1, 8, 1, 1],
              'extras': {},
              'fix_com': True,
              'fix_orientation': True,
              'fix_symmetry': 'c1',
              'fragment_charges': [1.0, 0.0, 0.0],
              'fragment_multiplicities': [1, 1, 1],
              'fragments': [[0], [1, 2, 3], [4, 5, 6]],
              'geometry': [0.0, 0.0, 0.0, 4.77192696337548, 0.0, 0.0, 5.892857698939426, 1.428466654947078, 0.0,
                           5.892857698939426, -1.428466654947078, 0.0, -4.77192696337548, 0.0, 0.0, -5.892857698939426,
                           -1.428466654947078, 0.0, -5.892857698939426, 1.428466654947078, 0.0],
              'mass_numbers': [39, 16, 1, 1, 16, 1, 1],
              'masses': [38.9637064864, 15.99491461957, 1.00782503223, 1.00782503223, 15.99491461957, 1.00782503223,
                         1.00782503223],
              'molecular_charge': 1.0,
              'molecular_multiplicity': 1,
              'name': 'dimer',
              'provenance': {'creator': 'QCElemental',
                             'routine': 'qcelemental.molparse.from_string',
                             'version': '0.27.1'},
              'real': [True, False, False, False, True, True, True],
              'schema_name': 'qcschema_molecule',
              'schema_version': 2,
              'symbols': ['K', 'O', 'H', 'H', 'O', 'H', 'H'],
              'validated': True},
 'protocols': {'stdout': True},
 'provenance': {'creator': 'QCElemental', 'routine': 'qcelemental.models.results', 'version': '0.27.1'},
 'schema_name': 'qcschema_input',
 'schema_version': 1}
--------------------------------------------------------------------------

Scratch directory: /scratch/
   => Libint2 <=

    Primary   basis highest AM E, G, H:  5, 4, 3
    Auxiliary basis highest AM E, G, H:  6, 5, 4
    Onebody   basis highest AM E, G, H:  6, 5, 4
    Solid Harmonics ordering:            gaussian

*** tstart() called on moses-razer
*** at Wed Jan 24 04:48:52 2024

   => Loading Basis Set <=

    Name: AUG-CC-PVTZ
    Role: ORBITAL
    Keyword: BASIS
    atoms 1        entry K          line  1152 file /home/kchung25/anaconda3/envs/p415env/share/psi4/basis/aug-cc-pvtz.gbs 
    atoms 2, 5     entry O          line   331 file /home/kchung25/anaconda3/envs/p415env/share/psi4/basis/aug-cc-pvtz.gbs 
    atoms 3-4, 6-7 entry H          line    40 file /home/kchung25/anaconda3/envs/p415env/share/psi4/basis/aug-cc-pvtz.gbs 


         ---------------------------------------------------------
                                   SCF
               by Justin Turney, Rob Parrish, Andy Simmonett
                          and Daniel G. A. Smith
                              RHF Reference
                        6 Threads,  57220 MiB Core
         ---------------------------------------------------------

  ==> Geometry <==

    Molecular point group: c1
    Full point group: C2v

    Geometry (in Bohr), charge = 1, multiplicity = 1:

       Center              X                  Y                   Z               Mass       
    ------------   -----------------  -----------------  -----------------  -----------------
         K            0.000000000000     0.000000000000     0.000000000000    38.963706486400
      Gh(O)           4.771926963375     0.000000000000     0.000000000000    15.994914619570
      Gh(H)           5.892857698939     1.428466654947     0.000000000000     1.007825032230
      Gh(H)           5.892857698939    -1.428466654947     0.000000000000     1.007825032230
         O           -4.771926963375     0.000000000000     0.000000000000    15.994914619570
         H           -5.892857698939    -1.428466654947     0.000000000000     1.007825032230
         H           -5.892857698939     1.428466654947     0.000000000000     1.007825032230

  Running in c1 symmetry.

  Rotational constants: A =      7.31828  B =      0.06932  C =      0.06867 [cm^-1]
  Rotational constants: A = 219396.44560  B =   2078.14248  C =   2058.64284 [MHz]
  Nuclear repulsion =   47.281684333103854

  Charge       = 1
  Multiplicity = 1
  Electrons    = 28
  Nalpha       = 14
  Nbeta        = 14

  ==> Algorithm <==

  SCF Algorithm Type is DF.
  DIIS enabled.
  MOM disabled.
  Fractional occupation disabled.
  Guess Type is SAD.
  Energy threshold   = 1.00e-08
  Density threshold  = 1.00e-08
  Integral threshold = 1.00e-12

  ==> Primary Basis <==

  Basis Set: AUG-CC-PVTZ
    Blend: AUG-CC-PVTZ
    Number of shells: 83
    Number of basis functions: 243
    Number of Cartesian functions: 279
    Spherical Harmonics?: true
    Max angular momentum: 3

   => Loading Basis Set <=

    Name: (AUG-CC-PVTZ AUX)
    Role: JKFIT
    Keyword: DF_BASIS_SCF
    atoms 1        entry K          line  1152 file /home/kchung25/anaconda3/envs/p415env/share/psi4/basis/def2-universal-jkfit.gbs 
    atoms 2, 5     entry O          line   286 file /home/kchung25/anaconda3/envs/p415env/share/psi4/basis/aug-cc-pvtz-jkfit.gbs 
    atoms 3-4, 6-7 entry H          line    70 file /home/kchung25/anaconda3/envs/p415env/share/psi4/basis/aug-cc-pvtz-jkfit.gbs 

  ==> Integral Setup <==

  DFHelper Memory: AOs need 0.235 GiB; user supplied 41.910 GiB. 
  Using in-core AOs.

  ==> MemDFJK: Density-Fitted J/K Matrices <==

    J tasked:                   Yes
    K tasked:                   Yes
    wK tasked:                   No
    OpenMP threads:               6
    Memory [MiB]:             42915
    Algorithm:                 Core
    Schwarz Cutoff:           1E-12
    Mask sparsity (%):      10.0019
    Fitting Condition:        1E-10

   => Auxiliary Basis Set <=

  Basis Set: (AUG-CC-PVTZ AUX)
    Blend: AUG-CC-PVTZ-JKFIT + DEF2-UNIVERSAL-JKFIT
    Number of shells: 160
    Number of basis functions: 552
    Number of Cartesian functions: 685
    Spherical Harmonics?: true
    Max angular momentum: 4

  Minimum eigenvalue in the overlap matrix is 5.3807369693E-05.
  Reciprocal condition number of the overlap matrix is 5.8063425601E-06.
    Using symmetric orthogonalization.

  ==> Pre-Iterations <==

  SCF Guess: Superposition of Atomic Densities via on-the-fly atomic UHF (no occupation information).

   -------------------------
    Irrep   Nso     Nmo    
   -------------------------
     A        243     243 
   -------------------------
    Total     243     243
   -------------------------

  ==> Iterations <==

                           Total Energy        Delta E     RMS |[F,P]|

   @DF-RHF iter SAD:  -674.57461260108994   -6.74575e+02   0.00000e+00 
   @DF-RHF iter   1:  -675.01644079157950   -4.41828e-01   1.99481e-03 ADIIS/DIIS
   @DF-RHF iter   2:  -675.07267337937003   -5.62326e-02   1.30814e-03 ADIIS/DIIS
   @DF-RHF iter   3:  -675.10356880667348   -3.08954e-02   9.00721e-05 DIIS
   @DF-RHF iter   4:  -675.10393790758962   -3.69101e-04   2.09294e-05 DIIS
   @DF-RHF iter   5:  -675.10395941530510   -2.15077e-05   4.60362e-06 DIIS
   @DF-RHF iter   6:  -675.10396094831685   -1.53301e-06   9.74949e-07 DIIS
   @DF-RHF iter   7:  -675.10396102002483   -7.17080e-08   2.43879e-07 DIIS
   @DF-RHF iter   8:  -675.10396102413893   -4.11410e-09   5.04462e-08 DIIS
   @DF-RHF iter   9:  -675.10396102429763   -1.58707e-10   6.46311e-09 DIIS
  Energy and wave function converged.


  ==> Post-Iterations <==

    Orbital Energies [Eh]
    ---------------------

    Doubly Occupied:                                                      

       1A   -133.705217     2A    -20.755218     3A    -14.661836  
       4A    -11.691849     5A    -11.691819     6A    -11.691699  
       7A     -1.920660     8A     -1.544833     9A     -1.129213  
      10A     -1.128613    11A     -1.128149    12A     -0.904808  
      13A     -0.790429    14A     -0.704517  

    Virtual:                                                              

      15A     -0.125148    16A     -0.086342    17A     -0.085942  
      18A     -0.083031    19A     -0.058698    20A     -0.055152  
      21A     -0.052808    22A     -0.052591    23A     -0.052565  
      24A     -0.051937    25A     -0.042495    26A     -0.041453  
      27A     -0.041400    28A     -0.028749    29A     -0.027732  
      30A     -0.027726    31A     -0.027726    32A     -0.025829  
      33A     -0.016933    34A     -0.015631    35A     -0.012126  
      36A     -0.010564    37A     -0.010327    38A     -0.005432  
      39A      0.012678    40A      0.014739    41A      0.015305  
      42A      0.018523    43A      0.019544    44A      0.023268  
      45A      0.023290    46A      0.034363    47A      0.034399  
      48A      0.036748    49A      0.043978    50A      0.054496  
      51A      0.071519    52A      0.071877    53A      0.090481  
      54A      0.100930    55A      0.107269    56A      0.117712  
      57A      0.118228    58A      0.126649    59A      0.139341  
      60A      0.141690    61A      0.157564    62A      0.161827  
      63A      0.166094    64A      0.178141    65A      0.211891  
      66A      0.212704    67A      0.215216    68A      0.223161  
      69A      0.234992    70A      0.239247    71A      0.245013  
      72A      0.253697    73A      0.254839    74A      0.256378  
      75A      0.257280    76A      0.267329    77A      0.273903  
      78A      0.280768    79A      0.282855    80A      0.292250  
      81A      0.307744    82A      0.310158    83A      0.310226  
      84A      0.337550    85A      0.343451    86A      0.344366  
      87A      0.364792    88A      0.373767    89A      0.410354  
      90A      0.422952    91A      0.471606    92A      0.567843  
      93A      0.577243    94A      0.585484    95A      0.604710  
      96A      0.638324    97A      0.661986    98A      0.679490  
      99A      0.694924   100A      0.703869   101A      0.717286  
     102A      0.724791   103A      0.749897   104A      0.773156  
     105A      0.803862   106A      0.807299   107A      0.816779  
     108A      0.818469   109A      0.820340   110A      0.825633  
     111A      0.874564   112A      0.904087   113A      0.915447  
     114A      0.926471   115A      0.928593   116A      0.929251  
     117A      0.953163   118A      0.956037   119A      0.985598  
     120A      0.990529   121A      1.009788   122A      1.021636  
     123A      1.026037   124A      1.050721   125A      1.061490  
     126A      1.080844   127A      1.097352   128A      1.118651  
     129A      1.156917   130A      1.179484   131A      1.378630  
     132A      1.382823   133A      1.388437   134A      1.426926  
     135A      1.452485   136A      1.528642   137A      1.574663  
     138A      1.616975   139A      1.638411   140A      1.684851  
     141A      1.705001   142A      1.715724   143A      1.809354  
     144A      1.830312   145A      1.934407   146A      1.955554  
     147A      2.110392   148A      2.123370   149A      2.171876  
     150A      2.212130   151A      2.220581   152A      2.247367  
     153A      2.295875   154A      2.328836   155A      2.341277  
     156A      2.347548   157A      2.370350   158A      2.416306  
     159A      2.436880   160A      2.519309   161A      2.536419  
     162A      2.588213   163A      2.612569   164A      2.652908  
     165A      2.658944   166A      2.680779   167A      2.710448  
     168A      3.013554   169A      3.036224   170A      3.133402  
     171A      3.144957   172A      3.183807   173A      3.391191  
     174A      3.514965   175A      3.564557   176A      3.603586  
     177A      3.849585   178A      3.965872   179A      4.032374  
     180A      4.087955   181A      4.109533   182A      4.203442  
     183A      4.240001   184A      4.264212   185A      4.267023  
     186A      4.343035   187A      4.354589   188A      4.365812  
     189A      4.446977   190A      4.545468   191A      4.545491  
     192A      4.620242   193A      4.684388   194A      4.758373  
     195A      4.760839   196A      4.769102   197A      4.966114  
     198A      4.981644   199A      5.052842   200A      5.066588  
     201A      5.160707   202A      5.344716   203A      5.390245  
     204A      5.459015   205A      5.478953   206A      5.525408  
     207A      5.676235   208A      5.932078   209A      6.063224  
     210A      6.246041   211A      6.389750   212A      6.482545  
     213A      6.520089   214A      6.740183   215A      6.901182  
     216A      6.959894   217A      7.119034   218A      7.127081  
     219A      7.137457   220A      7.182185   221A      7.232913  
     222A      7.385418   223A      7.470319   224A      7.649481  
     225A      7.720016   226A      7.743616   227A      7.871821  
     228A      7.995256   229A      8.094505   230A      8.555505  
     231A      8.637397   232A      8.656274   233A      9.572621  
     234A      9.719432   235A      9.807402   236A     10.046490  
     237A     11.053699   238A     11.454065   239A     11.931898  
     240A     13.345388   241A     13.637013   242A     15.661008  
     243A     64.527939  

    Final Occupation by Irrep:
              A 
    DOCC [    14 ]
    NA   [    14 ]
    NB   [    14 ]

  @DF-RHF Final Energy:  -675.10396102429763

   => Energetics <=

    Nuclear Repulsion Energy =             47.2816843331038541
    One-Electron Energy =               -1017.8735719391925159
    Two-Electron Energy =                 295.4879265817909868
    Total Energy =                       -675.1039610242976323

Computation Completed


Properties will be evaluated at   0.000000,   0.000000,   0.000000 [a0]

Properties computed using the SCF density matrix


 Multipole Moments:

 ------------------------------------------------------------------------------------
     Multipole            Electronic (a.u.)      Nuclear  (a.u.)        Total (a.u.)
 ------------------------------------------------------------------------------------

 L = 1.  Multiply by 2.5417464519 to convert [e a0] to [Debye]
 Dipole X            :         48.8005734          -49.9611311           -1.1605577
 Dipole Y            :          0.0000000            0.0000000            0.0000000
 Dipole Z            :         -0.0000000            0.0000000           -0.0000000
 Magnitude           :                                                    1.1605577

[...]
    https://github.com/psi4/psi4/graphs/contributors
    http://psicode.org/psi4manual/master/introduction.html#citing-psifour

    -----------------------------------------------------------------------


    Psi4 started on: Wednesday, 24 January 2024 04:48AM

    Process ID: 1192527
    Host:       moses-razer
    PSIDATADIR: /home/kchung25/anaconda3/envs/psi4_19/share/psi4
    Memory:     55.9 GiB
    Threads:    6
    
  ==> Input QCSchema <==

--------------------------------------------------------------------------
{'driver': 'energy',
 'extras': {'psiapi': True, 'wfn_qcvars_only': True},
 'id': None,
 'keywords': {'SCF_TYPE': 'DF', 'function_kwargs': {}},
 'model': {'basis': 'aug-cc-pvtz', 'method': 'mp2'},
 'molecule': {'atom_labels': ['', '', '', '', '', '', ''],
              'atomic_numbers': [19, 8, 1, 1, 8, 1, 1],
              'extras': {},
              'fix_com': True,
              'fix_orientation': True,
              'fix_symmetry': 'c1',
              'fragment_charges': [1.0, 0.0, 0.0],
              'fragment_multiplicities': [1, 1, 1],
              'fragments': [[0], [1, 2, 3], [4, 5, 6]],
              'geometry': [0.0, 0.0, 0.0, 4.77192696337548, 0.0, 0.0, 5.892857698939426, 1.428466654947078, 0.0,
                           5.892857698939426, -1.428466654947078, 0.0, -4.77192696337548, 0.0, 0.0, -5.892857698939426,
                           -1.428466654947078, 0.0, -5.892857698939426, 1.428466654947078, 0.0],
              'mass_numbers': [39, 16, 1, 1, 16, 1, 1],
              'masses': [38.9637064864, 15.99491461957, 1.00782503223, 1.00782503223, 15.99491461957, 1.00782503223,
                         1.00782503223],
              'molecular_charge': 1.0,
              'molecular_multiplicity': 1,
              'name': 'dimer',
              'provenance': {'creator': 'QCElemental',
                             'routine': 'qcelemental.molparse.from_string',
                             'version': '0.27.1'},
              'real': [True, True, True, True, True, True, True],
              'schema_name': 'qcschema_molecule',
              'schema_version': 2,
              'symbols': ['K', 'O', 'H', 'H', 'O', 'H', 'H'],
              'validated': True},
 'protocols': {'stdout': True},
 'provenance': {'creator': 'QCElemental', 'routine': 'qcelemental.models.results', 'version': '0.27.1'},
 'schema_name': 'qcschema_input',
 'schema_version': 1}
--------------------------------------------------------------------------

Scratch directory: /scratch/
   => Libint2 <=

    Primary   basis highest AM E, G, H:  5, 4, 3
    Auxiliary basis highest AM E, G, H:  6, 5, 4
    Onebody   basis highest AM E, G, H:  6, 5, 4
    Solid Harmonics ordering:            gaussian

*** tstart() called on moses-razer
*** at Wed Jan 24 04:49:26 2024

   => Loading Basis Set <=

    Name: AUG-CC-PVTZ
    Role: ORBITAL
    Keyword: BASIS
    atoms 1        entry K          line  1152 file /home/kchung25/anaconda3/envs/p415env/share/psi4/basis/aug-cc-pvtz.gbs 
    atoms 2, 5     entry O          line   331 file /home/kchung25/anaconda3/envs/p415env/share/psi4/basis/aug-cc-pvtz.gbs 
    atoms 3-4, 6-7 entry H          line    40 file /home/kchung25/anaconda3/envs/p415env/share/psi4/basis/aug-cc-pvtz.gbs 


         ---------------------------------------------------------
                                   SCF
               by Justin Turney, Rob Parrish, Andy Simmonett
                          and Daniel G. A. Smith
                              RHF Reference
                        6 Threads,  57220 MiB Core
         ---------------------------------------------------------

  ==> Geometry <==

    Molecular point group: c1
    Full point group: D2h

    Geometry (in Bohr), charge = 1, multiplicity = 1:

       Center              X                  Y                   Z               Mass       
    ------------   -----------------  -----------------  -----------------  -----------------
         K            0.000000000000     0.000000000000     0.000000000000    38.963706486400
         O            4.771926963375     0.000000000000     0.000000000000    15.994914619570
         H            5.892857698939     1.428466654947     0.000000000000     1.007825032230
         H            5.892857698939    -1.428466654947     0.000000000000     1.007825032230
         O           -4.771926963375     0.000000000000     0.000000000000    15.994914619570
         H           -5.892857698939    -1.428466654947     0.000000000000     1.007825032230
         H           -5.892857698939     1.428466654947     0.000000000000     1.007825032230

  Running in c1 symmetry.

  Rotational constants: A =      7.31828  B =      0.06932  C =      0.06867 [cm^-1]
  Rotational constants: A = 219396.44560  B =   2078.14248  C =   2058.64284 [MHz]
  Nuclear repulsion =  104.577843313880535

  Charge       = 1
  Multiplicity = 1
  Electrons    = 38
  Nalpha       = 19
  Nbeta        = 19

  ==> Algorithm <==

  SCF Algorithm Type is DF.
  DIIS enabled.
  MOM disabled.
  Fractional occupation disabled.
  Guess Type is SAD.
  Energy threshold   = 1.00e-08
  Density threshold  = 1.00e-08
  Integral threshold = 1.00e-12

  ==> Primary Basis <==

  Basis Set: AUG-CC-PVTZ
    Blend: AUG-CC-PVTZ
    Number of shells: 83
    Number of basis functions: 243
    Number of Cartesian functions: 279
    Spherical Harmonics?: true
    Max angular momentum: 3

   => Loading Basis Set <=

    Name: (AUG-CC-PVTZ AUX)
    Role: JKFIT
    Keyword: DF_BASIS_SCF
    atoms 1        entry K          line  1152 file /home/kchung25/anaconda3/envs/p415env/share/psi4/basis/def2-universal-jkfit.gbs 
    atoms 2, 5     entry O          line   286 file /home/kchung25/anaconda3/envs/p415env/share/psi4/basis/aug-cc-pvtz-jkfit.gbs 
    atoms 3-4, 6-7 entry H          line    70 file /home/kchung25/anaconda3/envs/p415env/share/psi4/basis/aug-cc-pvtz-jkfit.gbs 

  ==> Integral Setup <==

  DFHelper Memory: AOs need 0.235 GiB; user supplied 41.910 GiB. 
  Using in-core AOs.

  ==> MemDFJK: Density-Fitted J/K Matrices <==

    J tasked:                   Yes
    K tasked:                   Yes
    wK tasked:                   No
    OpenMP threads:               6
    Memory [MiB]:             42915
    Algorithm:                 Core
    Schwarz Cutoff:           1E-12
    Mask sparsity (%):      10.0019
    Fitting Condition:        1E-10

   => Auxiliary Basis Set <=

  Basis Set: (AUG-CC-PVTZ AUX)
    Blend: AUG-CC-PVTZ-JKFIT + DEF2-UNIVERSAL-JKFIT
    Number of shells: 160
    Number of basis functions: 552
    Number of Cartesian functions: 685
    Spherical Harmonics?: true
    Max angular momentum: 4

  Minimum eigenvalue in the overlap matrix is 5.3807369693E-05.
  Reciprocal condition number of the overlap matrix is 5.8063425601E-06.
    Using symmetric orthogonalization.

  ==> Pre-Iterations <==

  SCF Guess: Superposition of Atomic Densities via on-the-fly atomic UHF (no occupation information).

   -------------------------
    Irrep   Nso     Nmo    
   -------------------------
     A        243     243 
   -------------------------
    Total     243     243
   -------------------------

  ==> Iterations <==

                           Total Energy        Delta E     RMS |[F,P]|

   @DF-RHF iter SAD:  -750.09744527289877   -7.50097e+02   0.00000e+00 
   @DF-RHF iter   1:  -751.01071430754996   -9.13269e-01   2.82192e-03 ADIIS/DIIS
   @DF-RHF iter   2:  -751.12381753368606   -1.13103e-01   1.84940e-03 ADIIS/DIIS
   @DF-RHF iter   3:  -751.18536188280370   -6.15443e-02   1.27799e-04 ADIIS/DIIS
   @DF-RHF iter   4:  -751.18609909719578   -7.37214e-04   2.99749e-05 DIIS
   @DF-RHF iter   5:  -751.18614381301074   -4.47158e-05   6.41760e-06 DIIS
   @DF-RHF iter   6:  -751.18614693976508   -3.12675e-06   1.24719e-06 DIIS
   @DF-RHF iter   7:  -751.18614706862820   -1.28863e-07   2.21488e-07 DIIS
   @DF-RHF iter   8:  -751.18614707216557   -3.53737e-09   3.53399e-08 DIIS
   @DF-RHF iter   9:  -751.18614707222935   -6.37783e-11   6.68712e-09 DIIS
  Energy and wave function converged.


  ==> Post-Iterations <==

    Orbital Energies [Eh]
    ---------------------

    Doubly Occupied:                                                      

       1A   -133.658371     2A    -20.741145     3A    -20.741144  
       4A    -14.616346     5A    -11.646316     6A    -11.646256  
       7A    -11.645991     8A     -1.879255     9A     -1.531370  
      10A     -1.530452    11A     -1.089626    12A     -1.088748  
      13A     -1.088438    14A     -0.891225    15A     -0.890823  
      16A     -0.782926    17A     -0.766533    18A     -0.690851  
      19A     -0.689908  

    Virtual:                                                              

      20A     -0.107611    21A     -0.079289    22A     -0.078371  
      23A     -0.072935    24A     -0.058964    25A     -0.052935  
      26A     -0.048902    27A     -0.048833    28A     -0.048118  
      29A     -0.046835    30A     -0.040493    31A     -0.038878  
      32A     -0.038623    33A     -0.026508    34A     -0.025043  
      35A     -0.024557    36A     -0.024365    37A     -0.021033  
      38A     -0.018913    39A     -0.015121    40A     -0.007648  
      41A     -0.004810    42A     -0.002650    43A     -0.000487  
      44A      0.012298    45A      0.016889    46A      0.021595  
      47A      0.022869    48A      0.023350    49A      0.029249  
      50A      0.029281    51A      0.048458    52A      0.048708  
      53A      0.055042    54A      0.072750    55A      0.074377  
      56A      0.075282    57A      0.079458    58A      0.108109  
      59A      0.112303    60A      0.112754    61A      0.122944  
      62A      0.130132    63A      0.134539    64A      0.143163  
      65A      0.145869    66A      0.151317    67A      0.164736  
      68A      0.171722    69A      0.195338    70A      0.197478  
      71A      0.202911    72A      0.231303    73A      0.243539  
      74A      0.256269    75A      0.258830    76A      0.267065  
      77A      0.268522    78A      0.270090    79A      0.282583  
      80A      0.285044    81A      0.285533    82A      0.285626  
      83A      0.290236    84A      0.290626    85A      0.297286  
      86A      0.313583    87A      0.314096    88A      0.320203  
      89A      0.344939    90A      0.348572    91A      0.362830  
      92A      0.374897    93A      0.381341    94A      0.426417  
      95A      0.432883    96A      0.545510    97A      0.547970  
      98A      0.568322    99A      0.578459   100A      0.631092  
     101A      0.632352   102A      0.634560   103A      0.660648  
     104A      0.661861   105A      0.680880   106A      0.711702  
     107A      0.727644   108A      0.746735   109A      0.766746  
     110A      0.802168   111A      0.806249   112A      0.831372  
     113A      0.833436   114A      0.840518   115A      0.874401  
     116A      0.886382   117A      0.909558   118A      0.918120  
     119A      0.929955   120A      0.934729   121A      0.939864  
     122A      0.947174   123A      0.955421   124A      0.988630  
     125A      1.001310   126A      1.002643   127A      1.034168  
     128A      1.035377   129A      1.038598   130A      1.038738  
     131A      1.065297   132A      1.078426   133A      1.117088  
     134A      1.181951   135A      1.207953   136A      1.228201  
     137A      1.366171   138A      1.409203   139A      1.429893  
     140A      1.463294   141A      1.466043   142A      1.508053  
     143A      1.594794   144A      1.692974   145A      1.694665  
     146A      1.700375   147A      1.773423   148A      1.830932  
     149A      1.854664   150A      1.960132   151A      1.976387  
     152A      2.111362   153A      2.131030   154A      2.144873  
     155A      2.145045   156A      2.179851   157A      2.195225  
     158A      2.222283   159A      2.233117   160A      2.299283  
     161A      2.314300   162A      2.374929   163A      2.386499  
     164A      2.495339   165A      2.539012   166A      2.553643  
     167A      2.569053   168A      2.570613   169A      2.620128  
     170A      2.631641   171A      2.654749   172A      2.679942  
     173A      2.689004   174A      2.714151   175A      2.733536  
     176A      3.566216   177A      3.588011   178A      3.588780  
     179A      3.645494   180A      3.856707   181A      3.867139  
     182A      3.934585   183A      4.022081   184A      4.044553  
     185A      4.045328   186A      4.098596   187A      4.102636  
     188A      4.118364   189A      4.125590   190A      4.228558  
     191A      4.273497   192A      4.275523   193A      4.279660  
     194A      4.279976   195A      4.282275   196A      4.361302  
     197A      4.372409   198A      4.613236   199A      4.656217  
     200A      4.688824   201A      4.704859   202A      4.977726  
     203A      4.980510   204A      4.991522   205A      4.997003  
     206A      5.074119   207A      5.082477   208A      5.173359  
     209A      5.174297   210A      5.355257   211A      5.360637  
     212A      5.521364   213A      5.556413   214A      6.054158  
     215A      6.105291   216A      6.383774   217A      6.423701  
     218A      6.531459   219A      6.537659   220A      6.746283  
     221A      6.761233   222A      6.968260   223A      6.979466  
     224A      7.126992   225A      7.130876   226A      7.137874  
     227A      7.139082   228A      7.144814   229A      7.174160  
     230A      7.189884   231A      7.202154   232A      7.226983  
     233A      7.266015   234A      7.374402   235A      7.428397  
     236A      7.732657   237A      7.735724   238A      7.751577  
     239A      7.766258   240A      8.650094   241A      8.652148  
     242A     15.622302   243A     15.726262  

    Final Occupation by Irrep:
              A 
    DOCC [    19 ]
    NA   [    19 ]
    NB   [    19 ]

  @DF-RHF Final Energy:  -751.18614707222935

   => Energetics <=

    Nuclear Repulsion Energy =            104.5778433138805354
    One-Electron Energy =               -1236.2965334790187626
    Two-Electron Energy =                 380.5325430929089521
    Total Energy =                       -751.1861470722292324

Computation Completed


Properties will be evaluated at   0.000000,   0.000000,   0.000000 [a0]

Properties computed using the SCF density matrix


 Multipole Moments:

 ------------------------------------------------------------------------------------
     Multipole            Electronic (a.u.)      Nuclear  (a.u.)        Total (a.u.)
 ------------------------------------------------------------------------------------

 L = 1.  Multiply by 2.5417464519 to convert [e a0] to [Debye]
 Dipole X            :         -0.0000000           -0.0000000           -0.0000000
 Dipole Y            :         -0.0000000            0.0000000           -0.0000000
 Dipole Z            :         -0.0000000            0.0000000           -0.0000000
 Magnitude           :                                                    0.0000000

 ------------------------------------------------------------------------------------

*** tstop() called on moses-razer at Wed Jan 24 04:49:33 2024
Module time:
	user time   =      16.32 seconds =       0.27 minutes
	system time =       2.70 seconds =       0.05 minutes
	total time  =          7 seconds =       0.12 minutes
Total time:
	user time   =     145.94 seconds =       2.43 minutes
	system time =      20.41 seconds =       0.34 minutes
	total time  =         72 seconds =       1.20 minutes

*** tstart() called on moses-razer
*** at Wed Jan 24 04:49:33 2024


  //>>>>>>>>>>>>>>>>>>>>>>>>>>>>>>>>>>>//
  //               DFMP2               //
  //<<<<<<<<<<<<<<<<<<<<<<<<<<<<<<<<<<<//

   => Loading Basis Set <=

    Name: (AUG-CC-PVTZ AUX)
    Role: RIFIT
    Keyword: DF_BASIS_MP2
    atoms 1        entry K          line  1282 file /home/kchung25/anaconda3/envs/p415env/share/psi4/basis/def2-qzvpp-ri.gbs 
    atoms 2, 5     entry O          line   264 file /home/kchung25/anaconda3/envs/p415env/share/psi4/basis/aug-cc-pvtz-ri.gbs 
    atoms 3-4, 6-7 entry H          line    30 file /home/kchung25/anaconda3/envs/p415env/share/psi4/basis/aug-cc-pvtz-ri.gbs 

	 --------------------------------------------------------
	                          DF-MP2                         
	      2nd-Order Density-Fitted Moller-Plesset Theory     
	              RMP2 Wavefunction,   6 Threads             
	                                                         
	        Rob Parrish, Justin Turney, Andy Simmonett,      
	           Ed Hohenstein, and C. David Sherrill          
	 --------------------------------------------------------

   => Auxiliary Basis Set <=

  Basis Set: (AUG-CC-PVTZ AUX)
    Blend: AUG-CC-PVTZ-RI + DEF2-QZVPP-RI
    Number of shells: 161
    Number of basis functions: 595
    Number of Cartesian functions: 754
    Spherical Harmonics?: true
    Max angular momentum: 4

	 --------------------------------------------------------
	                 NBF =   243, NAUX =   595
	 --------------------------------------------------------
	   CLASS    FOCC     OCC    AOCC    AVIR     VIR    FVIR
	   PAIRS       0      19      19     224     224       0
	 --------------------------------------------------------

	-----------------------------------------------------------
	 ==================> DF-MP2 Energies <==================== 
	-----------------------------------------------------------
	 Reference Energy          =    -751.1861470722293461 [Eh]
	 Singles Energy            =      -0.0000000000000000 [Eh]
	 Same-Spin Energy          =      -0.1702636371609361 [Eh]
	 Opposite-Spin Energy      =      -0.5065414582274906 [Eh]
	 Correlation Energy        =      -0.6768050953884268 [Eh]
	 Total Energy              =    -751.8629521676177774 [Eh]
	-----------------------------------------------------------
	 ================> DF-SCS-MP2 Energies <================== 
	-----------------------------------------------------------
	 SCS Same-Spin Scale       =       0.3333333333333333 [-]
	 SCS Opposite-Spin Scale   =       1.2000000000000000 [-]
	 SCS Same-Spin Energy      =      -0.0567545457203120 [Eh]
	 SCS Opposite-Spin Energy  =      -0.6078497498729888 [Eh]
	 SCS Correlation Energy    =      -0.6646042955933008 [Eh]
	 SCS Total Energy          =    -751.8507513678226815 [Eh]
	-----------------------------------------------------------


*** tstop() called on moses-razer at Wed Jan 24 04:49:38 2024
Module time:
	user time   =       7.85 seconds =       0.13 minutes
	system time =       0.90 seconds =       0.01 minutes
	total time  =          5 seconds =       0.08 minutes
Total time:
	user time   =     153.80 seconds =       2.56 minutes
	system time =      21.31 seconds =       0.36 minutes
	total time  =         77 seconds =       1.28 minutes

    Psi4 stopped on: Wednesday, 24 January 2024 04:49AM
    Psi4 wall time for execution: 0:00:12.07


  //>>>>>>>>>>>>>>>>>>>>>>>>>>>>>>>>>>>//
  //          ManyBody Results         //
  //<<<<<<<<<<<<<<<<<<<<<<<<<<<<<<<<<<<//


   ==> N-Body: Counterpoise Corrected (CP) energies <==

        n-Body     Total Energy            Interaction Energy                          N-body Contribution to Interaction Energy
                   [Eh]                    [Eh]                  [kcal/mol]            [Eh]                  [kcal/mol]
             1  N/A                         0.000000000000        0.000000000000        0.000000000000        0.000000000000
             2  N/A                        -0.052687995214      -33.062216151416       -0.052687995214      -33.062216151416
  FULL/RTN   3  N/A                        -0.049722421908      -31.201290806417        0.002965573306        1.860925345000


    Psi4 stopped on: Wednesday, 24 January 2024 04:49AM
    Psi4 wall time for execution: 0:01:18.56

*** Psi4 exiting successfully. Buy a developer a beer!
