
    -----------------------------------------------------------------------
          Psi4: An Open-Source Ab Initio Electronic Structure Package
                               Psi4 1.9 release

                         Git: Rev {} zzzzzzz 


    D. G. A. Smith, L. A. Burns, A. C. Simmonett, R. M. Parrish,
    M. C. Schieber, R. Galvelis, P. Kraus, H. Kruse, R. Di Remigio,
    A. Alenaizan, A. M. James, S. Lehtola, J. P. Misiewicz, M. Scheurer,
    R. A. Shaw, J. B. Schriber, Y. Xie, Z. L. Glick, D. A. Sirianni,
    J. S. O'Brien, J. M. Waldrop, A. Kumar, E. G. Hohenstein,
    B. P. Pritchard, B. R. Brooks, H. F. Schaefer III, A. Yu. Sokolov,
    K. Patkowski, A. E. DePrince III, U. Bozkaya, R. A. King,
    F. A. Evangelista, J. M. Turney, T. D. Crawford, C. D. Sherrill,
    J. Chem. Phys. 152(18) 184108 (2020). https://doi.org/10.1063/5.0006002

                            Additional Code Authors
    E. T. Seidl, C. L. Janssen, E. F. Valeev, M. L. Leininger,
    J. F. Gonthier, R. M. Richard, H. R. McAlexander, M. Saitow, X. Wang,
    P. Verma, M. H. Lechner, A. Jiang, S. Behnle, A. G. Heide,
    M. F. Herbst, and D. L. Poole

             Previous Authors, Complete List of Code Contributors,
                       and Citations for Specific Modules
    https://github.com/psi4/psi4/blob/master/codemeta.json
    https://github.com/psi4/psi4/graphs/contributors
    http://psicode.org/psi4manual/master/introduction.html#citing-psifour

    -----------------------------------------------------------------------


    Psi4 started on: Wednesday, 24 January 2024 01:43PM

    Process ID: 1212131
    Host:       moses-razer
    PSIDATADIR: /home/kchung25/anaconda3/envs/psi4_19/share/psi4
    Memory:     500.0 MiB
    Threads:    6
    
  ==> Input File <==

--------------------------------------------------------------------------
MEMORY 60 GB

molecule dimer {
1 1
K          0.000000     0.000000     0.000000
O          3.535273     0.000000     0.000000
H          4.128444     0.755912     0.000000
H          4.128444    -0.755912     0.000000
O         -3.535273     0.000000     0.000000
H         -4.128444    -0.755912     0.000000
H         -4.128444     0.755912     0.000000

units ang
no_reorient
no_com
symmetry c1
}

set {
basis        aug-cc-pVTZ
scf_type     df
}

energy("mp2")
--------------------------------------------------------------------------

  Memory set to  55.879 GiB by Python driver.

Scratch directory: /scratch/
   => Libint2 <=

    Primary   basis highest AM E, G, H:  5, 4, 3
    Auxiliary basis highest AM E, G, H:  6, 5, 4
    Onebody   basis highest AM E, G, H:  6, 5, 4
    Solid Harmonics ordering:            gaussian

*** tstart() called on moses-razer
*** at Wed Jan 24 13:43:40 2024

   => Loading Basis Set <=

    Name: AUG-CC-PVTZ
    Role: ORBITAL
    Keyword: BASIS
    atoms 1        entry K          line  1152 file /home/kchung25/anaconda3/envs/p415env/share/psi4/basis/aug-cc-pvtz.gbs 
    atoms 2, 5     entry O          line   331 file /home/kchung25/anaconda3/envs/p415env/share/psi4/basis/aug-cc-pvtz.gbs 
    atoms 3-4, 6-7 entry H          line    40 file /home/kchung25/anaconda3/envs/p415env/share/psi4/basis/aug-cc-pvtz.gbs 


         ---------------------------------------------------------
                                   SCF
               by Justin Turney, Rob Parrish, Andy Simmonett
                          and Daniel G. A. Smith
                              RHF Reference
                        6 Threads,  57220 MiB Core
         ---------------------------------------------------------

  ==> Geometry <==

    Molecular point group: c1
    Full point group: D2h

    Geometry (in Angstrom), charge = 1, multiplicity = 1:

       Center              X                  Y                   Z               Mass       
    ------------   -----------------  -----------------  -----------------  -----------------
         K            0.000000000000     0.000000000000     0.000000000000    38.963706486400
         O            3.535273000000     0.000000000000     0.000000000000    15.994914619570
         H            4.128444000000     0.755912000000     0.000000000000     1.007825032230
         H            4.128444000000    -0.755912000000     0.000000000000     1.007825032230
         O           -3.535273000000     0.000000000000     0.000000000000    15.994914619570
         H           -4.128444000000    -0.755912000000     0.000000000000     1.007825032230
         H           -4.128444000000     0.755912000000     0.000000000000     1.007825032230

  Running in c1 symmetry.

  Rotational constants: A =      7.31828  B =      0.03598  C =      0.03580 [cm^-1]
  Rotational constants: A = 219396.44560  B =   1078.66303  C =   1073.38572 [MHz]
  Nuclear repulsion =   80.653061590858044

  Charge       = 1
  Multiplicity = 1
  Electrons    = 38
  Nalpha       = 19
  Nbeta        = 19

  ==> Algorithm <==

  SCF Algorithm Type is DF.
  DIIS enabled.
  MOM disabled.
  Fractional occupation disabled.
  Guess Type is SAD.
  Energy threshold   = 1.00e-08
  Density threshold  = 1.00e-08
  Integral threshold = 1.00e-12

  ==> Primary Basis <==

  Basis Set: AUG-CC-PVTZ
    Blend: AUG-CC-PVTZ
    Number of shells: 83
    Number of basis functions: 243
    Number of Cartesian functions: 279
    Spherical Harmonics?: true
    Max angular momentum: 3

   => Loading Basis Set <=

    Name: (AUG-CC-PVTZ AUX)
    Role: JKFIT
    Keyword: DF_BASIS_SCF
    atoms 1        entry K          line  1152 file /home/kchung25/anaconda3/envs/p415env/share/psi4/basis/def2-universal-jkfit.gbs 
    atoms 2, 5     entry O          line   286 file /home/kchung25/anaconda3/envs/p415env/share/psi4/basis/aug-cc-pvtz-jkfit.gbs 
    atoms 3-4, 6-7 entry H          line    70 file /home/kchung25/anaconda3/envs/p415env/share/psi4/basis/aug-cc-pvtz-jkfit.gbs 

  ==> Integral Setup <==

  DFHelper Memory: AOs need 0.215 GiB; user supplied 41.910 GiB. 
  Using in-core AOs.

  ==> MemDFJK: Density-Fitted J/K Matrices <==

    J tasked:                   Yes
    K tasked:                   Yes
    wK tasked:                   No
    OpenMP threads:               6
    Memory [MiB]:             42915
    Algorithm:                 Core
    Schwarz Cutoff:           1E-12
    Mask sparsity (%):      18.2052
    Fitting Condition:        1E-10

   => Auxiliary Basis Set <=

  Basis Set: (AUG-CC-PVTZ AUX)
    Blend: AUG-CC-PVTZ-JKFIT + DEF2-UNIVERSAL-JKFIT
    Number of shells: 160
    Number of basis functions: 552
    Number of Cartesian functions: 685
    Spherical Harmonics?: true
    Max angular momentum: 4

  Minimum eigenvalue in the overlap matrix is 1.4994655138E-04.
  Reciprocal condition number of the overlap matrix is 1.7444543941E-05.
    Using symmetric orthogonalization.

  ==> Pre-Iterations <==

  SCF Guess: Superposition of Atomic Densities via on-the-fly atomic UHF (no occupation information).

   -------------------------
    Irrep   Nso     Nmo    
   -------------------------
     A        243     243 
   -------------------------
    Total     243     243
   -------------------------

  ==> Iterations <==

                           Total Energy        Delta E     RMS |[F,P]|

   @DF-RHF iter SAD:  -750.02899985711042   -7.50029e+02   0.00000e+00 
   @DF-RHF iter   1:  -751.00589864817493   -9.76899e-01   2.74060e-03 DIIS/ADIIS
   @DF-RHF iter   2:  -751.11193599112312   -1.06037e-01   1.84046e-03 DIIS/ADIIS
   @DF-RHF iter   3:  -751.17325601338803   -6.13200e-02   1.27061e-04 DIIS/ADIIS
   @DF-RHF iter   4:  -751.17401375312272   -7.57740e-04   2.95062e-05 DIIS
   @DF-RHF iter   5:  -751.17405837771287   -4.46246e-05   6.51057e-06 DIIS
   @DF-RHF iter   6:  -751.17406173623226   -3.35852e-06   1.37382e-06 DIIS
   @DF-RHF iter   7:  -751.17406190043744   -1.64205e-07   2.40356e-07 DIIS
   @DF-RHF iter   8:  -751.17406190479153   -4.35409e-09   3.72942e-08 DIIS
   @DF-RHF iter   9:  -751.17406190486849   -7.69660e-11   8.23670e-09 DIIS
  Energy and wave function converged.


  ==> Post-Iterations <==

    Orbital Energies [Eh]
    ---------------------

    Doubly Occupied:                                                      

       1A   -133.711803     2A    -20.703670     3A    -20.703670  
       4A    -14.667412     5A    -11.697508     6A    -11.697497  
       7A    -11.697387     8A     -1.923007     9A     -1.488162  
      10A     -1.488157    11A     -1.130840    12A     -1.130554  
      13A     -1.127695    14A     -0.850041    15A     -0.850038  
      16A     -0.729137    17A     -0.728743    18A     -0.647861  
      19A     -0.647851  

    Virtual:                                                              

      20A     -0.114797    21A     -0.079858    22A     -0.076610  
      23A     -0.072782    24A     -0.058645    25A     -0.050773  
      26A     -0.048808    27A     -0.048777    28A     -0.047453  
      29A     -0.046699    30A     -0.041753    31A     -0.040451  
      32A     -0.037989    33A     -0.025299    34A     -0.025185  
      35A     -0.024624    36A     -0.021456    37A     -0.020979  
      38A     -0.020013    39A     -0.018583    40A     -0.009493  
      41A     -0.008467    42A     -0.003068    43A     -0.000423  
      44A      0.005208    45A      0.009805    46A      0.026720  
      47A      0.027678    48A      0.028940    49A      0.028962  
      50A      0.039251    51A      0.039904    52A      0.039913  
      53A      0.043647    54A      0.045155    55A      0.068790  
      56A      0.072244    57A      0.073069    58A      0.105190  
      59A      0.110547    60A      0.111157    61A      0.111923  
      62A      0.118283    63A      0.124010    64A      0.124468  
      65A      0.129525    66A      0.140329    67A      0.155830  
      68A      0.164932    69A      0.179242    70A      0.196448  
      71A      0.197209    72A      0.222965    73A      0.226756  
      74A      0.240603    75A      0.253923    76A      0.255616  
      77A      0.260065    78A      0.260736    79A      0.262482  
      80A      0.262499    81A      0.266257    82A      0.283303  
      83A      0.290368    84A      0.290456    85A      0.299479  
      86A      0.302485    87A      0.309063    88A      0.317089  
      89A      0.337897    90A      0.339469    91A      0.347705  
      92A      0.367636    93A      0.368347    94A      0.371401  
      95A      0.375268    96A      0.396138    97A      0.496340  
      98A      0.574289    99A      0.590126   100A      0.590355  
     101A      0.603127   102A      0.618015   103A      0.618953  
     104A      0.652847   105A      0.667077   106A      0.718439  
     107A      0.727435   108A      0.735300   109A      0.749158  
     110A      0.759049   111A      0.773167   112A      0.808324  
     113A      0.810179   114A      0.810630   115A      0.833904  
     116A      0.839836   117A      0.850393   118A      0.870674  
     119A      0.896461   120A      0.900617   121A      0.919288  
     122A      0.926520   123A      0.947038   124A      0.947303  
     125A      0.950317   126A      0.997399   127A      0.997750  
     128A      1.002531   129A      1.022674   130A      1.026753  
     131A      1.056855   132A      1.058226   133A      1.063784  
     134A      1.099129   135A      1.119406   136A      1.145778  
     137A      1.221168   138A      1.386608   139A      1.406732  
     140A      1.447556   141A      1.461051   142A      1.490116  
     143A      1.490260   144A      1.711779   145A      1.722279  
     146A      1.724576   147A      1.764982   148A      1.861106  
     149A      1.862317   150A      1.992243   151A      1.998575  
     152A      2.131432   153A      2.154047   154A      2.175186  
     155A      2.176915   156A      2.208653   157A      2.235592  
     158A      2.280103   159A      2.287304   160A      2.312269  
     161A      2.313523   162A      2.342212   163A      2.366457  
     164A      2.378647   165A      2.453482   166A      2.548962  
     167A      2.576592   168A      2.583679   169A      2.592227  
     170A      2.667846   171A      2.673688   172A      2.691562  
     173A      2.744436   174A      2.752651   175A      2.761326  
     176A      3.565600   177A      3.605935   178A      3.614952  
     179A      3.636854   180A      3.891751   181A      3.892694  
     182A      3.965874   183A      3.978935   184A      4.058445  
     185A      4.072279   186A      4.123674   187A      4.126692  
     188A      4.152238   189A      4.155102   190A      4.251016  
     191A      4.263889   192A      4.266952   193A      4.283622  
     194A      4.285459   195A      4.310211   196A      4.394707  
     197A      4.402396   198A      4.637362   199A      4.656677  
     200A      4.721528   201A      4.721776   202A      5.016488  
     203A      5.016842   204A      5.027058   205A      5.027162  
     206A      5.118805   207A      5.122405   208A      5.195447  
     209A      5.201887   210A      5.392528   211A      5.394514  
     212A      5.534361   213A      5.560065   214A      6.073335  
     215A      6.105334   216A      6.390245   217A      6.439467  
     218A      6.575975   219A      6.577096   220A      6.772368  
     221A      6.778890   222A      7.005978   223A      7.020308  
     224A      7.139076   225A      7.159145   226A      7.167089  
     227A      7.170618   228A      7.180584   229A      7.182286  
     230A      7.226005   231A      7.229891   232A      7.230255  
     233A      7.264238   234A      7.405124   235A      7.416794  
     236A      7.769343   237A      7.775353   238A      7.794177  
     239A      7.797682   240A      8.683805   241A      8.691378  
     242A     15.620206   243A     15.658664  

    Final Occupation by Irrep:
              A 
    DOCC [    19 ]
    NA   [    19 ]
    NB   [    19 ]

  @DF-RHF Final Energy:  -751.17406190486849

   => Energetics <=

    Nuclear Repulsion Energy =             80.6530615908580444
    One-Electron Energy =               -1188.4121710935351075
    Two-Electron Energy =                 356.5850475978086251
    Total Energy =                       -751.1740619048684948

Computation Completed


Properties will be evaluated at   0.000000,   0.000000,   0.000000 [a0]

Properties computed using the SCF density matrix


 Multipole Moments:

 ------------------------------------------------------------------------------------
     Multipole            Electronic (a.u.)      Nuclear  (a.u.)        Total (a.u.)
 ------------------------------------------------------------------------------------

 L = 1.  Multiply by 2.5417464519 to convert [e a0] to [Debye]
 Dipole X            :          0.0000000            0.0000000            0.0000000
 Dipole Y            :          0.0000000            0.0000000            0.0000000
 Dipole Z            :          0.0000000            0.0000000            0.0000000
 Magnitude           :                                                    0.0000000

 ------------------------------------------------------------------------------------

*** tstop() called on moses-razer at Wed Jan 24 13:43:47 2024
Module time:
	user time   =      16.87 seconds =       0.28 minutes
	system time =       2.89 seconds =       0.05 minutes
	total time  =          7 seconds =       0.12 minutes
Total time:
	user time   =      16.87 seconds =       0.28 minutes
	system time =       2.89 seconds =       0.05 minutes
	total time  =          7 seconds =       0.12 minutes

*** tstart() called on moses-razer
*** at Wed Jan 24 13:43:47 2024


  //>>>>>>>>>>>>>>>>>>>>>>>>>>>>>>>>>>>//
  //               DFMP2               //
  //<<<<<<<<<<<<<<<<<<<<<<<<<<<<<<<<<<<//

   => Loading Basis Set <=

    Name: (AUG-CC-PVTZ AUX)
    Role: RIFIT
    Keyword: DF_BASIS_MP2
    atoms 1        entry K          line  1282 file /home/kchung25/anaconda3/envs/p415env/share/psi4/basis/def2-qzvpp-ri.gbs 
    atoms 2, 5     entry O          line   264 file /home/kchung25/anaconda3/envs/p415env/share/psi4/basis/aug-cc-pvtz-ri.gbs 
    atoms 3-4, 6-7 entry H          line    30 file /home/kchung25/anaconda3/envs/p415env/share/psi4/basis/aug-cc-pvtz-ri.gbs 

	 --------------------------------------------------------
	                          DF-MP2                         
	      2nd-Order Density-Fitted Moller-Plesset Theory     
	              RMP2 Wavefunction,   6 Threads             
	                                                         
	        Rob Parrish, Justin Turney, Andy Simmonett,      
	           Ed Hohenstein, and C. David Sherrill          
	 --------------------------------------------------------

   => Auxiliary Basis Set <=

  Basis Set: (AUG-CC-PVTZ AUX)
    Blend: AUG-CC-PVTZ-RI + DEF2-QZVPP-RI
    Number of shells: 161
    Number of basis functions: 595
    Number of Cartesian functions: 754
    Spherical Harmonics?: true
    Max angular momentum: 4

	 --------------------------------------------------------
	                 NBF =   243, NAUX =   595
	 --------------------------------------------------------
	   CLASS    FOCC     OCC    AOCC    AVIR     VIR    FVIR
	   PAIRS       0      19      19     224     224       0
	 --------------------------------------------------------

	-----------------------------------------------------------
	 ==================> DF-MP2 Energies <==================== 
	-----------------------------------------------------------
	 Reference Energy          =    -751.1740619048684948 [Eh]
	 Singles Energy            =      -0.0000000000000000 [Eh]
	 Same-Spin Energy          =      -0.1637433959569604 [Eh]
	 Opposite-Spin Energy      =      -0.4921918749306881 [Eh]
	 Correlation Energy        =      -0.6559352708876485 [Eh]
	 Total Energy              =    -751.8299971757561480 [Eh]
	-----------------------------------------------------------
	 ================> DF-SCS-MP2 Energies <================== 
	-----------------------------------------------------------
	 SCS Same-Spin Scale       =       0.3333333333333333 [-]
	 SCS Opposite-Spin Scale   =       1.2000000000000000 [-]
	 SCS Same-Spin Energy      =      -0.0545811319856535 [Eh]
	 SCS Opposite-Spin Energy  =      -0.5906302499168257 [Eh]
	 SCS Correlation Energy    =      -0.6452113819024792 [Eh]
	 SCS Total Energy          =    -751.8192732867710220 [Eh]
	-----------------------------------------------------------


*** tstop() called on moses-razer at Wed Jan 24 13:43:52 2024
Module time:
	user time   =       7.92 seconds =       0.13 minutes
	system time =       0.89 seconds =       0.01 minutes
	total time  =          5 seconds =       0.08 minutes
Total time:
	user time   =      24.79 seconds =       0.41 minutes
	system time =       3.78 seconds =       0.06 minutes
	total time  =         12 seconds =       0.20 minutes

    Psi4 stopped on: Wednesday, 24 January 2024 01:43PM
    Psi4 wall time for execution: 0:00:12.45

*** Psi4 exiting successfully. Buy a developer a beer!
