
    -----------------------------------------------------------------------
          Psi4: An Open-Source Ab Initio Electronic Structure Package
                               Psi4 1.9 release

                         Git: Rev {} zzzzzzz 


    D. G. A. Smith, L. A. Burns, A. C. Simmonett, R. M. Parrish,
    M. C. Schieber, R. Galvelis, P. Kraus, H. Kruse, R. Di Remigio,
    A. Alenaizan, A. M. James, S. Lehtola, J. P. Misiewicz, M. Scheurer,
    R. A. Shaw, J. B. Schriber, Y. Xie, Z. L. Glick, D. A. Sirianni,
    J. S. O'Brien, J. M. Waldrop, A. Kumar, E. G. Hohenstein,
    B. P. Pritchard, B. R. Brooks, H. F. Schaefer III, A. Yu. Sokolov,
    K. Patkowski, A. E. DePrince III, U. Bozkaya, R. A. King,
    F. A. Evangelista, J. M. Turney, T. D. Crawford, C. D. Sherrill,
    J. Chem. Phys. 152(18) 184108 (2020). https://doi.org/10.1063/5.0006002

                            Additional Code Authors
    E. T. Seidl, C. L. Janssen, E. F. Valeev, M. L. Leininger,
    J. F. Gonthier, R. M. Richard, H. R. McAlexander, M. Saitow, X. Wang,
    P. Verma, M. H. Lechner, A. Jiang, S. Behnle, A. G. Heide,
    M. F. Herbst, and D. L. Poole

             Previous Authors, Complete List of Code Contributors,
                       and Citations for Specific Modules
    https://github.com/psi4/psi4/blob/master/codemeta.json
    https://github.com/psi4/psi4/graphs/contributors
    http://psicode.org/psi4manual/master/introduction.html#citing-psifour

    -----------------------------------------------------------------------


    Psi4 started on: Wednesday, 24 January 2024 04:53AM

    Process ID: 1192779
    Host:       moses-razer
    PSIDATADIR: /home/kchung25/anaconda3/envs/psi4_19/share/psi4
    Memory:     500.0 MiB
    Threads:    6
    
  ==> Input File <==

--------------------------------------------------------------------------
MEMORY 60 GB

molecule dimer {
1 1
K      0.000000     0.000000     0.000000
--
0 1
O      3.282754     0.000000     0.000000
H      3.875924     0.755912     0.000000
H      3.875924    -0.755912     0.000000
--
0 1
O     -3.282754     0.000000     0.000000
H     -3.875924    -0.755912     0.000000
H     -3.875924     0.755912     0.000000

units ang
no_reorient
no_com
symmetry c1
}

set {
basis        aug-cc-pVTZ
scf_type     df
}

energy("mp2", bsse_type="cp")
--------------------------------------------------------------------------

  Memory set to  55.879 GiB by Python driver.

Scratch directory: /scratch/

  //>>>>>>>>>>>>>>>>>>>>>>>>>>>>>>>>>>>>>>>>//
  // ManyBody Setup: N-Body Levels [1, 2, 3]//
  //<<<<<<<<<<<<<<<<<<<<<<<<<<<<<<<<<<<<<<<<//

        Number of 1-body computations:     3
        Number of 2-body computations:     3
        Number of 3-body computations:     1

    -----------------------------------------------------------------------
          Psi4: An Open-Source Ab Initio Electronic Structure Package
                               Psi4 1.9 release

                         Git: Rev {} zzzzzzz 


    D. G. A. Smith, L. A. Burns, A. C. Simmonett, R. M. Parrish,
    M. C. Schieber, R. Galvelis, P. Kraus, H. Kruse, R. Di Remigio,
    A. Alenaizan, A. M. James, S. Lehtola, J. P. Misiewicz, M. Scheurer,
    R. A. Shaw, J. B. Schriber, Y. Xie, Z. L. Glick, D. A. Sirianni,
    J. S. O'Brien, J. M. Waldrop, A. Kumar, E. G. Hohenstein,
    B. P. Pritchard, B. R. Brooks, H. F. Schaefer III, A. Yu. Sokolov,
    K. Patkowski, A. E. DePrince III, U. Bozkaya, R. A. King,
    F. A. Evangelista, J. M. Turney, T. D. Crawford, C. D. Sherrill,
    J. Chem. Phys. 152(18) 184108 (2020). https://doi.org/10.1063/5.0006002

                            Additional Code Authors
    E. T. Seidl, C. L. Janssen, E. F. Valeev, M. L. Leininger,
    J. F. Gonthier, R. M. Richard, H. R. McAlexander, M. Saitow, X. Wang,
    P. Verma, M. H. Lechner, A. Jiang, S. Behnle, A. G. Heide,
    M. F. Herbst, and D. L. Poole

             Previous Authors, Complete List of Code Contributors,
                       and Citations for Specific Modules
    https://github.com/psi4/psi4/blob/master/codemeta.json
    https://github.com/psi4/psi4/graphs/contributors
    http://psicode.org/psi4manual/master/introduction.html#citing-psifour

    -----------------------------------------------------------------------


    Psi4 started on: Wednesday, 24 January 2024 04:53AM

    Process ID: 1192779
    Host:       moses-razer
    PSIDATADIR: /home/kchung25/anaconda3/envs/psi4_19/share/psi4
    Memory:     55.9 GiB
    Threads:    6
    
  ==> Input QCSchema <==

--------------------------------------------------------------------------
{'driver': 'energy',
 'extras': {'psiapi': True, 'wfn_qcvars_only': True},
 'id': None,
 'keywords': {'SCF_TYPE': 'DF', 'function_kwargs': {}},
 'model': {'basis': 'aug-cc-pvtz', 'method': 'mp2'},
 'molecule': {'atom_labels': ['', '', '', '', '', '', ''],
              'atomic_numbers': [19, 8, 1, 1, 8, 1, 1],
              'extras': {},
              'fix_com': True,
              'fix_orientation': True,
              'fix_symmetry': 'c1',
              'fragment_charges': [1.0, 0.0, 0.0],
              'fragment_multiplicities': [1, 1, 1],
              'fragments': [[0], [1, 2, 3], [4, 5, 6]],
              'geometry': [0.0, 0.0, 0.0, 6.203505997251187, 0.0, 0.0, 7.324434843089007, 1.428466654947078, 0.0,
                           7.324434843089007, -1.428466654947078, 0.0, -6.203505997251187, 0.0, 0.0, -7.324434843089007,
                           -1.428466654947078, 0.0, -7.324434843089007, 1.428466654947078, 0.0],
              'mass_numbers': [39, 16, 1, 1, 16, 1, 1],
              'masses': [38.9637064864, 15.99491461957, 1.00782503223, 1.00782503223, 15.99491461957, 1.00782503223,
                         1.00782503223],
              'molecular_charge': 1.0,
              'molecular_multiplicity': 1,
              'name': 'dimer',
              'provenance': {'creator': 'QCElemental',
                             'routine': 'qcelemental.molparse.from_string',
                             'version': '0.27.1'},
              'real': [True, False, False, False, False, False, False],
              'schema_name': 'qcschema_molecule',
              'schema_version': 2,
              'symbols': ['K', 'O', 'H', 'H', 'O', 'H', 'H'],
              'validated': True},
 'protocols': {'stdout': True},
 'provenance': {'creator': 'QCElemental', 'routine': 'qcelemental.models.results', 'version': '0.27.1'},
 'schema_name': 'qcschema_input',
 'schema_version': 1}
--------------------------------------------------------------------------

Scratch directory: /scratch/
   => Libint2 <=

    Primary   basis highest AM E, G, H:  5, 4, 3
    Auxiliary basis highest AM E, G, H:  6, 5, 4
    Onebody   basis highest AM E, G, H:  6, 5, 4
    Solid Harmonics ordering:            gaussian

*** tstart() called on moses-razer
*** at Wed Jan 24 04:53:38 2024

   => Loading Basis Set <=

    Name: AUG-CC-PVTZ
    Role: ORBITAL
    Keyword: BASIS
    atoms 1        entry K          line  1152 file /home/kchung25/anaconda3/envs/p415env/share/psi4/basis/aug-cc-pvtz.gbs 
    atoms 2, 5     entry O          line   331 file /home/kchung25/anaconda3/envs/p415env/share/psi4/basis/aug-cc-pvtz.gbs 
    atoms 3-4, 6-7 entry H          line    40 file /home/kchung25/anaconda3/envs/p415env/share/psi4/basis/aug-cc-pvtz.gbs 


         ---------------------------------------------------------
                                   SCF
               by Justin Turney, Rob Parrish, Andy Simmonett
                          and Daniel G. A. Smith
                              RHF Reference
                        6 Threads,  57220 MiB Core
         ---------------------------------------------------------

  ==> Geometry <==

    Molecular point group: c1
    Full point group: D2h

    Geometry (in Bohr), charge = 1, multiplicity = 1:

       Center              X                  Y                   Z               Mass       
    ------------   -----------------  -----------------  -----------------  -----------------
         K            0.000000000000     0.000000000000     0.000000000000    38.963706486400
      Gh(O)           6.203505997251     0.000000000000     0.000000000000    15.994914619570
      Gh(H)           7.324434843089     1.428466654947     0.000000000000     1.007825032230
      Gh(H)           7.324434843089    -1.428466654947     0.000000000000     1.007825032230
      Gh(O)          -6.203505997251     0.000000000000     0.000000000000    15.994914619570
      Gh(H)          -7.324434843089    -1.428466654947     0.000000000000     1.007825032230
      Gh(H)          -7.324434843089     1.428466654947     0.000000000000     1.007825032230

  Running in c1 symmetry.

  Rotational constants: A =      7.31828  B =      0.04159  C =      0.04136 [cm^-1]
  Rotational constants: A = 219396.44560  B =   1246.92908  C =   1239.88227 [MHz]
  Nuclear repulsion =    0.000000000000000

  Charge       = 1
  Multiplicity = 1
  Electrons    = 18
  Nalpha       = 9
  Nbeta        = 9

  ==> Algorithm <==

  SCF Algorithm Type is DF.
  DIIS enabled.
  MOM disabled.
  Fractional occupation disabled.
  Guess Type is SAD.
  Energy threshold   = 1.00e-08
  Density threshold  = 1.00e-08
  Integral threshold = 1.00e-12

  ==> Primary Basis <==

  Basis Set: AUG-CC-PVTZ
    Blend: AUG-CC-PVTZ
    Number of shells: 83
    Number of basis functions: 243
    Number of Cartesian functions: 279
    Spherical Harmonics?: true
    Max angular momentum: 3

   => Loading Basis Set <=

    Name: (AUG-CC-PVTZ AUX)
    Role: JKFIT
    Keyword: DF_BASIS_SCF
    atoms 1        entry K          line  1152 file /home/kchung25/anaconda3/envs/p415env/share/psi4/basis/def2-universal-jkfit.gbs 
    atoms 2, 5     entry O          line   286 file /home/kchung25/anaconda3/envs/p415env/share/psi4/basis/aug-cc-pvtz-jkfit.gbs 
    atoms 3-4, 6-7 entry H          line    70 file /home/kchung25/anaconda3/envs/p415env/share/psi4/basis/aug-cc-pvtz-jkfit.gbs 

  ==> Integral Setup <==

  DFHelper Memory: AOs need 0.219 GiB; user supplied 41.910 GiB. 
  Using in-core AOs.

  ==> MemDFJK: Density-Fitted J/K Matrices <==

    J tasked:                   Yes
    K tasked:                   Yes
    wK tasked:                   No
    OpenMP threads:               6
    Memory [MiB]:             42915
    Algorithm:                 Core
    Schwarz Cutoff:           1E-12
    Mask sparsity (%):      16.6235
    Fitting Condition:        1E-10

   => Auxiliary Basis Set <=

  Basis Set: (AUG-CC-PVTZ AUX)
    Blend: AUG-CC-PVTZ-JKFIT + DEF2-UNIVERSAL-JKFIT
    Number of shells: 160
    Number of basis functions: 552
    Number of Cartesian functions: 685
    Spherical Harmonics?: true
    Max angular momentum: 4

  Minimum eigenvalue in the overlap matrix is 1.2904558526E-04.
  Reciprocal condition number of the overlap matrix is 1.4747968638E-05.
    Using symmetric orthogonalization.

  ==> Pre-Iterations <==

  SCF Guess: Superposition of Atomic Densities via on-the-fly atomic UHF (no occupation information).

   -------------------------
    Irrep   Nso     Nmo    
   -------------------------
     A        243     243 
   -------------------------
    Total     243     243
   -------------------------

  ==> Iterations <==

                           Total Energy        Delta E     RMS |[F,P]|

   @DF-RHF iter SAD:  -599.05178449290202   -5.99052e+02   0.00000e+00 
   @DF-RHF iter   1:  -599.01748536339562    3.42991e-02   2.53981e-05 DIIS
   @DF-RHF iter   2:  -599.01750838179237   -2.30184e-05   3.56084e-06 DIIS
   @DF-RHF iter   3:  -599.01750896047361   -5.78681e-07   1.95243e-07 DIIS
   @DF-RHF iter   4:  -599.01750896225224   -1.77863e-09   1.74358e-08 DIIS
   @DF-RHF iter   5:  -599.01750896226872   -1.64846e-11   2.20439e-09 DIIS
  Energy and wave function converged.


  ==> Post-Iterations <==

    Orbital Energies [Eh]
    ---------------------

    Doubly Occupied:                                                      

       1A   -133.753539     2A    -14.709030     3A    -11.739093  
       4A    -11.739088     5A    -11.739088     6A     -1.964286  
       7A     -1.170934     8A     -1.170855     9A     -1.170852  

    Virtual:                                                              

      10A     -0.146971    11A     -0.095562    12A     -0.095552  
      13A     -0.095552    14A     -0.060546    15A     -0.057859  
      16A     -0.057809    17A     -0.057782    18A     -0.057720  
      19A     -0.057720    20A     -0.045540    21A     -0.045535  
      22A     -0.045535    23A     -0.031279    24A     -0.031243  
      25A     -0.031226    26A     -0.031207    27A     -0.031206  
      28A     -0.019153    29A     -0.017038    30A     -0.016205  
      31A     -0.014840    32A     -0.014283    33A     -0.013759  
      34A      0.009713    35A      0.013436    36A      0.015830  
      37A      0.016019    38A      0.016635    39A      0.016834  
      40A      0.016871    41A      0.016936    42A      0.016938  
      43A      0.018822    44A      0.019695    45A      0.019747  
      46A      0.054227    47A      0.058802    48A      0.074533  
      49A      0.090497    50A      0.090539    51A      0.102393  
      52A      0.103078    53A      0.110366    54A      0.123200  
      55A      0.137408    56A      0.140905    57A      0.164514  
      58A      0.177885    59A      0.193460    60A      0.209434  
      61A      0.216946    62A      0.220926    63A      0.223586  
      64A      0.225511    65A      0.227316    66A      0.229144  
      67A      0.230724    68A      0.232344    69A      0.232901  
      70A      0.238797    71A      0.238857    72A      0.239739  
      73A      0.258785    74A      0.278432    75A      0.282758  
      76A      0.291833    77A      0.292779    78A      0.299666  
      79A      0.300664    80A      0.314385    81A      0.329662  
      82A      0.333000    83A      0.345635    84A      0.366146  
      85A      0.376555    86A      0.400821    87A      0.491687  
      88A      0.532732    89A      0.595449    90A      0.601755  
      91A      0.629382    92A      0.631402    93A      0.665447  
      94A      0.670113    95A      0.687908    96A      0.692467  
      97A      0.717416    98A      0.731678    99A      0.744182  
     100A      0.751301   101A      0.781577   102A      0.788487  
     103A      0.797087   104A      0.809034   105A      0.831316  
     106A      0.848749   107A      0.863367   108A      0.865897  
     109A      0.878884   110A      0.896330   111A      0.909257  
     112A      0.915932   113A      0.937049   114A      0.951481  
     115A      0.968949   116A      1.008438   117A      1.012837  
     118A      1.042107   119A      1.050843   120A      1.064602  
     121A      1.085968   122A      1.096439   123A      1.102071  
     124A      1.133958   125A      1.179834   126A      1.318035  
     127A      1.341831   128A      1.349068   129A      1.400169  
     130A      1.568791   131A      1.569966   132A      1.573877  
     133A      1.592944   134A      1.620719   135A      1.640393  
     136A      1.718559   137A      1.720558   138A      1.734708  
     139A      1.765489   140A      1.934919   141A      1.949514  
     142A      2.207367   143A      2.216981   144A      2.234140  
     145A      2.250398   146A      2.337288   147A      2.364082  
     148A      2.368387   149A      2.371745   150A      2.380596  
     151A      2.390423   152A      2.390465   153A      2.397501  
     154A      2.409634   155A      2.453021   156A      2.555737  
     157A      2.646159   158A      2.703785   159A      2.708991  
     160A      3.024375   161A      3.028350   162A      3.032312  
     163A      3.042341   164A      3.058883   165A      3.110063  
     166A      3.158455   167A      3.168248   168A      3.198163  
     169A      3.206173   170A      3.395742   171A      3.411183  
     172A      3.526170   173A      3.543916   174A      4.220607  
     175A      4.221299   176A      4.335299   177A      4.346321  
     178A      4.355255   179A      4.373041   180A      4.460298  
     181A      4.462562   182A      4.522199   183A      4.534432  
     184A      4.551494   185A      4.568354   186A      4.737625  
     187A      4.751504   188A      4.755333   189A      4.759837  
     190A      4.765978   191A      4.773366   192A      5.066089  
     193A      5.075532   194A      5.407927   195A      5.414887  
     196A      5.467070   197A      5.477570   198A      5.502365  
     199A      5.502392   200A      5.693384   201A      5.700115  
     202A      5.952718   203A      5.953966   204A      6.241977  
     205A      6.249687   206A      6.457294   207A      6.492997  
     208A      6.913178   209A      6.936540   210A      7.501868  
     211A      7.504098   212A      7.659149   213A      7.670426  
     214A      7.894487   215A      7.906860   216A      7.995414  
     217A      8.004849   218A      8.121091   219A      8.124322  
     220A      8.571211   221A      8.576507   222A      8.667065  
     223A      8.685122   224A      9.521163   225A      9.592961  
     226A      9.684849   227A      9.727721   228A      9.829059  
     229A      9.833756   230A     10.069671   231A     10.076586  
     232A     11.080374   233A     11.082409   234A     11.449876  
     235A     11.466539   236A     11.942274   237A     11.961919  
     238A     13.350580   239A     13.367978   240A     13.646799  
     241A     13.675931   242A     64.353672   243A     64.490532  

    Final Occupation by Irrep:
              A 
    DOCC [     9 ]
    NA   [     9 ]
    NB   [     9 ]

  @DF-RHF Final Energy:  -599.01750896226872

   => Energetics <=

    Nuclear Repulsion Energy =              0.0000000000000000
    One-Electron Energy =                -819.7214881453477346
    Two-Electron Energy =                 220.7039791830790705
    Total Energy =                       -599.0175089622687210

Computation Completed


Properties will be evaluated at   0.000000,   0.000000,   0.000000 [a0]

Properties computed using the SCF density matrix


 Multipole Moments:

 ------------------------------------------------------------------------------------
     Multipole            Electronic (a.u.)      Nuclear  (a.u.)        Total (a.u.)
 ------------------------------------------------------------------------------------

 L = 1.  Multiply by 2.5417464519 to convert [e a0] to [Debye]
 Dipole X            :          0.0000000            0.0000000            0.0000000
 Dipole Y            :         -0.0000000            0.0000000           -0.0000000
 Dipole Z            :          0.0000000            0.0000000            0.0000000
 Magnitude           :                                                    0.0000000

 ------------------------------------------------------------------------------------

*** tstop() called on moses-razer at Wed Jan 24 04:53:45 2024
Module time:
	user time   =      14.59 seconds =       0.24 minutes
	system time =       2.86 seconds =       0.05 minutes
	total time  =          7 seconds =       0.12 minutes
Total time:
	user time   =      14.59 seconds =       0.24 minutes
	system time =       2.86 seconds =       0.05 minutes
	total time  =          7 seconds =       0.12 minutes

*** tstart() called on moses-razer
*** at Wed Jan 24 04:53:45 2024


  //>>>>>>>>>>>>>>>>>>>>>>>>>>>>>>>>>>>//
  //               DFMP2               //
  //<<<<<<<<<<<<<<<<<<<<<<<<<<<<<<<<<<<//

   => Loading Basis Set <=

    Name: (AUG-CC-PVTZ AUX)
    Role: RIFIT
    Keyword: DF_BASIS_MP2
    atoms 1        entry K          line  1282 file /home/kchung25/anaconda3/envs/p415env/share/psi4/basis/def2-qzvpp-ri.gbs 
    atoms 2, 5     entry O          line   264 file /home/kchung25/anaconda3/envs/p415env/share/psi4/basis/aug-cc-pvtz-ri.gbs 
    atoms 3-4, 6-7 entry H          line    30 file /home/kchung25/anaconda3/envs/p415env/share/psi4/basis/aug-cc-pvtz-ri.gbs 

	 --------------------------------------------------------
	                          DF-MP2                         
	      2nd-Order Density-Fitted Moller-Plesset Theory     
	              RMP2 Wavefunction,   6 Threads             
	                                                         
	        Rob Parrish, Justin Turney, Andy Simmonett,      
	           Ed Hohenstein, and C. David Sherrill          
	 --------------------------------------------------------

   => Auxiliary Basis Set <=

  Basis Set: (AUG-CC-PVTZ AUX)
    Blend: AUG-CC-PVTZ-RI + DEF2-QZVPP-RI
    Number of shells: 161
    Number of basis functions: 595
    Number of Cartesian functions: 754
    Spherical Harmonics?: true
    Max angular momentum: 4

	 --------------------------------------------------------
	                 NBF =   243, NAUX =   595
	 --------------------------------------------------------
	   CLASS    FOCC     OCC    AOCC    AVIR     VIR    FVIR
	   PAIRS       0       9       9     234     234       0
	 --------------------------------------------------------

	-----------------------------------------------------------
	 ==================> DF-MP2 Energies <==================== 
	-----------------------------------------------------------
	 Reference Energy          =    -599.0175089622687210 [Eh]
	 Singles Energy            =      -0.0000000000000000 [Eh]
	 Same-Spin Energy          =      -0.0273639911977622 [Eh]
	 Opposite-Spin Energy      =      -0.0635556192038216 [Eh]
	 Correlation Energy        =      -0.0909196104015838 [Eh]
	 Total Energy              =    -599.1084285726702774 [Eh]
	-----------------------------------------------------------
	 ================> DF-SCS-MP2 Energies <================== 
	-----------------------------------------------------------
	 SCS Same-Spin Scale       =       0.3333333333333333 [-]
	 SCS Opposite-Spin Scale   =       1.2000000000000000 [-]
	 SCS Same-Spin Energy      =      -0.0091213303992541 [Eh]
	 SCS Opposite-Spin Energy  =      -0.0762667430445859 [Eh]
	 SCS Correlation Energy    =      -0.0853880734438400 [Eh]
	 SCS Total Energy          =    -599.1028970357125445 [Eh]
	-----------------------------------------------------------


*** tstop() called on moses-razer at Wed Jan 24 04:53:49 2024
Module time:
	user time   =       7.47 seconds =       0.12 minutes
	system time =       0.84 seconds =       0.01 minutes
	total time  =          4 seconds =       0.07 minutes
Total time:
	user time   =      22.07 seconds =       0.37 minutes
	system time =       3.70 seconds =       0.06 minutes
	total time  =         11 seconds =       0.18 minutes

    Psi4 stopped on: Wednesday, 24 January 2024 04:53AM
    Psi4 wall time for execution: 0:00:11.90


    -----------------------------------------------------------------------
          Psi4: An Open-Source Ab Initio Electronic Structure Package
                               Psi4 1.9 release

                         Git: Rev {} zzzzzzz 


    D. G. A. Smith, L. A. Burns, A. C. Simmonett, R. M. Parrish,
    M. C. Schieber, R. Galvelis, P. Kraus, H. Kruse, R. Di Remigio,
    A. Alenaizan, A. M. James, S. Lehtola, J. P. Misiewicz, M. Scheurer,
    R. A. Shaw, J. B. Schriber, Y. Xie, Z. L. Glick, D. A. Sirianni,
    J. S. O'Brien, J. M. Waldrop, A. Kumar, E. G. Hohenstein,
    B. P. Pritchard, B. R. Brooks, H. F. Schaefer III, A. Yu. Sokolov,
    K. Patkowski, A. E. DePrince III, U. Bozkaya, R. A. King,
    F. A. Evangelista, J. M. Turney, T. D. Crawford, C. D. Sherrill,
    J. Chem. Phys. 152(18) 184108 (2020). https://doi.org/10.1063/5.0006002

                            Additional Code Authors
    E. T. Seidl, C. L. Janssen, E. F. Valeev, M. L. Leininger,
    J. F. Gonthier, R. M. Richard, H. R. McAlexander, M. Saitow, X. Wang,
    P. Verma, M. H. Lechner, A. Jiang, S. Behnle, A. G. Heide,
    M. F. Herbst, and D. L. Poole

             Previous Authors, Complete List of Code Contributors,
                       and Citations for Specific Modules
    https://github.com/psi4/psi4/blob/master/codemeta.json
    https://github.com/psi4/psi4/graphs/contributors
    http://psicode.org/psi4manual/master/introduction.html#citing-psifour

    -----------------------------------------------------------------------


    Psi4 started on: Wednesday, 24 January 2024 04:53AM

    Process ID: 1192779
    Host:       moses-razer
    PSIDATADIR: /home/kchung25/anaconda3/envs/psi4_19/share/psi4
    Memory:     55.9 GiB
    Threads:    6
    
  ==> Input QCSchema <==

--------------------------------------------------------------------------
{'driver': 'energy',
 'extras': {'psiapi': True, 'wfn_qcvars_only': True},
 'id': None,
 'keywords': {'SCF_TYPE': 'DF', 'function_kwargs': {}},
 'model': {'basis': 'aug-cc-pvtz', 'method': 'mp2'},
 'molecule': {'atom_labels': ['', '', '', '', '', '', ''],
              'atomic_numbers': [19, 8, 1, 1, 8, 1, 1],
              'extras': {},
              'fix_com': True,
              'fix_orientation': True,
              'fix_symmetry': 'c1',
              'fragment_charges': [0.0, 0.0, 0.0],
              'fragment_multiplicities': [1, 1, 1],
              'fragments': [[0], [1, 2, 3], [4, 5, 6]],
              'geometry': [0.0, 0.0, 0.0, 6.203505997251187, 0.0, 0.0, 7.324434843089007, 1.428466654947078, 0.0,
                           7.324434843089007, -1.428466654947078, 0.0, -6.203505997251187, 0.0, 0.0, -7.324434843089007,
                           -1.428466654947078, 0.0, -7.324434843089007, 1.428466654947078, 0.0],
              'mass_numbers': [39, 16, 1, 1, 16, 1, 1],
              'masses': [38.9637064864, 15.99491461957, 1.00782503223, 1.00782503223, 15.99491461957, 1.00782503223,
                         1.00782503223],
              'molecular_charge': 0.0,
              'molecular_multiplicity': 1,
              'name': 'dimer',
              'provenance': {'creator': 'QCElemental',
                             'routine': 'qcelemental.molparse.from_string',
                             'version': '0.27.1'},
              'real': [False, True, True, True, False, False, False],
              'schema_name': 'qcschema_molecule',
              'schema_version': 2,
              'symbols': ['K', 'O', 'H', 'H', 'O', 'H', 'H'],
              'validated': True},
 'protocols': {'stdout': True},
 'provenance': {'creator': 'QCElemental', 'routine': 'qcelemental.models.results', 'version': '0.27.1'},
 'schema_name': 'qcschema_input',
 'schema_version': 1}
--------------------------------------------------------------------------

Scratch directory: /scratch/
   => Libint2 <=

    Primary   basis highest AM E, G, H:  5, 4, 3
    Auxiliary basis highest AM E, G, H:  6, 5, 4
    Onebody   basis highest AM E, G, H:  6, 5, 4
    Solid Harmonics ordering:            gaussian

*** tstart() called on moses-razer
*** at Wed Jan 24 04:53:49 2024

   => Loading Basis Set <=

    Name: AUG-CC-PVTZ
    Role: ORBITAL
    Keyword: BASIS
    atoms 1        entry K          line  1152 file /home/kchung25/anaconda3/envs/p415env/share/psi4/basis/aug-cc-pvtz.gbs 
    atoms 2, 5     entry O          line   331 file /home/kchung25/anaconda3/envs/p415env/share/psi4/basis/aug-cc-pvtz.gbs 
    atoms 3-4, 6-7 entry H          line    40 file /home/kchung25/anaconda3/envs/p415env/share/psi4/basis/aug-cc-pvtz.gbs 


         ---------------------------------------------------------
                                   SCF
               by Justin Turney, Rob Parrish, Andy Simmonett
                          and Daniel G. A. Smith
                              RHF Reference
                        6 Threads,  57220 MiB Core
         ---------------------------------------------------------

  ==> Geometry <==

    Molecular point group: c1
    Full point group: C2v

    Geometry (in Bohr), charge = 0, multiplicity = 1:

       Center              X                  Y                   Z               Mass       
    ------------   -----------------  -----------------  -----------------  -----------------
      Gh(K)           0.000000000000     0.000000000000     0.000000000000    38.963706486400
         O            6.203505997251     0.000000000000     0.000000000000    15.994914619570
         H            7.324434843089     1.428466654947     0.000000000000     1.007825032230
         H            7.324434843089    -1.428466654947     0.000000000000     1.007825032230
      Gh(O)          -6.203505997251     0.000000000000     0.000000000000    15.994914619570
      Gh(H)          -7.324434843089    -1.428466654947     0.000000000000     1.007825032230
      Gh(H)          -7.324434843089     1.428466654947     0.000000000000     1.007825032230

  Running in c1 symmetry.

  Rotational constants: A =      7.31828  B =      0.04159  C =      0.04136 [cm^-1]
  Rotational constants: A = 219396.44560  B =   1246.92908  C =   1239.88227 [MHz]
  Nuclear repulsion =    9.161744084394783

  Charge       = 0
  Multiplicity = 1
  Electrons    = 10
  Nalpha       = 5
  Nbeta        = 5

  ==> Algorithm <==

  SCF Algorithm Type is DF.
  DIIS enabled.
  MOM disabled.
  Fractional occupation disabled.
  Guess Type is SAD.
  Energy threshold   = 1.00e-08
  Density threshold  = 1.00e-08
  Integral threshold = 1.00e-12

  ==> Primary Basis <==

  Basis Set: AUG-CC-PVTZ
    Blend: AUG-CC-PVTZ
    Number of shells: 83
    Number of basis functions: 243
    Number of Cartesian functions: 279
    Spherical Harmonics?: true
    Max angular momentum: 3

   => Loading Basis Set <=

    Name: (AUG-CC-PVTZ AUX)
    Role: JKFIT
    Keyword: DF_BASIS_SCF
    atoms 1        entry K          line  1152 file /home/kchung25/anaconda3/envs/p415env/share/psi4/basis/def2-universal-jkfit.gbs 
    atoms 2, 5     entry O          line   286 file /home/kchung25/anaconda3/envs/p415env/share/psi4/basis/aug-cc-pvtz-jkfit.gbs 
    atoms 3-4, 6-7 entry H          line    70 file /home/kchung25/anaconda3/envs/p415env/share/psi4/basis/aug-cc-pvtz-jkfit.gbs 

  ==> Integral Setup <==

  DFHelper Memory: AOs need 0.219 GiB; user supplied 41.910 GiB. 
  Using in-core AOs.

  ==> MemDFJK: Density-Fitted J/K Matrices <==

    J tasked:                   Yes
    K tasked:                   Yes
    wK tasked:                   No
    OpenMP threads:               6
    Memory [MiB]:             42915
    Algorithm:                 Core
    Schwarz Cutoff:           1E-12
    Mask sparsity (%):      16.6235
    Fitting Condition:        1E-10

   => Auxiliary Basis Set <=

  Basis Set: (AUG-CC-PVTZ AUX)
    Blend: AUG-CC-PVTZ-JKFIT + DEF2-UNIVERSAL-JKFIT
    Number of shells: 160
    Number of basis functions: 552
    Number of Cartesian functions: 685
    Spherical Harmonics?: true
    Max angular momentum: 4

  Minimum eigenvalue in the overlap matrix is 1.2904558526E-04.
  Reciprocal condition number of the overlap matrix is 1.4747968638E-05.
    Using symmetric orthogonalization.

  ==> Pre-Iterations <==

  SCF Guess: Superposition of Atomic Densities via on-the-fly atomic UHF (no occupation information).

   -------------------------
    Irrep   Nso     Nmo    
   -------------------------
     A        243     243 
   -------------------------
    Total     243     243
   -------------------------

  ==> Iterations <==

                           Total Energy        Delta E     RMS |[F,P]|

   @DF-RHF iter SAD:   -75.47466832640114   -7.54747e+01   0.00000e+00 
   @DF-RHF iter   1:   -75.97581768924914   -5.01149e-01   1.92749e-03 ADIIS/DIIS
   @DF-RHF iter   2:   -76.02828822492692   -5.24705e-02   1.31677e-03 ADIIS/DIIS
   @DF-RHF iter   3:   -76.05987946257588   -3.15912e-02   8.96608e-05 DIIS
   @DF-RHF iter   4:   -76.06027111156284   -3.91649e-04   2.14258e-05 DIIS
   @DF-RHF iter   5:   -76.06029564993496   -2.45384e-05   4.88811e-06 DIIS
   @DF-RHF iter   6:   -76.06029766714231   -2.01721e-06   1.06817e-06 DIIS
   @DF-RHF iter   7:   -76.06029777296392   -1.05822e-07   1.91430e-07 DIIS
   @DF-RHF iter   8:   -76.06029777594182   -2.97790e-09   3.19827e-08 DIIS
   @DF-RHF iter   9:   -76.06029777600733   -6.55120e-11   7.87138e-09 DIIS
  Energy and wave function converged.


  ==> Post-Iterations <==

    Orbital Energies [Eh]
    ---------------------

    Doubly Occupied:                                                      

       1A    -20.568173     2A     -1.352285     3A     -0.714398  
       4A     -0.585738     5A     -0.510281  

    Virtual:                                                              

       6A      0.007553     7A      0.010166     8A      0.010683  
       9A      0.011316    10A      0.018397    11A      0.018709  
      12A      0.019237    13A      0.019802    14A      0.019812  
      15A      0.035656    16A      0.038118    17A      0.039416  
      18A      0.044370    19A      0.062396    20A      0.064012  
      21A      0.067143    22A      0.067864    23A      0.068307  
      24A      0.068315    25A      0.070777    26A      0.090394  
      27A      0.093375    28A      0.104274    29A      0.108132  
      30A      0.109907    31A      0.121692    32A      0.144207  
      33A      0.146817    34A      0.148045    35A      0.148070  
      36A      0.148847    37A      0.174921    38A      0.182342  
      39A      0.185314    40A      0.194626    41A      0.205204  
      42A      0.216025    43A      0.225595    44A      0.234523  
      45A      0.236887    46A      0.244786    47A      0.258585  
      48A      0.260506    49A      0.264843    50A      0.266235  
      51A      0.269436    52A      0.270594    53A      0.289036  
      54A      0.305867    55A      0.324191    56A      0.328031  
      57A      0.356874    58A      0.369107    59A      0.376689  
      60A      0.389169    61A      0.403288    62A      0.408294  
      63A      0.409744    64A      0.413140    65A      0.428686  
      66A      0.440922    67A      0.447277    68A      0.466603  
      69A      0.467975    70A      0.468078    71A      0.468250  
      72A      0.479487    73A      0.482094    74A      0.492486  
      75A      0.521175    76A      0.563719    77A      0.563971  
      78A      0.665669    79A      0.674084    80A      0.716622  
      81A      0.721790    82A      0.731196    83A      0.739871  
      84A      0.784056    85A      0.795251    86A      0.828497  
      87A      0.851371    88A      0.853894    89A      0.856810  
      90A      0.869212    91A      0.870007    92A      0.883653  
      93A      0.934039    94A      0.939669    95A      0.942345  
      96A      0.944861    97A      0.965489    98A      1.011034  
      99A      1.015847   100A      1.016552   101A      1.038916  
     102A      1.050939   103A      1.051817   104A      1.063900  
     105A      1.072753   106A      1.084520   107A      1.094483  
     108A      1.130385   109A      1.133461   110A      1.150787  
     111A      1.182698   112A      1.183645   113A      1.218519  
     114A      1.226928   115A      1.228049   116A      1.286216  
     117A      1.303379   118A      1.454218   119A      1.508447  
     120A      1.531386   121A      1.543066   122A      1.595692  
     123A      1.700763   124A      1.707403   125A      1.727518  
     126A      1.746848   127A      1.839122   128A      1.857139  
     129A      1.861670   130A      1.884024   131A      1.893700  
     132A      1.894651   133A      1.921854   134A      1.952297  
     135A      1.985817   136A      2.019273   137A      2.074141  
     138A      2.127189   139A      2.130616   140A      2.156445  
     141A      2.249656   142A      2.290303   143A      2.319439  
     144A      2.382469   145A      2.409364   146A      2.415741  
     147A      2.429932   148A      2.480300   149A      2.536521  
     150A      2.543193   151A      2.552698   152A      2.557518  
     153A      2.565948   154A      2.597371   155A      2.699846  
     156A      2.718259   157A      2.738129   158A      2.808921  
     159A      2.838277   160A      2.875614   161A      2.882186  
     162A      2.893890   163A      3.189184   164A      3.214139  
     165A      3.251103   166A      3.315616   167A      3.355339  
     168A      3.565909   169A      3.686014   170A      3.729392  
     171A      3.769496   172A      4.021475   173A      4.112732  
     174A      4.197959   175A      4.257507   176A      4.286363  
     177A      4.357667   178A      4.392136   179A      4.407504  
     180A      4.434137   181A      4.479015   182A      4.506055  
     183A      4.532210   184A      4.604878   185A      4.676993  
     186A      4.685777   187A      4.788283   188A      4.854009  
     189A      4.884253   190A      4.899113   191A      4.899144  
     192A      5.149979   193A      5.157196   194A      5.209626  
     195A      5.259230   196A      5.335553   197A      5.526576  
     198A      5.554728   199A      5.617434   200A      5.650127  
     201A      5.696885   202A      5.849399   203A      6.106382  
     204A      6.236010   205A      6.395048   206A      6.564146  
     207A      6.632289   208A      6.715929   209A      6.916072  
     210A      7.080368   211A      7.152728   212A      7.297876  
     213A      7.305536   214A      7.320282   215A      7.364985  
     216A      7.408547   217A      7.552740   218A      7.669176  
     219A      7.829121   220A      7.910870   221A      7.934899  
     222A      8.064124   223A      8.161833   224A      8.286446  
     225A      8.730279   226A      8.824279   227A      8.838687  
     228A      9.726810   229A      9.823910   230A      9.874547  
     231A      9.994931   232A     10.239995   233A     11.241644  
     234A     11.620878   235A     12.115780   236A     13.520753  
     237A     13.824679   238A     15.789718   239A     30.246484  
     240A     30.278655   241A     30.742941   242A     64.586327  
     243A    197.110022  

    Final Occupation by Irrep:
              A 
    DOCC [     5 ]
    NA   [     5 ]
    NB   [     5 ]

  @DF-RHF Final Energy:   -76.06029777600733

   => Energetics <=

    Nuclear Repulsion Energy =              9.1617440843947833
    One-Electron Energy =                -122.9823318840624751
    Two-Electron Energy =                  37.7602900236603460
    Total Energy =                        -76.0602977760073458

Computation Completed


Properties will be evaluated at   0.000000,   0.000000,   0.000000 [a0]

Properties computed using the SCF density matrix


 Multipole Moments:

 ------------------------------------------------------------------------------------
     Multipole            Electronic (a.u.)      Nuclear  (a.u.)        Total (a.u.)
 ------------------------------------------------------------------------------------

 L = 1.  Multiply by 2.5417464519 to convert [e a0] to [Debye]
 Dipole X            :        -63.4904942           64.2769177            0.7864235
 Dipole Y            :         -0.0000000            0.0000000           -0.0000000
 Dipole Z            :          0.0000000            0.0000000            0.0000000
 Magnitude           :                                                    0.7864235

 ------------------------------------------------------------------------------------

*** tstop() called on moses-razer at Wed Jan 24 04:53:54 2024
Module time:
	user time   =      11.97 seconds =       0.20 minutes
	system time =       1.41 seconds =       0.02 minutes
	total time  =          5 seconds =       0.08 minutes
Total time:
	user time   =      34.29 seconds =       0.57 minutes
	system time =       5.11 seconds =       0.09 minutes
	total time  =         16 seconds =       0.27 minutes

*** tstart() called on moses-razer
*** at Wed Jan 24 04:53:54 2024


  //>>>>>>>>>>>>>>>>>>>>>>>>>>>>>>>>>>>//
  //               DFMP2               //
  //<<<<<<<<<<<<<<<<<<<<<<<<<<<<<<<<<<<//

   => Loading Basis Set <=

    Name: (AUG-CC-PVTZ AUX)
    Role: RIFIT
    Keyword: DF_BASIS_MP2
    atoms 1        entry K          line  1282 file /home/kchung25/anaconda3/envs/p415env/share/psi4/basis/def2-qzvpp-ri.gbs 
    atoms 2, 5     entry O          line   264 file /home/kchung25/anaconda3/envs/p415env/share/psi4/basis/aug-cc-pvtz-ri.gbs 
    atoms 3-4, 6-7 entry H          line    30 file /home/kchung25/anaconda3/envs/p415env/share/psi4/basis/aug-cc-pvtz-ri.gbs 

	 --------------------------------------------------------
	                          DF-MP2                         
	      2nd-Order Density-Fitted Moller-Plesset Theory     
	              RMP2 Wavefunction,   6 Threads             
	                                                         
	        Rob Parrish, Justin Turney, Andy Simmonett,      
	           Ed Hohenstein, and C. David Sherrill          
	 --------------------------------------------------------

   => Auxiliary Basis Set <=

  Basis Set: (AUG-CC-PVTZ AUX)
    Blend: AUG-CC-PVTZ-RI + DEF2-QZVPP-RI
    Number of shells: 161
    Number of basis functions: 595
    Number of Cartesian functions: 754
    Spherical Harmonics?: true
    Max angular momentum: 4

	 --------------------------------------------------------
	                 NBF =   243, NAUX =   595
	 --------------------------------------------------------
	   CLASS    FOCC     OCC    AOCC    AVIR     VIR    FVIR
	   PAIRS       0       5       5     238     238       0
	 --------------------------------------------------------

	-----------------------------------------------------------
	 ==================> DF-MP2 Energies <==================== 
	-----------------------------------------------------------
	 Reference Energy          =     -76.0602977760073315 [Eh]
	 Singles Energy            =      -0.0000000000000000 [Eh]
	 Same-Spin Energy          =      -0.0684326669725602 [Eh]
	 Opposite-Spin Energy      =      -0.2155174515183655 [Eh]
	 Correlation Energy        =      -0.2839501184909257 [Eh]
	 Total Energy              =     -76.3442478944982525 [Eh]
	-----------------------------------------------------------
	 ================> DF-SCS-MP2 Energies <================== 
	-----------------------------------------------------------
	 SCS Same-Spin Scale       =       0.3333333333333333 [-]
	 SCS Opposite-Spin Scale   =       1.2000000000000000 [-]
	 SCS Same-Spin Energy      =      -0.0228108889908534 [Eh]
	 SCS Opposite-Spin Energy  =      -0.2586209418220386 [Eh]
	 SCS Correlation Energy    =      -0.2814318308128920 [Eh]
	 SCS Total Energy          =     -76.3417296068202234 [Eh]
	-----------------------------------------------------------


*** tstop() called on moses-razer at Wed Jan 24 04:53:59 2024
Module time:
	user time   =       7.33 seconds =       0.12 minutes
	system time =       0.92 seconds =       0.02 minutes
	total time  =          5 seconds =       0.08 minutes
Total time:
	user time   =      41.62 seconds =       0.69 minutes
	system time =       6.03 seconds =       0.10 minutes
	total time  =         21 seconds =       0.35 minutes

    Psi4 stopped on: Wednesday, 24 January 2024 04:53AM
    Psi4 wall time for execution: 0:00:09.69


    -----------------------------------------------------------------------
          Psi4: An Open-Source Ab Initio Electronic Structure Package
                               Psi4 1.9 release

                         Git: Rev {} zzzzzzz 


    D. G. A. Smith, L. A. Burns, A. C. Simmonett, R. M. Parrish,
    M. C. Schieber, R. Galvelis, P. Kraus, H. Kruse, R. Di Remigio,
    A. Alenaizan, A. M. James, S. Lehtola, J. P. Misiewicz, M. Scheurer,
    R. A. Shaw, J. B. Schriber, Y. Xie, Z. L. Glick, D. A. Sirianni,
    J. S. O'Brien, J. M. Waldrop, A. Kumar, E. G. Hohenstein,
    B. P. Pritchard, B. R. Brooks, H. F. Schaefer III, A. Yu. Sokolov,
    K. Patkowski, A. E. DePrince III, U. Bozkaya, R. A. King,
    F. A. Evangelista, J. M. Turney, T. D. Crawford, C. D. Sherrill,
    J. Chem. Phys. 152(18) 184108 (2020). https://doi.org/10.1063/5.0006002

                            Additional Code Authors
    E. T. Seidl, C. L. Janssen, E. F. Valeev, M. L. Leininger,
    J. F. Gonthier, R. M. Richard, H. R. McAlexander, M. Saitow, X. Wang,
    P. Verma, M. H. Lechner, A. Jiang, S. Behnle, A. G. Heide,
    M. F. Herbst, and D. L. Poole

             Previous Authors, Complete List of Code Contributors,
                       and Citations for Specific Modules
    https://github.com/psi4/psi4/blob/master/codemeta.json
    https://github.com/psi4/psi4/graphs/contributors
    http://psicode.org/psi4manual/master/introduction.html#citing-psifour

    -----------------------------------------------------------------------


    Psi4 started on: Wednesday, 24 January 2024 04:53AM

    Process ID: 1192779
    Host:       moses-razer
    PSIDATADIR: /home/kchung25/anaconda3/envs/psi4_19/share/psi4
    Memory:     55.9 GiB
    Threads:    6
    
  ==> Input QCSchema <==

--------------------------------------------------------------------------
{'driver': 'energy',
 'extras': {'psiapi': True, 'wfn_qcvars_only': True},
 'id': None,
 'keywords': {'SCF_TYPE': 'DF', 'function_kwargs': {}},
 'model': {'basis': 'aug-cc-pvtz', 'method': 'mp2'},
 'molecule': {'atom_labels': ['', '', '', '', '', '', ''],
              'atomic_numbers': [19, 8, 1, 1, 8, 1, 1],
              'extras': {},
              'fix_com': True,
              'fix_orientation': True,
              'fix_symmetry': 'c1',
              'fragment_charges': [0.0, 0.0, 0.0],
              'fragment_multiplicities': [1, 1, 1],
              'fragments': [[0], [1, 2, 3], [4, 5, 6]],
              'geometry': [0.0, 0.0, 0.0, 6.203505997251187, 0.0, 0.0, 7.324434843089007, 1.428466654947078, 0.0,
                           7.324434843089007, -1.428466654947078, 0.0, -6.203505997251187, 0.0, 0.0, -7.324434843089007,
                           -1.428466654947078, 0.0, -7.324434843089007, 1.428466654947078, 0.0],
              'mass_numbers': [39, 16, 1, 1, 16, 1, 1],
              'masses': [38.9637064864, 15.99491461957, 1.00782503223, 1.00782503223, 15.99491461957, 1.00782503223,
                         1.00782503223],
              'molecular_charge': 0.0,
              'molecular_multiplicity': 1,
              'name': 'dimer',
              'provenance': {'creator': 'QCElemental',
                             'routine': 'qcelemental.molparse.from_string',
                             'version': '0.27.1'},
              'real': [False, True, True, True, True, True, True],
              'schema_name': 'qcschema_molecule',
              'schema_version': 2,
              'symbols': ['K', 'O', 'H', 'H', 'O', 'H', 'H'],
              'validated': True},
 'protocols': {'stdout': True},
 'provenance': {'creator': 'QCElemental', 'routine': 'qcelemental.models.results', 'version': '0.27.1'},
 'schema_name': 'qcschema_input',
 'schema_version': 1}
--------------------------------------------------------------------------

Scratch directory: /scratch/
   => Libint2 <=

    Primary   basis highest AM E, G, H:  5, 4, 3
    Auxiliary basis highest AM E, G, H:  6, 5, 4
    Onebody   basis highest AM E, G, H:  6, 5, 4
    Solid Harmonics ordering:            gaussian

*** tstart() called on moses-razer
*** at Wed Jan 24 04:53:59 2024

   => Loading Basis Set <=

    Name: AUG-CC-PVTZ
    Role: ORBITAL
    Keyword: BASIS
    atoms 1        entry K          line  1152 file /home/kchung25/anaconda3/envs/p415env/share/psi4/basis/aug-cc-pvtz.gbs 
    atoms 2, 5     entry O          line   331 file /home/kchung25/anaconda3/envs/p415env/share/psi4/basis/aug-cc-pvtz.gbs 
    atoms 3-4, 6-7 entry H          line    40 file /home/kchung25/anaconda3/envs/p415env/share/psi4/basis/aug-cc-pvtz.gbs 


         ---------------------------------------------------------
                                   SCF
               by Justin Turney, Rob Parrish, Andy Simmonett
                          and Daniel G. A. Smith
                              RHF Reference
                        6 Threads,  57220 MiB Core
         ---------------------------------------------------------

  ==> Geometry <==

    Molecular point group: c1
    Full point group: D2h

    Geometry (in Bohr), charge = 0, multiplicity = 1:

       Center              X                  Y                   Z               Mass       
    ------------   -----------------  -----------------  -----------------  -----------------
      Gh(K)           0.000000000000     0.000000000000     0.000000000000    38.963706486400
         O            6.203505997251     0.000000000000     0.000000000000    15.994914619570
         H            7.324434843089     1.428466654947     0.000000000000     1.007825032230
         H            7.324434843089    -1.428466654947     0.000000000000     1.007825032230
         O           -6.203505997251     0.000000000000     0.000000000000    15.994914619570
         H           -7.324434843089    -1.428466654947     0.000000000000     1.007825032230
         H           -7.324434843089     1.428466654947     0.000000000000     1.007825032230

  Running in c1 symmetry.

  Rotational constants: A =      7.31828  B =      0.04159  C =      0.04136 [cm^-1]
  Rotational constants: A = 219396.44560  B =   1246.92908  C =   1239.88227 [MHz]
  Nuclear repulsion =   26.104791681088809

  Charge       = 0
  Multiplicity = 1
  Electrons    = 20
  Nalpha       = 10
  Nbeta        = 10

  ==> Algorithm <==

  SCF Algorithm Type is DF.
  DIIS enabled.
  MOM disabled.
  Fractional occupation disabled.
  Guess Type is SAD.
  Energy threshold   = 1.00e-08
  Density threshold  = 1.00e-08
  Integral threshold = 1.00e-12

  ==> Primary Basis <==

  Basis Set: AUG-CC-PVTZ
    Blend: AUG-CC-PVTZ
    Number of shells: 83
    Number of basis functions: 243
    Number of Cartesian functions: 279
    Spherical Harmonics?: true
    Max angular momentum: 3

   => Loading Basis Set <=

    Name: (AUG-CC-PVTZ AUX)
    Role: JKFIT
    Keyword: DF_BASIS_SCF
    atoms 1        entry K          line  1152 file /home/kchung25/anaconda3/envs/p415env/share/psi4/basis/def2-universal-jkfit.gbs 
    atoms 2, 5     entry O          line   286 file /home/kchung25/anaconda3/envs/p415env/share/psi4/basis/aug-cc-pvtz-jkfit.gbs 
    atoms 3-4, 6-7 entry H          line    70 file /home/kchung25/anaconda3/envs/p415env/share/psi4/basis/aug-cc-pvtz-jkfit.gbs 

  ==> Integral Setup <==

  DFHelper Memory: AOs need 0.219 GiB; user supplied 41.910 GiB. 
  Using in-core AOs.

  ==> MemDFJK: Density-Fitted J/K Matrices <==

    J tasked:                   Yes
    K tasked:                   Yes
    wK tasked:                   No
    OpenMP threads:               6
    Memory [MiB]:             42915
    Algorithm:                 Core
    Schwarz Cutoff:           1E-12
    Mask sparsity (%):      16.6235
    Fitting Condition:        1E-10

   => Auxiliary Basis Set <=

  Basis Set: (AUG-CC-PVTZ AUX)
    Blend: AUG-CC-PVTZ-JKFIT + DEF2-UNIVERSAL-JKFIT
    Number of shells: 160
    Number of basis functions: 552
    Number of Cartesian functions: 685
    Spherical Harmonics?: true
    Max angular momentum: 4

  Minimum eigenvalue in the overlap matrix is 1.2904558526E-04.
  Reciprocal condition number of the overlap matrix is 1.4747968638E-05.
    Using symmetric orthogonalization.

  ==> Pre-Iterations <==

  SCF Guess: Superposition of Atomic Densities via on-the-fly atomic UHF (no occupation information).

   -------------------------
    Irrep   Nso     Nmo    
   -------------------------
     A        243     243 
   -------------------------
    Total     243     243
   -------------------------

  ==> Iterations <==

                           Total Energy        Delta E     RMS |[F,P]|

   @DF-RHF iter SAD:  -150.94934003357463   -1.50949e+02   0.00000e+00 
   @DF-RHF iter   1:  -151.95022539112472   -1.00089e+00   2.73045e-03 ADIIS/DIIS
   @DF-RHF iter   2:  -152.05542292676580   -1.05198e-01   1.86905e-03 ADIIS/DIIS
   @DF-RHF iter   3:  -152.11915659135224   -6.37337e-02   1.27441e-04 ADIIS/DIIS
   @DF-RHF iter   4:  -152.11994568562605   -7.89094e-04   3.04421e-05 DIIS
   @DF-RHF iter   5:  -152.11999527025489   -4.95846e-05   6.96137e-06 DIIS
   @DF-RHF iter   6:  -152.11999936684555   -4.09659e-06   1.52178e-06 DIIS
   @DF-RHF iter   7:  -152.11999958190839   -2.15063e-07   2.73280e-07 DIIS
   @DF-RHF iter   8:  -152.11999958798998   -6.08159e-09   4.58280e-08 DIIS
   @DF-RHF iter   9:  -152.11999958812470   -1.34719e-10   1.12831e-08 DIIS
   @DF-RHF iter  10:  -152.11999958813260   -7.90124e-12   1.66442e-09 DIIS
  Energy and wave function converged.


  ==> Post-Iterations <==

    Orbital Energies [Eh]
    ---------------------

    Doubly Occupied:                                                      

       1A    -20.563620     2A    -20.563620     3A     -1.347700  
       4A     -1.347700     5A     -0.709817     6A     -0.709815  
       7A     -0.580905     8A     -0.580879     9A     -0.505628  
      10A     -0.505625  

    Virtual:                                                              

      11A      0.008144    12A      0.010654    13A      0.010943  
      14A      0.011479    15A      0.017937    16A      0.018214  
      17A      0.019275    18A      0.020423    19A      0.020477  
      20A      0.036520    21A      0.040155    22A      0.042543  
      23A      0.050974    24A      0.064187    25A      0.065061  
      26A      0.065616    27A      0.068529    28A      0.071150  
      29A      0.071232    30A      0.071420    31A      0.090555  
      32A      0.090730    33A      0.114119    34A      0.117004  
      35A      0.117776    36A      0.132912    37A      0.147543  
      38A      0.150361    39A      0.152584    40A      0.152625  
      41A      0.159755    42A      0.183963    43A      0.191079  
      44A      0.192771    45A      0.201694    46A      0.212260  
      47A      0.226668    48A      0.237280    49A      0.244689  
      50A      0.245221    51A      0.248252    52A      0.254900  
      53A      0.268570    54A      0.271708    55A      0.275945  
      56A      0.276320    57A      0.281860    58A      0.286386  
      59A      0.300999    60A      0.316239    61A      0.330332  
      62A      0.357792    63A      0.378000    64A      0.382631  
      65A      0.402059    66A      0.405317    67A      0.407887  
      68A      0.412385    69A      0.414324    70A      0.419322  
      71A      0.446342    72A      0.473400    73A      0.478552  
      74A      0.478569    75A      0.479927    76A      0.480964  
      77A      0.485340    78A      0.489891    79A      0.521586  
      80A      0.547031    81A      0.568213    82A      0.605221  
      83A      0.633427    84A      0.671490    85A      0.724134  
      86A      0.733014    87A      0.733787    88A      0.748764  
      89A      0.758258    90A      0.760981    91A      0.817230  
      92A      0.822403    93A      0.855918    94A      0.857748  
      95A      0.871632    96A      0.878839    97A      0.903658  
      98A      0.936958    99A      0.948051   100A      0.949201  
     101A      0.969902   102A      0.977224   103A      0.994796  
     104A      1.006769   105A      1.049143   106A      1.051988  
     107A      1.056492   108A      1.069946   109A      1.071303  
     110A      1.079152   111A      1.084115   112A      1.092554  
     113A      1.127979   114A      1.129209   115A      1.159349  
     116A      1.163313   117A      1.183779   118A      1.192654  
     119A      1.207469   120A      1.214760   121A      1.254950  
     122A      1.269134   123A      1.368087   124A      1.500778  
     125A      1.520496   126A      1.552940   127A      1.581583  
     128A      1.621774   129A      1.625798   130A      1.761361  
     131A      1.838185   132A      1.849134   133A      1.868919  
     134A      1.881056   135A      1.906594   136A      1.918068  
     137A      1.937665   138A      1.950040   139A      1.983492  
     140A      1.997922   141A      2.033053   142A      2.129209  
     143A      2.131164   144A      2.132485   145A      2.162468  
     146A      2.183702   147A      2.283852   148A      2.312533  
     149A      2.323025   150A      2.325550   151A      2.394515  
     152A      2.399389   153A      2.431710   154A      2.436271  
     155A      2.474703   156A      2.509623   157A      2.537771  
     158A      2.541472   159A      2.663727   160A      2.713829  
     161A      2.725821   162A      2.729177   163A      2.734612  
     164A      2.748489   165A      2.816133   166A      2.846548  
     167A      2.868956   168A      2.893053   169A      2.903944  
     170A      2.905942   171A      3.710826   172A      3.753802  
     173A      3.760100   174A      3.787543   175A      4.025000  
     176A      4.026608   177A      4.103828   178A      4.129805  
     179A      4.192453   180A      4.212628   181A      4.261875  
     182A      4.262477   183A      4.289029   184A      4.292595  
     185A      4.385978   186A      4.407499   187A      4.411570  
     188A      4.412254   189A      4.424264   190A      4.453742  
     191A      4.532055   192A      4.541111   193A      4.780878  
     194A      4.807876   195A      4.857933   196A      4.858666  
     197A      5.154189   198A      5.154737   199A      5.161162  
     200A      5.161858   201A      5.261580   202A      5.265884  
     203A      5.338019   204A      5.342012   205A      5.529917  
     206A      5.532272   207A      5.689630   208A      5.713597  
     209A      6.222902   210A      6.259468   211A      6.543229  
     212A      6.595459   213A      6.719514   214A      6.721717  
     215A      6.915443   216A      6.925675   217A      7.149601  
     218A      7.164664   219A      7.287560   220A      7.309351  
     221A      7.310967   222A      7.318672   223A      7.323608  
     224A      7.326261   225A      7.366979   226A      7.372210  
     227A      7.392115   228A      7.432412   229A      7.548361  
     230A      7.569180   231A      7.912743   232A      7.918445  
     233A      7.937852   234A      7.941306   235A      8.825658  
     236A      8.832497   237A      9.842690   238A     15.767936  
     239A     15.820402   240A     30.265047   241A     30.297135  
     242A     30.762342   243A    197.128685  

    Final Occupation by Irrep:
              A 
    DOCC [    10 ]
    NA   [    10 ]
    NB   [    10 ]

  @DF-RHF Final Energy:  -152.11999958813260

   => Energetics <=

    Nuclear Repulsion Energy =             26.1047916810888090
    One-Electron Energy =                -261.6189672195183107
    Two-Electron Energy =                  83.3941759502968978
    Total Energy =                       -152.1199995881326004

Computation Completed


Properties will be evaluated at   0.000000,   0.000000,   0.000000 [a0]

Properties computed using the SCF density matrix


 Multipole Moments:

 ------------------------------------------------------------------------------------
     Multipole            Electronic (a.u.)      Nuclear  (a.u.)        Total (a.u.)
 ------------------------------------------------------------------------------------

 L = 1.  Multiply by 2.5417464519 to convert [e a0] to [Debye]
 Dipole X            :         -0.0000000           -0.0000000           -0.0000000
 Dipole Y            :          0.0000000            0.0000000            0.0000000
 Dipole Z            :         -0.0000000            0.0000000           -0.0000000
 Magnitude           :                                                    0.0000000

 ------------------------------------------------------------------------------------

*** tstop() called on moses-razer at Wed Jan 24 04:54:04 2024
Module time:
	user time   =      11.88 seconds =       0.20 minutes
	system time =       1.42 seconds =       0.02 minutes
	total time  =          5 seconds =       0.08 minutes
Total time:
	user time   =      53.74 seconds =       0.90 minutes
	system time =       7.46 seconds =       0.12 minutes
	total time  =         26 seconds =       0.43 minutes

*** tstart() called on moses-razer
*** at Wed Jan 24 04:54:04 2024


  //>>>>>>>>>>>>>>>>>>>>>>>>>>>>>>>>>>>//
  //               DFMP2               //
  //<<<<<<<<<<<<<<<<<<<<<<<<<<<<<<<<<<<//

   => Loading Basis Set <=

    Name: (AUG-CC-PVTZ AUX)
    Role: RIFIT
    Keyword: DF_BASIS_MP2
    atoms 1        entry K          line  1282 file /home/kchung25/anaconda3/envs/p415env/share/psi4/basis/def2-qzvpp-ri.gbs 
    atoms 2, 5     entry O          line   264 file /home/kchung25/anaconda3/envs/p415env/share/psi4/basis/aug-cc-pvtz-ri.gbs 
    atoms 3-4, 6-7 entry H          line    30 file /home/kchung25/anaconda3/envs/p415env/share/psi4/basis/aug-cc-pvtz-ri.gbs 

	 --------------------------------------------------------
	                          DF-MP2                         
	      2nd-Order Density-Fitted Moller-Plesset Theory     
	              RMP2 Wavefunction,   6 Threads             
	                                                         
	        Rob Parrish, Justin Turney, Andy Simmonett,      
	           Ed Hohenstein, and C. David Sherrill          
	 --------------------------------------------------------

   => Auxiliary Basis Set <=

  Basis Set: (AUG-CC-PVTZ AUX)
    Blend: AUG-CC-PVTZ-RI + DEF2-QZVPP-RI
    Number of shells: 161
    Number of basis functions: 595
    Number of Cartesian functions: 754
    Spherical Harmonics?: true
    Max angular momentum: 4

	 --------------------------------------------------------
	                 NBF =   243, NAUX =   595
	 --------------------------------------------------------
	   CLASS    FOCC     OCC    AOCC    AVIR     VIR    FVIR
	   PAIRS       0      10      10     233     233       0
	 --------------------------------------------------------

	-----------------------------------------------------------
	 ==================> DF-MP2 Energies <==================== 
	-----------------------------------------------------------
	 Reference Energy          =    -152.1199995881326004 [Eh]
	 Singles Energy            =      -0.0000000000000000 [Eh]
	 Same-Spin Energy          =      -0.1368872886446929 [Eh]
	 Opposite-Spin Energy      =      -0.4310986566706766 [Eh]
	 Correlation Energy        =      -0.5679859453153695 [Eh]
	 Total Energy              =    -152.6879855334479714 [Eh]
	-----------------------------------------------------------
	 ================> DF-SCS-MP2 Energies <================== 
	-----------------------------------------------------------
	 SCS Same-Spin Scale       =       0.3333333333333333 [-]
	 SCS Opposite-Spin Scale   =       1.2000000000000000 [-]
	 SCS Same-Spin Energy      =      -0.0456290962148976 [Eh]
	 SCS Opposite-Spin Energy  =      -0.5173183880048119 [Eh]
	 SCS Correlation Energy    =      -0.5629474842197095 [Eh]
	 SCS Total Energy          =    -152.6829470723523059 [Eh]
	-----------------------------------------------------------


*** tstop() called on moses-razer at Wed Jan 24 04:54:09 2024
Module time:
	user time   =       7.50 seconds =       0.12 minutes
	system time =       0.82 seconds =       0.01 minutes
	total time  =          5 seconds =       0.08 minutes
Total time:
	user time   =      61.24 seconds =       1.02 minutes
	system time =       8.28 seconds =       0.14 minutes
	total time  =         31 seconds =       0.52 minutes

    Psi4 stopped on: Wednesday, 24 January 2024 04:54AM
    Psi4 wall time for execution: 0:00:09.69


    -----------------------------------------------------------------------
          Psi4: An Open-Source Ab Initio Electronic Structure Package
                               Psi4 1.9 release

                         Git: Rev {} zzzzzzz 


    D. G. A. Smith, L. A. Burns, A. C. Simmonett, R. M. Parrish,
    M. C. Schieber, R. Galvelis, P. Kraus, H. Kruse, R. Di Remigio,
    A. Alenaizan, A. M. James, S. Lehtola, J. P. Misiewicz, M. Scheurer,
    R. A. Shaw, J. B. Schriber, Y. Xie, Z. L. Glick, D. A. Sirianni,
    J. S. O'Brien, J. M. Waldrop, A. Kumar, E. G. Hohenstein,
    B. P. Pritchard, B. R. Brooks, H. F. Schaefer III, A. Yu. Sokolov,
    K. Patkowski, A. E. DePrince III, U. Bozkaya, R. A. King,
    F. A. Evangelista, J. M. Turney, T. D. Crawford, C. D. Sherrill,
    J. Chem. Phys. 152(18) 184108 (2020). https://doi.org/10.1063/5.0006002

                            Additional Code Authors
    E. T. Seidl, C. L. Janssen, E. F. Valeev, M. L. Leininger,
    J. F. Gonthier, R. M. Richard, H. R. McAlexander, M. Saitow, X. Wang,
    P. Verma, M. H. Lechner, A. Jiang, S. Behnle, A. G. Heide,
    M. F. Herbst, and D. L. Poole

             Previous Authors, Complete List of Code Contributors,
                       and Citations for Specific Modules
    https://github.com/psi4/psi4/blob/master/codemeta.json
    https://github.com/psi4/psi4/graphs/contributors
    http://psicode.org/psi4manual/master/introduction.html#citing-psifour

    -----------------------------------------------------------------------


    Psi4 started on: Wednesday, 24 January 2024 04:53AM

    Process ID: 1192779
    Host:       moses-razer
    PSIDATADIR: /home/kchung25/anaconda3/envs/psi4_19/share/psi4
    Memory:     55.9 GiB
    Threads:    6
    
  ==> Input QCSchema <==

--------------------------------------------------------------------------
{'driver': 'energy',
 'extras': {'psiapi': True, 'wfn_qcvars_only': True},
 'id': None,
 'keywords': {'SCF_TYPE': 'DF', 'function_kwargs': {}},
 'model': {'basis': 'aug-cc-pvtz', 'method': 'mp2'},
 'molecule': {'atom_labels': ['', '', '', '', '', '', ''],
              'atomic_numbers': [19, 8, 1, 1, 8, 1, 1],
              'extras': {},
              'fix_com': True,
              'fix_orientation': True,
              'fix_symmetry': 'c1',
              'fragment_charges': [1.0, 0.0, 0.0],
              'fragment_multiplicities': [1, 1, 1],
              'fragments': [[0], [1, 2, 3], [4, 5, 6]],
              'geometry': [0.0, 0.0, 0.0, 6.203505997251187, 0.0, 0.0, 7.324434843089007, 1.428466654947078, 0.0,
                           7.324434843089007, -1.428466654947078, 0.0, -6.203505997251187, 0.0, 0.0, -7.324434843089007,
                           -1.428466654947078, 0.0, -7.324434843089007, 1.428466654947078, 0.0],
              'mass_numbers': [39, 16, 1, 1, 16, 1, 1],
              'masses': [38.9637064864, 15.99491461957, 1.00782503223, 1.00782503223, 15.99491461957, 1.00782503223,
                         1.00782503223],
              'molecular_charge': 1.0,
              'molecular_multiplicity': 1,
              'name': 'dimer',
              'provenance': {'creator': 'QCElemental',
                             'routine': 'qcelemental.molparse.from_string',
                             'version': '0.27.1'},
              'real': [True, False, False, False, True, True, True],
              'schema_name': 'qcschema_molecule',
              'schema_version': 2,
              'symbols': ['K', 'O', 'H', 'H', 'O', 'H', 'H'],
              'validated': True},
 'protocols': {'stdout': True},
 'provenance': {'creator': 'QCElemental', 'routine': 'qcelemental.models.results', 'version': '0.27.1'},
 'schema_name': 'qcschema_input',
 'schema_version': 1}
--------------------------------------------------------------------------

Scratch directory: /scratch/
   => Libint2 <=

    Primary   basis highest AM E, G, H:  5, 4, 3
    Auxiliary basis highest AM E, G, H:  6, 5, 4
    Onebody   basis highest AM E, G, H:  6, 5, 4
    Solid Harmonics ordering:            gaussian

*** tstart() called on moses-razer
*** at Wed Jan 24 04:54:09 2024

   => Loading Basis Set <=

    Name: AUG-CC-PVTZ
    Role: ORBITAL
    Keyword: BASIS
    atoms 1        entry K          line  1152 file /home/kchung25/anaconda3/envs/p415env/share/psi4/basis/aug-cc-pvtz.gbs 
    atoms 2, 5     entry O          line   331 file /home/kchung25/anaconda3/envs/p415env/share/psi4/basis/aug-cc-pvtz.gbs 
    atoms 3-4, 6-7 entry H          line    40 file /home/kchung25/anaconda3/envs/p415env/share/psi4/basis/aug-cc-pvtz.gbs 


         ---------------------------------------------------------
                                   SCF
               by Justin Turney, Rob Parrish, Andy Simmonett
                          and Daniel G. A. Smith
                              RHF Reference
                        6 Threads,  57220 MiB Core
         ---------------------------------------------------------

  ==> Geometry <==

    Molecular point group: c1
    Full point group: C2v

    Geometry (in Bohr), charge = 1, multiplicity = 1:

       Center              X                  Y                   Z               Mass       
    ------------   -----------------  -----------------  -----------------  -----------------
         K            0.000000000000     0.000000000000     0.000000000000    38.963706486400
      Gh(O)           6.203505997251     0.000000000000     0.000000000000    15.994914619570
      Gh(H)           7.324434843089     1.428466654947     0.000000000000     1.007825032230
      Gh(H)           7.324434843089    -1.428466654947     0.000000000000     1.007825032230
         O           -6.203505997251     0.000000000000     0.000000000000    15.994914619570
         H           -7.324434843089    -1.428466654947     0.000000000000     1.007825032230
         H           -7.324434843089     1.428466654947     0.000000000000     1.007825032230

  Running in c1 symmetry.

  Rotational constants: A =      7.31828  B =      0.04159  C =      0.04136 [cm^-1]
  Rotational constants: A = 219396.44560  B =   1246.92908  C =   1239.88227 [MHz]
  Nuclear repulsion =   38.756192498930453

  Charge       = 1
  Multiplicity = 1
  Electrons    = 28
  Nalpha       = 14
  Nbeta        = 14

  ==> Algorithm <==

  SCF Algorithm Type is DF.
  DIIS enabled.
  MOM disabled.
  Fractional occupation disabled.
  Guess Type is SAD.
  Energy threshold   = 1.00e-08
  Density threshold  = 1.00e-08
  Integral threshold = 1.00e-12

  ==> Primary Basis <==

  Basis Set: AUG-CC-PVTZ
    Blend: AUG-CC-PVTZ
    Number of shells: 83
    Number of basis functions: 243
    Number of Cartesian functions: 279
    Spherical Harmonics?: true
    Max angular momentum: 3

   => Loading Basis Set <=

    Name: (AUG-CC-PVTZ AUX)
    Role: JKFIT
    Keyword: DF_BASIS_SCF
    atoms 1        entry K          line  1152 file /home/kchung25/anaconda3/envs/p415env/share/psi4/basis/def2-universal-jkfit.gbs 
    atoms 2, 5     entry O          line   286 file /home/kchung25/anaconda3/envs/p415env/share/psi4/basis/aug-cc-pvtz-jkfit.gbs 
    atoms 3-4, 6-7 entry H          line    70 file /home/kchung25/anaconda3/envs/p415env/share/psi4/basis/aug-cc-pvtz-jkfit.gbs 

  ==> Integral Setup <==

  DFHelper Memory: AOs need 0.219 GiB; user supplied 41.910 GiB. 
  Using in-core AOs.

  ==> MemDFJK: Density-Fitted J/K Matrices <==

    J tasked:                   Yes
    K tasked:                   Yes
    wK tasked:                   No
    OpenMP threads:               6
    Memory [MiB]:             42915
    Algorithm:                 Core
    Schwarz Cutoff:           1E-12
    Mask sparsity (%):      16.6235
    Fitting Condition:        1E-10

   => Auxiliary Basis Set <=

  Basis Set: (AUG-CC-PVTZ AUX)
    Blend: AUG-CC-PVTZ-JKFIT + DEF2-UNIVERSAL-JKFIT
    Number of shells: 160
    Number of basis functions: 552
    Number of Cartesian functions: 685
    Spherical Harmonics?: true
    Max angular momentum: 4

  Minimum eigenvalue in the overlap matrix is 1.2904558526E-04.
  Reciprocal condition number of the overlap matrix is 1.4747968638E-05.
    Using symmetric orthogonalization.

  ==> Pre-Iterations <==

  SCF Guess: Superposition of Atomic Densities via on-the-fly atomic UHF (no occupation information).

   -------------------------
    Irrep   Nso     Nmo    
   -------------------------
     A        243     243 
   -------------------------
    Total     243     243
   -------------------------

  ==> Iterations <==

                           Total Energy        Delta E     RMS |[F,P]|

   @DF-RHF iter SAD:  -674.54346075149203   -6.74543e+02   0.00000e+00 
   @DF-RHF iter   1:  -675.01484727533875   -4.71387e-01   1.94163e-03 ADIIS/DIIS
   @DF-RHF iter   2:  -675.06814194447315   -5.32947e-02   1.29860e-03 ADIIS/DIIS
   @DF-RHF iter   3:  -675.09863937058890   -3.04974e-02   8.95539e-05 DIIS
   @DF-RHF iter   4:  -675.09901529279762   -3.75922e-04   2.08801e-05 DIIS
   @DF-RHF iter   5:  -675.09903736920603   -2.20764e-05   4.59482e-06 DIIS
   @DF-RHF iter   6:  -675.09903900750066   -1.63829e-06   9.76534e-07 DIIS
   @DF-RHF iter   7:  -675.09903908815431   -8.06536e-08   1.94450e-07 DIIS
   @DF-RHF iter   8:  -675.09903909088007   -2.72576e-09   4.16537e-08 DIIS
   @DF-RHF iter   9:  -675.09903909098307   -1.03000e-10   6.98112e-09 DIIS
  Energy and wave function converged.


  ==> Post-Iterations <==

    Orbital Energies [Eh]
    ---------------------

    Doubly Occupied:                                                      

       1A   -133.728435     2A    -20.719411     3A    -14.684034  
       4A    -11.714113     5A    -11.714105     6A    -11.714034  
       7A     -1.939612     8A     -1.504065     9A     -1.147036  
      10A     -1.146836    11A     -1.145044    12A     -0.865792  
      13A     -0.746529    14A     -0.664012  

    Virtual:                                                              

      15A     -0.129808    16A     -0.086903    17A     -0.085142  
      18A     -0.082549    19A     -0.059248    20A     -0.054102  
      21A     -0.053186    22A     -0.052671    23A     -0.052665  
      24A     -0.051340    25A     -0.043035    26A     -0.042330  
      27A     -0.040446    28A     -0.028137    29A     -0.028075  
      30A     -0.028016    31A     -0.027158    32A     -0.026524  
      33A     -0.018523    34A     -0.017793    35A     -0.012875  
      36A     -0.011988    37A     -0.010448    38A     -0.005903  
      39A      0.011269    40A      0.013301    41A      0.020577  
      42A      0.021848    43A      0.022843    44A      0.023199  
      45A      0.023261    46A      0.027475    47A      0.030784  
      48A      0.030833    49A      0.037648    50A      0.037831  
      51A      0.067303    52A      0.067845    53A      0.095606  
      54A      0.102700    55A      0.103793    56A      0.109301  
      57A      0.113978    58A      0.114745    59A      0.121916  
      60A      0.131791    61A      0.150298    62A      0.154096  
      63A      0.166335    64A      0.195380    65A      0.207357  
      66A      0.212554    67A      0.225504    68A      0.233506  
      69A      0.233886    70A      0.241825    71A      0.242399  
      72A      0.243342    73A      0.246799    74A      0.250299  
      75A      0.251908    76A      0.252077    77A      0.254192  
      78A      0.276563    79A      0.277852    80A      0.289363  
      81A      0.298649    82A      0.307206    83A      0.309772  
      84A      0.317830    85A      0.336560    86A      0.347288  
      87A      0.350163    88A      0.359643    89A      0.360036  
      90A      0.378538    91A      0.400715    92A      0.528645  
      93A      0.561393    94A      0.562719    95A      0.578319  
      96A      0.600777    97A      0.640828    98A      0.652471  
      99A      0.687199   100A      0.688456   101A      0.696388  
     102A      0.722081   103A      0.729606   104A      0.739384  
     105A      0.748885   106A      0.798238   107A      0.803936  
     108A      0.804917   109A      0.813728   110A      0.817793  
     111A      0.838555   112A      0.887025   113A      0.888766  
     114A      0.894555   115A      0.896741   116A      0.924544  
     117A      0.933504   118A      0.936902   119A      0.942291  
     120A      0.960410   121A      0.998159   122A      1.003259  
     123A      1.019826   124A      1.049102   125A      1.052415  
     126A      1.054186   127A      1.094202   128A      1.097297  
     129A      1.111727   130A      1.170085   131A      1.173037  
     132A      1.341137   133A      1.381714   134A      1.388805  
     135A      1.465601   136A      1.465854   137A      1.577525  
     138A      1.609129   139A      1.613698   140A      1.707554  
     141A      1.725829   142A      1.743175   143A      1.756470  
     144A      1.849254   145A      1.947993   146A      1.983591  
     147A      2.130418   148A      2.160294   149A      2.208995  
     150A      2.219994   151A      2.251196   152A      2.266162  
     153A      2.311838   154A      2.357110   155A      2.374052  
     156A      2.387542   157A      2.390513   158A      2.394396  
     159A      2.413704   160A      2.427109   161A      2.557830  
     162A      2.581904   163A      2.616512   164A      2.659480  
     165A      2.704819   166A      2.713945   167A      2.743315  
     168A      3.041938   169A      3.050300   170A      3.082090  
     171A      3.169999   172A      3.208237   173A      3.409226  
     174A      3.539691   175A      3.583205   176A      3.616547  
     177A      3.878360   178A      3.964029   179A      4.051006  
     180A      4.111667   181A      4.139731   182A      4.226768  
     183A      4.248454   184A      4.258642   185A      4.288431  
     186A      4.347415   187A      4.370464   188A      4.386077  
     189A      4.467639   190A      4.542792   191A      4.556883  
     192A      4.639368   193A      4.708509   194A      4.754717  
     195A      4.766039   196A      4.770244   197A      5.001781  
     198A      5.013072   199A      5.076302   200A      5.105625  
     201A      5.186313   202A      5.378924   203A      5.417504  
     204A      5.478625   205A      5.508756   206A      5.540840  
     207A      5.703415   208A      5.959931   209A      6.082589  
     210A      6.252444   211A      6.410457   212A      6.482014  
     213A      6.560310   214A      6.761504   215A      6.932175  
     216A      6.998147   217A      7.143487   218A      7.152364  
     219A      7.165705   220A      7.213526   221A      7.250458  
     222A      7.399852   223A      7.510291   224A      7.672119  
     225A      7.757463   226A      7.780039   227A      7.907935  
     228A      8.007245   229A      8.129875   230A      8.580772  
     231A      8.673551   232A      8.683611   233A      9.564796  
     234A      9.713889   235A      9.838569   236A     10.080374  
     237A     11.088384   238A     11.465270   239A     11.959256  
     240A     13.366256   241A     13.668493   242A     15.640380  
     243A     64.429266  

    Final Occupation by Irrep:
              A 
    DOCC [    14 ]
    NA   [    14 ]
    NB   [    14 ]

  @DF-RHF Final Energy:  -675.09903909098307

   => Energetics <=

    Nuclear Repulsion Energy =             38.7561924989304529
    One-Electron Energy =               -1000.8443464713701587
    Two-Electron Energy =                 286.9891148814566577
    Total Energy =                       -675.0990390909830694

Computation Completed


Properties will be evaluated at   0.000000,   0.000000,   0.000000 [a0]

Properties computed using the SCF density matrix


 Multipole Moments:

 ------------------------------------------------------------------------------------
     Multipole            Electronic (a.u.)      Nuclear  (a.u.)        Total (a.u.)
 ------------------------------------------------------------------------------------

 L = 1.  Multiply by 2.5417464519 to convert [e a0] to [Debye]
 Dipole X            :         63.2470159          -64.2769177           -1.0299017
 Dipole Y            :          0.0000000            0.0000000            0.0000000
 Dipole Z            :          0.0000000            0.0000000            0.0000000
 Magnitude           :                                                    1.0299017

[...]
    https://github.com/psi4/psi4/graphs/contributors
    http://psicode.org/psi4manual/master/introduction.html#citing-psifour

    -----------------------------------------------------------------------


    Psi4 started on: Wednesday, 24 January 2024 04:53AM

    Process ID: 1192779
    Host:       moses-razer
    PSIDATADIR: /home/kchung25/anaconda3/envs/psi4_19/share/psi4
    Memory:     55.9 GiB
    Threads:    6
    
  ==> Input QCSchema <==

--------------------------------------------------------------------------
{'driver': 'energy',
 'extras': {'psiapi': True, 'wfn_qcvars_only': True},
 'id': None,
 'keywords': {'SCF_TYPE': 'DF', 'function_kwargs': {}},
 'model': {'basis': 'aug-cc-pvtz', 'method': 'mp2'},
 'molecule': {'atom_labels': ['', '', '', '', '', '', ''],
              'atomic_numbers': [19, 8, 1, 1, 8, 1, 1],
              'extras': {},
              'fix_com': True,
              'fix_orientation': True,
              'fix_symmetry': 'c1',
              'fragment_charges': [1.0, 0.0, 0.0],
              'fragment_multiplicities': [1, 1, 1],
              'fragments': [[0], [1, 2, 3], [4, 5, 6]],
              'geometry': [0.0, 0.0, 0.0, 6.203505997251187, 0.0, 0.0, 7.324434843089007, 1.428466654947078, 0.0,
                           7.324434843089007, -1.428466654947078, 0.0, -6.203505997251187, 0.0, 0.0, -7.324434843089007,
                           -1.428466654947078, 0.0, -7.324434843089007, 1.428466654947078, 0.0],
              'mass_numbers': [39, 16, 1, 1, 16, 1, 1],
              'masses': [38.9637064864, 15.99491461957, 1.00782503223, 1.00782503223, 15.99491461957, 1.00782503223,
                         1.00782503223],
              'molecular_charge': 1.0,
              'molecular_multiplicity': 1,
              'name': 'dimer',
              'provenance': {'creator': 'QCElemental',
                             'routine': 'qcelemental.molparse.from_string',
                             'version': '0.27.1'},
              'real': [True, True, True, True, True, True, True],
              'schema_name': 'qcschema_molecule',
              'schema_version': 2,
              'symbols': ['K', 'O', 'H', 'H', 'O', 'H', 'H'],
              'validated': True},
 'protocols': {'stdout': True},
 'provenance': {'creator': 'QCElemental', 'routine': 'qcelemental.models.results', 'version': '0.27.1'},
 'schema_name': 'qcschema_input',
 'schema_version': 1}
--------------------------------------------------------------------------

Scratch directory: /scratch/
   => Libint2 <=

    Primary   basis highest AM E, G, H:  5, 4, 3
    Auxiliary basis highest AM E, G, H:  6, 5, 4
    Onebody   basis highest AM E, G, H:  6, 5, 4
    Solid Harmonics ordering:            gaussian

*** tstart() called on moses-razer
*** at Wed Jan 24 04:54:43 2024

   => Loading Basis Set <=

    Name: AUG-CC-PVTZ
    Role: ORBITAL
    Keyword: BASIS
    atoms 1        entry K          line  1152 file /home/kchung25/anaconda3/envs/p415env/share/psi4/basis/aug-cc-pvtz.gbs 
    atoms 2, 5     entry O          line   331 file /home/kchung25/anaconda3/envs/p415env/share/psi4/basis/aug-cc-pvtz.gbs 
    atoms 3-4, 6-7 entry H          line    40 file /home/kchung25/anaconda3/envs/p415env/share/psi4/basis/aug-cc-pvtz.gbs 


         ---------------------------------------------------------
                                   SCF
               by Justin Turney, Rob Parrish, Andy Simmonett
                          and Daniel G. A. Smith
                              RHF Reference
                        6 Threads,  57220 MiB Core
         ---------------------------------------------------------

  ==> Geometry <==

    Molecular point group: c1
    Full point group: D2h

    Geometry (in Bohr), charge = 1, multiplicity = 1:

       Center              X                  Y                   Z               Mass       
    ------------   -----------------  -----------------  -----------------  -----------------
         K            0.000000000000     0.000000000000     0.000000000000    38.963706486400
         O            6.203505997251     0.000000000000     0.000000000000    15.994914619570
         H            7.324434843089     1.428466654947     0.000000000000     1.007825032230
         H            7.324434843089    -1.428466654947     0.000000000000     1.007825032230
         O           -6.203505997251     0.000000000000     0.000000000000    15.994914619570
         H           -7.324434843089    -1.428466654947     0.000000000000     1.007825032230
         H           -7.324434843089     1.428466654947     0.000000000000     1.007825032230

  Running in c1 symmetry.

  Rotational constants: A =      7.31828  B =      0.04159  C =      0.04136 [cm^-1]
  Rotational constants: A = 219396.44560  B =   1246.92908  C =   1239.88227 [MHz]
  Nuclear repulsion =   85.293688510160166

  Charge       = 1
  Multiplicity = 1
  Electrons    = 38
  Nalpha       = 19
  Nbeta        = 19

  ==> Algorithm <==

  SCF Algorithm Type is DF.
  DIIS enabled.
  MOM disabled.
  Fractional occupation disabled.
  Guess Type is SAD.
  Energy threshold   = 1.00e-08
  Density threshold  = 1.00e-08
  Integral threshold = 1.00e-12

  ==> Primary Basis <==

  Basis Set: AUG-CC-PVTZ
    Blend: AUG-CC-PVTZ
    Number of shells: 83
    Number of basis functions: 243
    Number of Cartesian functions: 279
    Spherical Harmonics?: true
    Max angular momentum: 3

   => Loading Basis Set <=

    Name: (AUG-CC-PVTZ AUX)
    Role: JKFIT
    Keyword: DF_BASIS_SCF
    atoms 1        entry K          line  1152 file /home/kchung25/anaconda3/envs/p415env/share/psi4/basis/def2-universal-jkfit.gbs 
    atoms 2, 5     entry O          line   286 file /home/kchung25/anaconda3/envs/p415env/share/psi4/basis/aug-cc-pvtz-jkfit.gbs 
    atoms 3-4, 6-7 entry H          line    70 file /home/kchung25/anaconda3/envs/p415env/share/psi4/basis/aug-cc-pvtz-jkfit.gbs 

  ==> Integral Setup <==

  DFHelper Memory: AOs need 0.219 GiB; user supplied 41.910 GiB. 
  Using in-core AOs.

  ==> MemDFJK: Density-Fitted J/K Matrices <==

    J tasked:                   Yes
    K tasked:                   Yes
    wK tasked:                   No
    OpenMP threads:               6
    Memory [MiB]:             42915
    Algorithm:                 Core
    Schwarz Cutoff:           1E-12
    Mask sparsity (%):      16.6235
    Fitting Condition:        1E-10

   => Auxiliary Basis Set <=

  Basis Set: (AUG-CC-PVTZ AUX)
    Blend: AUG-CC-PVTZ-JKFIT + DEF2-UNIVERSAL-JKFIT
    Number of shells: 160
    Number of basis functions: 552
    Number of Cartesian functions: 685
    Spherical Harmonics?: true
    Max angular momentum: 4

  Minimum eigenvalue in the overlap matrix is 1.2904558526E-04.
  Reciprocal condition number of the overlap matrix is 1.4747968638E-05.
    Using symmetric orthogonalization.

  ==> Pre-Iterations <==

  SCF Guess: Superposition of Atomic Densities via on-the-fly atomic UHF (no occupation information).

   -------------------------
    Irrep   Nso     Nmo    
   -------------------------
     A        243     243 
   -------------------------
    Total     243     243
   -------------------------

  ==> Iterations <==

                           Total Energy        Delta E     RMS |[F,P]|

   @DF-RHF iter SAD:  -750.03509380007506   -7.50035e+02   0.00000e+00 
   @DF-RHF iter   1:  -751.01049383187330   -9.75400e-01   2.74822e-03 ADIIS/DIIS
   @DF-RHF iter   2:  -751.11730635709125   -1.06813e-01   1.83977e-03 ADIIS/DIIS
   @DF-RHF iter   3:  -751.17851692101885   -6.12106e-02   1.27298e-04 ADIIS/DIIS
   @DF-RHF iter   4:  -751.17927279595256   -7.55875e-04   2.96061e-05 DIIS
   @DF-RHF iter   5:  -751.17931744722432   -4.46513e-05   6.49299e-06 DIIS
   @DF-RHF iter   6:  -751.17932076084242   -3.31362e-06   1.35792e-06 DIIS
   @DF-RHF iter   7:  -751.17932091990770   -1.59065e-07   2.37510e-07 DIIS
   @DF-RHF iter   8:  -751.17932092411911   -4.21142e-09   3.66647e-08 DIIS
   @DF-RHF iter   9:  -751.17932092419323   -7.41238e-11   7.91676e-09 DIIS
  Energy and wave function converged.


  ==> Post-Iterations <==

    Orbital Energies [Eh]
    ---------------------

    Doubly Occupied:                                                      

       1A   -133.703753     2A    -20.712568     3A    -20.712568  
       4A    -14.659492     5A    -11.689592     6A    -11.689576  
       7A    -11.689428     8A     -1.915449     9A     -1.497268  
      10A     -1.497250    11A     -1.123712    12A     -1.123315  
      13A     -1.119743    14A     -0.859006    15A     -0.858998  
      16A     -0.739801    17A     -0.738802    18A     -0.657119  
      19A     -0.657081  

    Virtual:                                                              

      20A     -0.112064    21A     -0.079221    22A     -0.075447  
      23A     -0.074012    24A     -0.058910    25A     -0.051189  
      26A     -0.048684    27A     -0.048675    28A     -0.047222  
      29A     -0.046916    30A     -0.041464    31A     -0.040026  
      32A     -0.037749    33A     -0.025108    34A     -0.024909  
      35A     -0.024446    36A     -0.022020    37A     -0.020969  
      38A     -0.019264    39A     -0.018793    40A     -0.009055  
      41A     -0.007801    42A     -0.001956    43A      0.001001  
      44A      0.006671    45A      0.012496    46A      0.025802  
      47A      0.026937    48A      0.029238    49A      0.029270  
      50A      0.040479    51A      0.041325    52A      0.042126  
      53A      0.042154    54A      0.050042    55A      0.073431  
      56A      0.073620    57A      0.074890    58A      0.105170  
      59A      0.109827    60A      0.118791    61A      0.119315  
      62A      0.119366    63A      0.125204    64A      0.126375  
      65A      0.133036    66A      0.143201    67A      0.162703  
      68A      0.162914    69A      0.181448    70A      0.199445  
      71A      0.210072    72A      0.222102    73A      0.229506  
      74A      0.248012    75A      0.257036    76A      0.257249  
      77A      0.261297    78A      0.261496    79A      0.264775  
      80A      0.264939    81A      0.268813    82A      0.277871  
      83A      0.285466    84A      0.286149    85A      0.288697  
      86A      0.305739    87A      0.315417    88A      0.319790  
      89A      0.348792    90A      0.348839    91A      0.356159  
      92A      0.362786    93A      0.367779    94A      0.383162  
      95A      0.389753    96A      0.412475    97A      0.492814  
      98A      0.566656    99A      0.597007   100A      0.600191  
     101A      0.600512   102A      0.610357   103A      0.620397  
     104A      0.670224   105A      0.676154   106A      0.727723  
     107A      0.733340   108A      0.734092   109A      0.746481  
     110A      0.767875   111A      0.789380   112A      0.807160  
     113A      0.809070   114A      0.814474   115A      0.839039  
     116A      0.843746   117A      0.850873   118A      0.873190  
     119A      0.916578   120A      0.925554   121A      0.930055  
     122A      0.931710   123A      0.944371   124A      0.944893  
     125A      0.958568   126A      0.996863   127A      1.003773  
     128A      1.028604   129A      1.033697   130A      1.050881  
     131A      1.059779   132A      1.068492   133A      1.075143  
     134A      1.115768   135A      1.122182   136A      1.146439  
     137A      1.220434   138A      1.380180   139A      1.411717  
     140A      1.456502   141A      1.463682   142A      1.479004  
     143A      1.488620   144A      1.706512   145A      1.720491  
     146A      1.724120   147A      1.773356   148A      1.853773  
     149A      1.857188   150A      1.988270   151A      1.991728  
     152A      2.123988   153A      2.156520   154A      2.165961  
     155A      2.168892   156A      2.205588   157A      2.231513  
     158A      2.269846   159A      2.276614   160A      2.308008  
     161A      2.327697   162A      2.347401   163A      2.378282  
     164A      2.383245   165A      2.488382   166A      2.547592  
     167A      2.575641   168A      2.580817   169A      2.595136  
     170A      2.663954   171A      2.670178   172A      2.686807  
     173A      2.741655   174A      2.744458   175A      2.755617  
     176A      3.566821   177A      3.608188   178A      3.609659  
     179A      3.637509   180A      3.883885   181A      3.885486  
     182A      3.957468   183A      3.983108   184A      4.047400  
     185A      4.067869   186A      4.117514   187A      4.119133  
     188A      4.144421   189A      4.148055   190A      4.244311  
     191A      4.261932   192A      4.265784   193A      4.267852  
     194A      4.280097   195A      4.310528   196A      4.387673  
     197A      4.397323   198A      4.634140   199A      4.661128  
     200A      4.714398   201A      4.715344   202A      5.008062  
     203A      5.008667   204A      5.019225   205A      5.019555  
     206A      5.110030   207A      5.114264   208A      5.190681  
     209A      5.195094   210A      5.384320   211A      5.386775  
     212A      5.534003   213A      5.561587   214A      6.071680  
     215A      6.108276   216A      6.390581   217A      6.445228  
     218A      6.566222   219A      6.568360   220A      6.763649  
     221A      6.772894   222A      6.996874   223A      7.012752  
     224A      7.135785   225A      7.158127   226A      7.160302  
     227A      7.166251   228A      7.171383   229A      7.173892  
     230A      7.217647   231A      7.223052   232A      7.235250  
     233A      7.277681   234A      7.398032   235A      7.418085  
     236A      7.761533   237A      7.767402   238A      7.785308  
     239A      7.788696   240A      8.677248   241A      8.684162  
     242A     15.619810   243A     15.674188  

    Final Occupation by Irrep:
              A 
    DOCC [    19 ]
    NA   [    19 ]
    NB   [    19 ]

  @DF-RHF Final Energy:  -751.17932092419323

   => Energetics <=

    Nuclear Repulsion Energy =             85.2936885101601661
    One-Electron Energy =               -1197.6569735644072807
    Two-Electron Energy =                 361.1839641300539370
    Total Energy =                       -751.1793209241932345

Computation Completed


Properties will be evaluated at   0.000000,   0.000000,   0.000000 [a0]

Properties computed using the SCF density matrix


 Multipole Moments:

 ------------------------------------------------------------------------------------
     Multipole            Electronic (a.u.)      Nuclear  (a.u.)        Total (a.u.)
 ------------------------------------------------------------------------------------

 L = 1.  Multiply by 2.5417464519 to convert [e a0] to [Debye]
 Dipole X            :         -0.0000000           -0.0000000           -0.0000000
 Dipole Y            :          0.0000000            0.0000000            0.0000000
 Dipole Z            :         -0.0000000            0.0000000           -0.0000000
 Magnitude           :                                                    0.0000000

 ------------------------------------------------------------------------------------

*** tstop() called on moses-razer at Wed Jan 24 04:54:50 2024
Module time:
	user time   =      16.16 seconds =       0.27 minutes
	system time =       2.63 seconds =       0.04 minutes
	total time  =          7 seconds =       0.12 minutes
Total time:
	user time   =     144.51 seconds =       2.41 minutes
	system time =      20.49 seconds =       0.34 minutes
	total time  =         72 seconds =       1.20 minutes

*** tstart() called on moses-razer
*** at Wed Jan 24 04:54:50 2024


  //>>>>>>>>>>>>>>>>>>>>>>>>>>>>>>>>>>>//
  //               DFMP2               //
  //<<<<<<<<<<<<<<<<<<<<<<<<<<<<<<<<<<<//

   => Loading Basis Set <=

    Name: (AUG-CC-PVTZ AUX)
    Role: RIFIT
    Keyword: DF_BASIS_MP2
    atoms 1        entry K          line  1282 file /home/kchung25/anaconda3/envs/p415env/share/psi4/basis/def2-qzvpp-ri.gbs 
    atoms 2, 5     entry O          line   264 file /home/kchung25/anaconda3/envs/p415env/share/psi4/basis/aug-cc-pvtz-ri.gbs 
    atoms 3-4, 6-7 entry H          line    30 file /home/kchung25/anaconda3/envs/p415env/share/psi4/basis/aug-cc-pvtz-ri.gbs 

	 --------------------------------------------------------
	                          DF-MP2                         
	      2nd-Order Density-Fitted Moller-Plesset Theory     
	              RMP2 Wavefunction,   6 Threads             
	                                                         
	        Rob Parrish, Justin Turney, Andy Simmonett,      
	           Ed Hohenstein, and C. David Sherrill          
	 --------------------------------------------------------

   => Auxiliary Basis Set <=

  Basis Set: (AUG-CC-PVTZ AUX)
    Blend: AUG-CC-PVTZ-RI + DEF2-QZVPP-RI
    Number of shells: 161
    Number of basis functions: 595
    Number of Cartesian functions: 754
    Spherical Harmonics?: true
    Max angular momentum: 4

	 --------------------------------------------------------
	                 NBF =   243, NAUX =   595
	 --------------------------------------------------------
	   CLASS    FOCC     OCC    AOCC    AVIR     VIR    FVIR
	   PAIRS       0      19      19     224     224       0
	 --------------------------------------------------------

	-----------------------------------------------------------
	 ==================> DF-MP2 Energies <==================== 
	-----------------------------------------------------------
	 Reference Energy          =    -751.1793209241932345 [Eh]
	 Singles Energy            =      -0.0000000000000000 [Eh]
	 Same-Spin Energy          =      -0.1644957876059568 [Eh]
	 Opposite-Spin Energy      =      -0.4937813740349569 [Eh]
	 Correlation Energy        =      -0.6582771616409138 [Eh]
	 Total Energy              =    -751.8375980858342018 [Eh]
	-----------------------------------------------------------
	 ================> DF-SCS-MP2 Energies <================== 
	-----------------------------------------------------------
	 SCS Same-Spin Scale       =       0.3333333333333333 [-]
	 SCS Opposite-Spin Scale   =       1.2000000000000000 [-]
	 SCS Same-Spin Energy      =      -0.0548319292019856 [Eh]
	 SCS Opposite-Spin Energy  =      -0.5925376488419483 [Eh]
	 SCS Correlation Energy    =      -0.6473695780439339 [Eh]
	 SCS Total Energy          =    -751.8266905022371702 [Eh]
	-----------------------------------------------------------


*** tstop() called on moses-razer at Wed Jan 24 04:54:55 2024
Module time:
	user time   =       7.83 seconds =       0.13 minutes
	system time =       0.93 seconds =       0.02 minutes
	total time  =          5 seconds =       0.08 minutes
Total time:
	user time   =     152.35 seconds =       2.54 minutes
	system time =      21.42 seconds =       0.36 minutes
	total time  =         77 seconds =       1.28 minutes

    Psi4 stopped on: Wednesday, 24 January 2024 04:54AM
    Psi4 wall time for execution: 0:00:12.13


  //>>>>>>>>>>>>>>>>>>>>>>>>>>>>>>>>>>>//
  //          ManyBody Results         //
  //<<<<<<<<<<<<<<<<<<<<<<<<<<<<<<<<<<<//


   ==> N-Body: Counterpoise Corrected (CP) energies <==

        n-Body     Total Energy            Interaction Energy                          N-body Contribution to Interaction Energy
                   [Eh]                    [Eh]                  [kcal/mol]            [Eh]                  [kcal/mol]
             1  N/A                         0.000000000000        0.000000000000        0.000000000000        0.000000000000
             2  N/A                        -0.041341850414      -25.942402798582       -0.041341850414      -25.942402798582
  FULL/RTN   3  N/A                        -0.040673724155      -25.523147241076        0.000668126259        0.419255557506


    Psi4 stopped on: Wednesday, 24 January 2024 04:54AM
    Psi4 wall time for execution: 0:01:18.88

*** Psi4 exiting successfully. Buy a developer a beer!
