
    -----------------------------------------------------------------------
          Psi4: An Open-Source Ab Initio Electronic Structure Package
                               Psi4 1.9 release

                         Git: Rev {} zzzzzzz 


    D. G. A. Smith, L. A. Burns, A. C. Simmonett, R. M. Parrish,
    M. C. Schieber, R. Galvelis, P. Kraus, H. Kruse, R. Di Remigio,
    A. Alenaizan, A. M. James, S. Lehtola, J. P. Misiewicz, M. Scheurer,
    R. A. Shaw, J. B. Schriber, Y. Xie, Z. L. Glick, D. A. Sirianni,
    J. S. O'Brien, J. M. Waldrop, A. Kumar, E. G. Hohenstein,
    B. P. Pritchard, B. R. Brooks, H. F. Schaefer III, A. Yu. Sokolov,
    K. Patkowski, A. E. DePrince III, U. Bozkaya, R. A. King,
    F. A. Evangelista, J. M. Turney, T. D. Crawford, C. D. Sherrill,
    J. Chem. Phys. 152(18) 184108 (2020). https://doi.org/10.1063/5.0006002

                            Additional Code Authors
    E. T. Seidl, C. L. Janssen, E. F. Valeev, M. L. Leininger,
    J. F. Gonthier, R. M. Richard, H. R. McAlexander, M. Saitow, X. Wang,
    P. Verma, M. H. Lechner, A. Jiang, S. Behnle, A. G. Heide,
    M. F. Herbst, and D. L. Poole

             Previous Authors, Complete List of Code Contributors,
                       and Citations for Specific Modules
    https://github.com/psi4/psi4/blob/master/codemeta.json
    https://github.com/psi4/psi4/graphs/contributors
    http://psicode.org/psi4manual/master/introduction.html#citing-psifour

    -----------------------------------------------------------------------


    Psi4 started on: Wednesday, 24 January 2024 01:42PM

    Process ID: 1212019
    Host:       moses-razer
    PSIDATADIR: /home/kchung25/anaconda3/envs/psi4_19/share/psi4
    Memory:     500.0 MiB
    Threads:    6
    
  ==> Input File <==

--------------------------------------------------------------------------
MEMORY 60 GB

molecule dimer {
1 1
K          0.000000     0.000000     0.000000
O          3.030234     0.000000     0.000000
H          3.623405     0.755912     0.000000
H          3.623405    -0.755912     0.000000
O         -3.030234     0.000000     0.000000
H         -3.623405    -0.755912     0.000000
H         -3.623405     0.755912     0.000000

units ang
no_reorient
no_com
symmetry c1
}

set {
basis        aug-cc-pVTZ
scf_type     df
}

energy("mp2")
--------------------------------------------------------------------------

  Memory set to  55.879 GiB by Python driver.

Scratch directory: /scratch/
   => Libint2 <=

    Primary   basis highest AM E, G, H:  5, 4, 3
    Auxiliary basis highest AM E, G, H:  6, 5, 4
    Onebody   basis highest AM E, G, H:  6, 5, 4
    Solid Harmonics ordering:            gaussian

*** tstart() called on moses-razer
*** at Wed Jan 24 13:42:08 2024

   => Loading Basis Set <=

    Name: AUG-CC-PVTZ
    Role: ORBITAL
    Keyword: BASIS
    atoms 1        entry K          line  1152 file /home/kchung25/anaconda3/envs/p415env/share/psi4/basis/aug-cc-pvtz.gbs 
    atoms 2, 5     entry O          line   331 file /home/kchung25/anaconda3/envs/p415env/share/psi4/basis/aug-cc-pvtz.gbs 
    atoms 3-4, 6-7 entry H          line    40 file /home/kchung25/anaconda3/envs/p415env/share/psi4/basis/aug-cc-pvtz.gbs 


         ---------------------------------------------------------
                                   SCF
               by Justin Turney, Rob Parrish, Andy Simmonett
                          and Daniel G. A. Smith
                              RHF Reference
                        6 Threads,  57220 MiB Core
         ---------------------------------------------------------

  ==> Geometry <==

    Molecular point group: c1
    Full point group: D2h

    Geometry (in Angstrom), charge = 1, multiplicity = 1:

       Center              X                  Y                   Z               Mass       
    ------------   -----------------  -----------------  -----------------  -----------------
         K            0.000000000000     0.000000000000     0.000000000000    38.963706486400
         O            3.030234000000     0.000000000000     0.000000000000    15.994914619570
         H            3.623405000000     0.755912000000     0.000000000000     1.007825032230
         H            3.623405000000    -0.755912000000     0.000000000000     1.007825032230
         O           -3.030234000000     0.000000000000     0.000000000000    15.994914619570
         H           -3.623405000000    -0.755912000000     0.000000000000     1.007825032230
         H           -3.623405000000     0.755912000000     0.000000000000     1.007825032230

  Running in c1 symmetry.

  Rotational constants: A =      7.31828  B =      0.04863  C =      0.04831 [cm^-1]
  Rotational constants: A = 219396.44560  B =   1457.81852  C =   1448.19573 [MHz]
  Nuclear repulsion =   90.683183164096945

  Charge       = 1
  Multiplicity = 1
  Electrons    = 38
  Nalpha       = 19
  Nbeta        = 19

  ==> Algorithm <==

  SCF Algorithm Type is DF.
  DIIS enabled.
  MOM disabled.
  Fractional occupation disabled.
  Guess Type is SAD.
  Energy threshold   = 1.00e-08
  Density threshold  = 1.00e-08
  Integral threshold = 1.00e-12

  ==> Primary Basis <==

  Basis Set: AUG-CC-PVTZ
    Blend: AUG-CC-PVTZ
    Number of shells: 83
    Number of basis functions: 243
    Number of Cartesian functions: 279
    Spherical Harmonics?: true
    Max angular momentum: 3

   => Loading Basis Set <=

    Name: (AUG-CC-PVTZ AUX)
    Role: JKFIT
    Keyword: DF_BASIS_SCF
    atoms 1        entry K          line  1152 file /home/kchung25/anaconda3/envs/p415env/share/psi4/basis/def2-universal-jkfit.gbs 
    atoms 2, 5     entry O          line   286 file /home/kchung25/anaconda3/envs/p415env/share/psi4/basis/aug-cc-pvtz-jkfit.gbs 
    atoms 3-4, 6-7 entry H          line    70 file /home/kchung25/anaconda3/envs/p415env/share/psi4/basis/aug-cc-pvtz-jkfit.gbs 

  ==> Integral Setup <==

  DFHelper Memory: AOs need 0.225 GiB; user supplied 41.910 GiB. 
  Using in-core AOs.

  ==> MemDFJK: Density-Fitted J/K Matrices <==

    J tasked:                   Yes
    K tasked:                   Yes
    wK tasked:                   No
    OpenMP threads:               6
    Memory [MiB]:             42915
    Algorithm:                 Core
    Schwarz Cutoff:           1E-12
    Mask sparsity (%):      14.3440
    Fitting Condition:        1E-10

   => Auxiliary Basis Set <=

  Basis Set: (AUG-CC-PVTZ AUX)
    Blend: AUG-CC-PVTZ-JKFIT + DEF2-UNIVERSAL-JKFIT
    Number of shells: 160
    Number of basis functions: 552
    Number of Cartesian functions: 685
    Spherical Harmonics?: true
    Max angular momentum: 4

  Minimum eigenvalue in the overlap matrix is 1.0542725101E-04.
  Reciprocal condition number of the overlap matrix is 1.1828277023E-05.
    Using symmetric orthogonalization.

  ==> Pre-Iterations <==

  SCF Guess: Superposition of Atomic Densities via on-the-fly atomic UHF (no occupation information).

   -------------------------
    Irrep   Nso     Nmo    
   -------------------------
     A        243     243 
   -------------------------
    Total     243     243
   -------------------------

  ==> Iterations <==

                           Total Energy        Delta E     RMS |[F,P]|

   @DF-RHF iter SAD:  -750.04484069986108   -7.50045e+02   0.00000e+00 
   @DF-RHF iter   1:  -751.01484109613432   -9.70000e-01   2.76074e-03 ADIIS/DIIS
   @DF-RHF iter   2:  -751.12286600422874   -1.08025e-01   1.83947e-03 ADIIS/DIIS
   @DF-RHF iter   3:  -751.18397531109474   -6.11093e-02   1.27535e-04 ADIIS/DIIS
   @DF-RHF iter   4:  -751.18472765912361   -7.52348e-04   2.97233e-05 DIIS
   @DF-RHF iter   5:  -751.18477234294028   -4.46838e-05   6.46996e-06 DIIS
   @DF-RHF iter   6:  -751.18477560131919   -3.25838e-06   1.33394e-06 DIIS
   @DF-RHF iter   7:  -751.18477575322447   -1.51905e-07   2.33679e-07 DIIS
   @DF-RHF iter   8:  -751.18477575725740   -4.03293e-09   3.60320e-08 DIIS
   @DF-RHF iter   9:  -751.18477575732720   -6.98037e-11   7.54467e-09 DIIS
  Energy and wave function converged.


  ==> Post-Iterations <==

    Orbital Energies [Eh]
    ---------------------

    Doubly Occupied:                                                      

       1A   -133.693226     2A    -20.722113     3A    -20.722113  
       4A    -14.649214     5A    -11.679315     6A    -11.679291  
       7A    -11.679093     8A     -1.905925     9A     -1.507399  
      10A     -1.507332    11A     -1.114777    12A     -1.114213  
      13A     -1.110103    14A     -0.868883    15A     -0.868853  
      16A     -0.752118    17A     -0.749588    18A     -0.667358  
      19A     -0.667244  

    Virtual:                                                              

      20A     -0.109751    21A     -0.078707    22A     -0.075558  
      23A     -0.074381    24A     -0.059035    25A     -0.051688  
      26A     -0.048643    27A     -0.048629    28A     -0.047226  
      29A     -0.047001    30A     -0.041136    31A     -0.039552  
      32A     -0.037878    33A     -0.025088    34A     -0.024688  
      35A     -0.024441    36A     -0.023164    37A     -0.020720  
      38A     -0.018951    39A     -0.018264    40A     -0.008580  
      41A     -0.006975    42A     -0.002048    43A      0.001469  
      44A      0.008432    45A      0.015417    46A      0.024541  
      47A      0.025902    48A      0.029407    49A      0.029459  
      50A      0.035578    51A      0.044303    52A      0.044421  
      53A      0.044509    54A      0.056359    55A      0.074165  
      56A      0.074360    57A      0.076543    58A      0.106084  
      59A      0.108699    60A      0.117643    61A      0.121568  
      62A      0.126280    63A      0.128454    64A      0.128998  
      65A      0.138610    66A      0.157170    67A      0.161902  
      68A      0.168713    69A      0.185246    70A      0.197971  
      71A      0.201752    72A      0.223937    73A      0.236033  
      74A      0.237572    75A      0.249797    76A      0.255193  
      77A      0.264784    78A      0.266603    79A      0.268106  
      80A      0.268181    81A      0.268402    82A      0.270075  
      83A      0.273443    84A      0.283420    85A      0.287380  
      86A      0.309515    87A      0.317795    88A      0.319104  
      89A      0.354043    90A      0.356014    91A      0.357356  
      92A      0.361110    93A      0.365550    94A      0.397350  
      95A      0.404470    96A      0.451147    97A      0.497980  
      98A      0.556158    99A      0.590478   100A      0.609229  
     101A      0.610442   102A      0.615376   103A      0.623366  
     104A      0.683165   105A      0.685568   106A      0.718852  
     107A      0.734103   108A      0.737631   109A      0.741885  
     110A      0.755275   111A      0.805093   112A      0.820422  
     113A      0.823390   114A      0.848186   115A      0.848716  
     116A      0.848717   117A      0.864626   118A      0.878544  
     119A      0.923087   120A      0.928063   121A      0.931487  
     122A      0.944153   123A      0.952574   124A      0.956011  
     125A      0.965706   126A      0.994282   127A      1.008193  
     128A      1.026570   129A      1.044783   130A      1.054734  
     131A      1.060026   132A      1.079138   133A      1.119812  
     134A      1.145419   135A      1.155361   136A      1.183750  
     137A      1.208303   138A      1.373713   139A      1.418748  
     140A      1.455263   141A      1.466975   142A      1.483630  
     143A      1.504087   144A      1.702820   145A      1.716201  
     146A      1.727575   147A      1.777076   148A      1.846163  
     149A      1.853381   150A      1.985090   151A      1.985358  
     152A      2.118127   153A      2.155715   154A      2.157574  
     155A      2.160750   156A      2.205916   157A      2.226576  
     158A      2.257600   159A      2.263214   160A      2.304109  
     161A      2.342875   162A      2.355205   163A      2.387248  
     164A      2.395466   165A      2.521989   166A      2.547559  
     167A      2.571200   168A      2.577688   169A      2.603462  
     170A      2.649911   171A      2.674153   172A      2.683477  
     173A      2.725441   174A      2.735416   175A      2.749287  
     176A      3.567015   177A      3.601088   178A      3.609962  
     179A      3.638033   180A      3.875353   181A      3.878385  
     182A      3.948415   183A      3.991751   184A      4.028528  
     185A      4.060650   186A      4.110438   187A      4.111955  
     188A      4.136067   189A      4.140576   190A      4.237585  
     191A      4.253609   192A      4.262547   193A      4.269587  
     194A      4.278153   195A      4.306298   196A      4.380865  
     197A      4.390489   198A      4.626499   199A      4.663280  
     200A      4.706628   201A      4.710301   202A      4.998800  
     203A      4.999825   204A      5.011061   205A      5.011185  
     206A      5.100239   207A      5.104562   208A      5.185737  
     209A      5.187125   210A      5.375467   211A      5.378391  
     212A      5.537524   213A      5.565257   214A      6.069040  
     215A      6.109092   216A      6.393388   217A      6.443340  
     218A      6.555271   219A      6.559141   220A      6.753483  
     221A      6.768363   222A      6.987697   223A      7.002889  
     224A      7.133061   225A      7.148375   226A      7.150042  
     227A      7.161202   228A      7.164826   229A      7.174312  
     230A      7.208683   231A      7.215724   232A      7.224661  
     233A      7.285622   234A      7.390390   235A      7.422903  
     236A      7.752052   237A      7.758117   238A      7.775094  
     239A      7.779386   240A      8.669804   241A      8.674568  
     242A     15.619320   243A     15.695822  

    Final Occupation by Irrep:
              A 
    DOCC [    19 ]
    NA   [    19 ]
    NB   [    19 ]

  @DF-RHF Final Energy:  -751.18477575732720

   => Energetics <=

    Nuclear Repulsion Energy =             90.6831831640969455
    One-Electron Energy =               -1208.4195949543598090
    Two-Electron Energy =                 366.5516360329356189
    Total Energy =                       -751.1847757573270883

Computation Completed


Properties will be evaluated at   0.000000,   0.000000,   0.000000 [a0]

Properties computed using the SCF density matrix


 Multipole Moments:

 ------------------------------------------------------------------------------------
     Multipole            Electronic (a.u.)      Nuclear  (a.u.)        Total (a.u.)
 ------------------------------------------------------------------------------------

 L = 1.  Multiply by 2.5417464519 to convert [e a0] to [Debye]
 Dipole X            :         -0.0000000            0.0000000           -0.0000000
 Dipole Y            :         -0.0000000            0.0000000           -0.0000000
 Dipole Z            :          0.0000000            0.0000000            0.0000000
 Magnitude           :                                                    0.0000000

 ------------------------------------------------------------------------------------

*** tstop() called on moses-razer at Wed Jan 24 13:42:16 2024
Module time:
	user time   =      16.73 seconds =       0.28 minutes
	system time =       2.85 seconds =       0.05 minutes
	total time  =          8 seconds =       0.13 minutes
Total time:
	user time   =      16.73 seconds =       0.28 minutes
	system time =       2.85 seconds =       0.05 minutes
	total time  =          8 seconds =       0.13 minutes

*** tstart() called on moses-razer
*** at Wed Jan 24 13:42:16 2024


  //>>>>>>>>>>>>>>>>>>>>>>>>>>>>>>>>>>>//
  //               DFMP2               //
  //<<<<<<<<<<<<<<<<<<<<<<<<<<<<<<<<<<<//

   => Loading Basis Set <=

    Name: (AUG-CC-PVTZ AUX)
    Role: RIFIT
    Keyword: DF_BASIS_MP2
    atoms 1        entry K          line  1282 file /home/kchung25/anaconda3/envs/p415env/share/psi4/basis/def2-qzvpp-ri.gbs 
    atoms 2, 5     entry O          line   264 file /home/kchung25/anaconda3/envs/p415env/share/psi4/basis/aug-cc-pvtz-ri.gbs 
    atoms 3-4, 6-7 entry H          line    30 file /home/kchung25/anaconda3/envs/p415env/share/psi4/basis/aug-cc-pvtz-ri.gbs 

	 --------------------------------------------------------
	                          DF-MP2                         
	      2nd-Order Density-Fitted Moller-Plesset Theory     
	              RMP2 Wavefunction,   6 Threads             
	                                                         
	        Rob Parrish, Justin Turney, Andy Simmonett,      
	           Ed Hohenstein, and C. David Sherrill          
	 --------------------------------------------------------

   => Auxiliary Basis Set <=

  Basis Set: (AUG-CC-PVTZ AUX)
    Blend: AUG-CC-PVTZ-RI + DEF2-QZVPP-RI
    Number of shells: 161
    Number of basis functions: 595
    Number of Cartesian functions: 754
    Spherical Harmonics?: true
    Max angular momentum: 4

	 --------------------------------------------------------
	                 NBF =   243, NAUX =   595
	 --------------------------------------------------------
	   CLASS    FOCC     OCC    AOCC    AVIR     VIR    FVIR
	   PAIRS       0      19      19     224     224       0
	 --------------------------------------------------------

	-----------------------------------------------------------
	 ==================> DF-MP2 Energies <==================== 
	-----------------------------------------------------------
	 Reference Energy          =    -751.1847757573272020 [Eh]
	 Singles Energy            =      -0.0000000000000000 [Eh]
	 Same-Spin Energy          =      -0.1657632452386042 [Eh]
	 Opposite-Spin Energy      =      -0.4968351810310996 [Eh]
	 Correlation Energy        =      -0.6625984262697039 [Eh]
	 Total Energy              =    -751.8473741835969122 [Eh]
	-----------------------------------------------------------
	 ================> DF-SCS-MP2 Energies <================== 
	-----------------------------------------------------------
	 SCS Same-Spin Scale       =       0.3333333333333333 [-]
	 SCS Opposite-Spin Scale   =       1.2000000000000000 [-]
	 SCS Same-Spin Energy      =      -0.0552544150795347 [Eh]
	 SCS Opposite-Spin Energy  =      -0.5962022172373196 [Eh]
	 SCS Correlation Energy    =      -0.6514566323168544 [Eh]
	 SCS Total Energy          =    -751.8362323896440103 [Eh]
	-----------------------------------------------------------


*** tstop() called on moses-razer at Wed Jan 24 13:42:21 2024
Module time:
	user time   =       7.83 seconds =       0.13 minutes
	system time =       0.95 seconds =       0.02 minutes
	total time  =          5 seconds =       0.08 minutes
Total time:
	user time   =      24.57 seconds =       0.41 minutes
	system time =       3.80 seconds =       0.06 minutes
	total time  =         13 seconds =       0.22 minutes

    Psi4 stopped on: Wednesday, 24 January 2024 01:42PM
    Psi4 wall time for execution: 0:00:12.38

*** Psi4 exiting successfully. Buy a developer a beer!
