
    -----------------------------------------------------------------------
          Psi4: An Open-Source Ab Initio Electronic Structure Package
                               Psi4 1.9 release

                         Git: Rev {} zzzzzzz 


    D. G. A. Smith, L. A. Burns, A. C. Simmonett, R. M. Parrish,
    M. C. Schieber, R. Galvelis, P. Kraus, H. Kruse, R. Di Remigio,
    A. Alenaizan, A. M. James, S. Lehtola, J. P. Misiewicz, M. Scheurer,
    R. A. Shaw, J. B. Schriber, Y. Xie, Z. L. Glick, D. A. Sirianni,
    J. S. O'Brien, J. M. Waldrop, A. Kumar, E. G. Hohenstein,
    B. P. Pritchard, B. R. Brooks, H. F. Schaefer III, A. Yu. Sokolov,
    K. Patkowski, A. E. DePrince III, U. Bozkaya, R. A. King,
    F. A. Evangelista, J. M. Turney, T. D. Crawford, C. D. Sherrill,
    J. Chem. Phys. 152(18) 184108 (2020). https://doi.org/10.1063/5.0006002

                            Additional Code Authors
    E. T. Seidl, C. L. Janssen, E. F. Valeev, M. L. Leininger,
    J. F. Gonthier, R. M. Richard, H. R. McAlexander, M. Saitow, X. Wang,
    P. Verma, M. H. Lechner, A. Jiang, S. Behnle, A. G. Heide,
    M. F. Herbst, and D. L. Poole

             Previous Authors, Complete List of Code Contributors,
                       and Citations for Specific Modules
    https://github.com/psi4/psi4/blob/master/codemeta.json
    https://github.com/psi4/psi4/graphs/contributors
    http://psicode.org/psi4manual/master/introduction.html#citing-psifour

    -----------------------------------------------------------------------


    Psi4 started on: Wednesday, 24 January 2024 04:56AM

    Process ID: 1192903
    Host:       moses-razer
    PSIDATADIR: /home/kchung25/anaconda3/envs/psi4_19/share/psi4
    Memory:     500.0 MiB
    Threads:    6
    
  ==> Input File <==

--------------------------------------------------------------------------
MEMORY 60 GB

molecule dimer {
1 1
K      0.000000     0.000000     0.000000
--
0 1
O      3.787793     0.000000     0.000000
H      4.380964     0.755912     0.000000
H      4.380964    -0.755912     0.000000
--
0 1
O     -3.787793     0.000000     0.000000
H     -4.380964    -0.755912     0.000000
H     -4.380964     0.755912     0.000000

units ang
no_reorient
no_com
symmetry c1
}

set {
basis        aug-cc-pVTZ
scf_type     df
}

energy("mp2", bsse_type="cp")
--------------------------------------------------------------------------

  Memory set to  55.879 GiB by Python driver.

Scratch directory: /scratch/

  //>>>>>>>>>>>>>>>>>>>>>>>>>>>>>>>>>>>>>>>>//
  // ManyBody Setup: N-Body Levels [1, 2, 3]//
  //<<<<<<<<<<<<<<<<<<<<<<<<<<<<<<<<<<<<<<<<//

        Number of 1-body computations:     3
        Number of 2-body computations:     3
        Number of 3-body computations:     1

    -----------------------------------------------------------------------
          Psi4: An Open-Source Ab Initio Electronic Structure Package
                               Psi4 1.9 release

                         Git: Rev {} zzzzzzz 


    D. G. A. Smith, L. A. Burns, A. C. Simmonett, R. M. Parrish,
    M. C. Schieber, R. Galvelis, P. Kraus, H. Kruse, R. Di Remigio,
    A. Alenaizan, A. M. James, S. Lehtola, J. P. Misiewicz, M. Scheurer,
    R. A. Shaw, J. B. Schriber, Y. Xie, Z. L. Glick, D. A. Sirianni,
    J. S. O'Brien, J. M. Waldrop, A. Kumar, E. G. Hohenstein,
    B. P. Pritchard, B. R. Brooks, H. F. Schaefer III, A. Yu. Sokolov,
    K. Patkowski, A. E. DePrince III, U. Bozkaya, R. A. King,
    F. A. Evangelista, J. M. Turney, T. D. Crawford, C. D. Sherrill,
    J. Chem. Phys. 152(18) 184108 (2020). https://doi.org/10.1063/5.0006002

                            Additional Code Authors
    E. T. Seidl, C. L. Janssen, E. F. Valeev, M. L. Leininger,
    J. F. Gonthier, R. M. Richard, H. R. McAlexander, M. Saitow, X. Wang,
    P. Verma, M. H. Lechner, A. Jiang, S. Behnle, A. G. Heide,
    M. F. Herbst, and D. L. Poole

             Previous Authors, Complete List of Code Contributors,
                       and Citations for Specific Modules
    https://github.com/psi4/psi4/blob/master/codemeta.json
    https://github.com/psi4/psi4/graphs/contributors
    http://psicode.org/psi4manual/master/introduction.html#citing-psifour

    -----------------------------------------------------------------------


    Psi4 started on: Wednesday, 24 January 2024 04:56AM

    Process ID: 1192903
    Host:       moses-razer
    PSIDATADIR: /home/kchung25/anaconda3/envs/psi4_19/share/psi4
    Memory:     55.9 GiB
    Threads:    6
    
  ==> Input QCSchema <==

--------------------------------------------------------------------------
{'driver': 'energy',
 'extras': {'psiapi': True, 'wfn_qcvars_only': True},
 'id': None,
 'keywords': {'SCF_TYPE': 'DF', 'function_kwargs': {}},
 'model': {'basis': 'aug-cc-pvtz', 'method': 'mp2'},
 'molecule': {'atom_labels': ['', '', '', '', '', '', ''],
              'atomic_numbers': [19, 8, 1, 1, 8, 1, 1],
              'extras': {},
              'fix_com': True,
              'fix_orientation': True,
              'fix_symmetry': 'c1',
              'fragment_charges': [1.0, 0.0, 0.0],
              'fragment_multiplicities': [1, 1, 1],
              'fragments': [[0], [1, 2, 3], [4, 5, 6]],
              'geometry': [0.0, 0.0, 0.0, 7.1578913899262835, 0.0, 0.0, 8.278822125490228, 1.428466654947078, 0.0,
                           8.278822125490228, -1.428466654947078, 0.0, -7.1578913899262835, 0.0, 0.0,
                           -8.278822125490228, -1.428466654947078, 0.0, -8.278822125490228, 1.428466654947078, 0.0],
              'mass_numbers': [39, 16, 1, 1, 16, 1, 1],
              'masses': [38.9637064864, 15.99491461957, 1.00782503223, 1.00782503223, 15.99491461957, 1.00782503223,
                         1.00782503223],
              'molecular_charge': 1.0,
              'molecular_multiplicity': 1,
              'name': 'dimer',
              'provenance': {'creator': 'QCElemental',
                             'routine': 'qcelemental.molparse.from_string',
                             'version': '0.27.1'},
              'real': [True, False, False, False, False, False, False],
              'schema_name': 'qcschema_molecule',
              'schema_version': 2,
              'symbols': ['K', 'O', 'H', 'H', 'O', 'H', 'H'],
              'validated': True},
 'protocols': {'stdout': True},
 'provenance': {'creator': 'QCElemental', 'routine': 'qcelemental.models.results', 'version': '0.27.1'},
 'schema_name': 'qcschema_input',
 'schema_version': 1}
--------------------------------------------------------------------------

Scratch directory: /scratch/
   => Libint2 <=

    Primary   basis highest AM E, G, H:  5, 4, 3
    Auxiliary basis highest AM E, G, H:  6, 5, 4
    Onebody   basis highest AM E, G, H:  6, 5, 4
    Solid Harmonics ordering:            gaussian

*** tstart() called on moses-razer
*** at Wed Jan 24 04:56:16 2024

   => Loading Basis Set <=

    Name: AUG-CC-PVTZ
    Role: ORBITAL
    Keyword: BASIS
    atoms 1        entry K          line  1152 file /home/kchung25/anaconda3/envs/p415env/share/psi4/basis/aug-cc-pvtz.gbs 
    atoms 2, 5     entry O          line   331 file /home/kchung25/anaconda3/envs/p415env/share/psi4/basis/aug-cc-pvtz.gbs 
    atoms 3-4, 6-7 entry H          line    40 file /home/kchung25/anaconda3/envs/p415env/share/psi4/basis/aug-cc-pvtz.gbs 


         ---------------------------------------------------------
                                   SCF
               by Justin Turney, Rob Parrish, Andy Simmonett
                          and Daniel G. A. Smith
                              RHF Reference
                        6 Threads,  57220 MiB Core
         ---------------------------------------------------------

  ==> Geometry <==

    Molecular point group: c1
    Full point group: D2h

    Geometry (in Bohr), charge = 1, multiplicity = 1:

       Center              X                  Y                   Z               Mass       
    ------------   -----------------  -----------------  -----------------  -----------------
         K            0.000000000000     0.000000000000     0.000000000000    38.963706486400
      Gh(O)           7.157891389926     0.000000000000     0.000000000000    15.994914619570
      Gh(H)           8.278822125490     1.428466654947     0.000000000000     1.007825032230
      Gh(H)           8.278822125490    -1.428466654947     0.000000000000     1.007825032230
      Gh(O)          -7.157891389926     0.000000000000     0.000000000000    15.994914619570
      Gh(H)          -8.278822125490    -1.428466654947     0.000000000000     1.007825032230
      Gh(H)          -8.278822125490     1.428466654947     0.000000000000     1.007825032230

  Running in c1 symmetry.

  Rotational constants: A =      7.31828  B =      0.03143  C =      0.03130 [cm^-1]
  Rotational constants: A = 219396.44560  B =    942.26967  C =    938.24009 [MHz]
  Nuclear repulsion =    0.000000000000000

  Charge       = 1
  Multiplicity = 1
  Electrons    = 18
  Nalpha       = 9
  Nbeta        = 9

  ==> Algorithm <==

  SCF Algorithm Type is DF.
  DIIS enabled.
  MOM disabled.
  Fractional occupation disabled.
  Guess Type is SAD.
  Energy threshold   = 1.00e-08
  Density threshold  = 1.00e-08
  Integral threshold = 1.00e-12

  ==> Primary Basis <==

  Basis Set: AUG-CC-PVTZ
    Blend: AUG-CC-PVTZ
    Number of shells: 83
    Number of basis functions: 243
    Number of Cartesian functions: 279
    Spherical Harmonics?: true
    Max angular momentum: 3

   => Loading Basis Set <=

    Name: (AUG-CC-PVTZ AUX)
    Role: JKFIT
    Keyword: DF_BASIS_SCF
    atoms 1        entry K          line  1152 file /home/kchung25/anaconda3/envs/p415env/share/psi4/basis/def2-universal-jkfit.gbs 
    atoms 2, 5     entry O          line   286 file /home/kchung25/anaconda3/envs/p415env/share/psi4/basis/aug-cc-pvtz-jkfit.gbs 
    atoms 3-4, 6-7 entry H          line    70 file /home/kchung25/anaconda3/envs/p415env/share/psi4/basis/aug-cc-pvtz-jkfit.gbs 

  ==> Integral Setup <==

  DFHelper Memory: AOs need 0.213 GiB; user supplied 41.910 GiB. 
  Using in-core AOs.

  ==> MemDFJK: Density-Fitted J/K Matrices <==

    J tasked:                   Yes
    K tasked:                   Yes
    wK tasked:                   No
    OpenMP threads:               6
    Memory [MiB]:             42915
    Algorithm:                 Core
    Schwarz Cutoff:           1E-12
    Mask sparsity (%):      19.3568
    Fitting Condition:        1E-10

   => Auxiliary Basis Set <=

  Basis Set: (AUG-CC-PVTZ AUX)
    Blend: AUG-CC-PVTZ-JKFIT + DEF2-UNIVERSAL-JKFIT
    Number of shells: 160
    Number of basis functions: 552
    Number of Cartesian functions: 685
    Spherical Harmonics?: true
    Max angular momentum: 4

  Minimum eigenvalue in the overlap matrix is 1.6781603776E-04.
  Reciprocal condition number of the overlap matrix is 1.9858122790E-05.
    Using symmetric orthogonalization.

  ==> Pre-Iterations <==

  SCF Guess: Superposition of Atomic Densities via on-the-fly atomic UHF (no occupation information).

   -------------------------
    Irrep   Nso     Nmo    
   -------------------------
     A        243     243 
   -------------------------
    Total     243     243
   -------------------------

  ==> Iterations <==

                           Total Energy        Delta E     RMS |[F,P]|

   @DF-RHF iter SAD:  -599.05171820020257   -5.99052e+02   0.00000e+00 
   @DF-RHF iter   1:  -599.01748826311734    3.42299e-02   2.24895e-05 DIIS
   @DF-RHF iter   2:  -599.01750792779012   -1.96647e-05   3.24208e-06 DIIS
   @DF-RHF iter   3:  -599.01750840917634   -4.81386e-07   1.49468e-07 DIIS
   @DF-RHF iter   4:  -599.01750841019270   -1.01636e-09   1.19150e-08 DIIS
   @DF-RHF iter   5:  -599.01750841020123   -8.52651e-12   1.19604e-09 DIIS
  Energy and wave function converged.


  ==> Post-Iterations <==

    Orbital Energies [Eh]
    ---------------------

    Doubly Occupied:                                                      

       1A   -133.753680     2A    -14.709135     3A    -11.739202  
       4A    -11.739197     5A    -11.739197     6A     -1.964329  
       7A     -1.170960     8A     -1.170896     9A     -1.170894  

    Virtual:                                                              

      10A     -0.146972    11A     -0.095561    12A     -0.095552  
      13A     -0.095552    14A     -0.060534    15A     -0.057846  
      16A     -0.057792    17A     -0.057761    18A     -0.057719  
      19A     -0.057718    20A     -0.045539    21A     -0.045535  
      22A     -0.045535    23A     -0.031272    24A     -0.031230  
      25A     -0.031217    26A     -0.031207    27A     -0.031206  
      28A     -0.019673    29A     -0.016942    30A     -0.016224  
      31A     -0.016202    32A     -0.015513    33A     -0.013519  
      34A      0.010595    35A      0.010916    36A      0.014436  
      37A      0.016280    38A      0.016291    39A      0.016828  
      40A      0.016943    41A      0.016944    42A      0.017274  
      43A      0.017396    44A      0.019746    45A      0.019757  
      46A      0.048631    47A      0.054167    48A      0.076154  
      49A      0.080852    50A      0.084178    51A      0.101327  
      52A      0.101783    53A      0.102449    54A      0.120715  
      55A      0.131589    56A      0.132268    57A      0.155668  
      58A      0.182647    59A      0.183435    60A      0.198118  
      61A      0.210640    62A      0.211482    63A      0.213543  
      64A      0.218797    65A      0.222723    66A      0.223533  
      67A      0.228777    68A      0.231809    69A      0.238934  
      70A      0.238940    71A      0.239982    72A      0.241320  
      73A      0.274610    74A      0.277283    75A      0.288484  
      76A      0.291568    77A      0.293384    78A      0.298392  
      79A      0.306053    80A      0.319225    81A      0.328053  
      82A      0.333511    83A      0.335950    84A      0.349077  
      85A      0.362338    86A      0.363571    87A      0.483649  
      88A      0.535861    89A      0.559111    90A      0.574352  
      91A      0.637494    92A      0.637898    93A      0.650410  
      94A      0.679521    95A      0.689277    96A      0.700081  
      97A      0.702368    98A      0.704276    99A      0.733903  
     100A      0.735223   101A      0.776150   102A      0.783391  
     103A      0.791805   104A      0.800904   105A      0.816276  
     106A      0.827133   107A      0.832477   108A      0.869232  
     109A      0.877207   110A      0.889545   111A      0.901302  
     112A      0.909400   113A      0.937772   114A      0.948560  
     115A      0.957351   116A      0.998566   117A      1.000004  
     118A      1.008512   119A      1.043033   120A      1.050850  
     121A      1.087599   122A      1.098179   123A      1.103585  
     124A      1.115127   125A      1.150286   126A      1.319376  
     127A      1.337190   128A      1.341538   129A      1.396469  
     130A      1.578839   131A      1.586194   132A      1.586328  
     133A      1.605783   134A      1.616228   135A      1.652187  
     136A      1.708978   137A      1.731879   138A      1.732515  
     139A      1.751810   140A      1.947885   141A      1.953952  
     142A      2.227065   143A      2.232802   144A      2.249670  
     145A      2.252020   146A      2.354735   147A      2.386461  
     148A      2.387001   149A      2.387386   150A      2.392835  
     151A      2.405828   152A      2.408287   153A      2.409090  
     154A      2.417620   155A      2.433716   156A      2.526913  
     157A      2.577700   158A      2.726651   159A      2.727285  
     160A      3.033549   161A      3.034509   162A      3.037231  
     163A      3.046233   164A      3.072704   165A      3.083085  
     166A      3.175211   167A      3.181831   168A      3.207028  
     169A      3.212815   170A      3.399893   171A      3.416633  
     172A      3.532231   173A      3.547411   174A      4.235132  
     175A      4.235622   176A      4.335889   177A      4.350613  
     178A      4.371748   179A      4.379902   180A      4.475967  
     181A      4.478463   182A      4.532312   183A      4.540202  
     184A      4.550956   185A      4.562156   186A      4.749249  
     187A      4.756179   188A      4.757783   189A      4.761605  
     190A      4.775201   191A      4.792886   192A      5.078904  
     193A      5.085259   194A      5.423587   195A      5.427248  
     196A      5.482992   197A      5.486074   198A      5.519425  
     199A      5.519463   200A      5.710099   201A      5.713088  
     202A      5.967488   203A      5.971088   204A      6.259563  
     205A      6.260832   206A      6.464963   207A      6.487775  
     208A      6.926280   209A      6.948075   210A      7.523531  
     211A      7.524836   212A      7.680880   213A      7.688221  
     214A      7.914300   215A      7.925551   216A      8.015478  
     217A      8.016601   218A      8.141556   219A      8.143125  
     220A      8.588585   221A      8.593196   222A      8.686163  
     223A      8.694846   224A      9.502814   225A      9.542255  
     226A      9.696518   227A      9.711732   228A      9.848859  
     229A      9.851760   230A     10.088950   231A     10.092062  
     232A     11.099692   233A     11.101352   234A     11.469280  
     235A     11.472916   236A     11.953919   237A     11.965606  
     238A     13.360582   239A     13.377953   240A     13.647432  
     241A     13.675663   242A     64.342721   243A     64.402550  

    Final Occupation by Irrep:
              A 
    DOCC [     9 ]
    NA   [     9 ]
    NB   [     9 ]

  @DF-RHF Final Energy:  -599.01750841020123

   => Energetics <=

    Nuclear Repulsion Energy =              0.0000000000000000
    One-Electron Energy =                -819.7200386345156176
    Two-Electron Energy =                 220.7025302243145006
    Total Energy =                       -599.0175084102011169

Computation Completed


Properties will be evaluated at   0.000000,   0.000000,   0.000000 [a0]

Properties computed using the SCF density matrix


 Multipole Moments:

 ------------------------------------------------------------------------------------
     Multipole            Electronic (a.u.)      Nuclear  (a.u.)        Total (a.u.)
 ------------------------------------------------------------------------------------

 L = 1.  Multiply by 2.5417464519 to convert [e a0] to [Debye]
 Dipole X            :          0.0000000            0.0000000            0.0000000
 Dipole Y            :          0.0000000            0.0000000            0.0000000
 Dipole Z            :         -0.0000000            0.0000000           -0.0000000
 Magnitude           :                                                    0.0000000

 ------------------------------------------------------------------------------------

*** tstop() called on moses-razer at Wed Jan 24 04:56:23 2024
Module time:
	user time   =      14.78 seconds =       0.25 minutes
	system time =       2.72 seconds =       0.05 minutes
	total time  =          7 seconds =       0.12 minutes
Total time:
	user time   =      14.78 seconds =       0.25 minutes
	system time =       2.72 seconds =       0.05 minutes
	total time  =          7 seconds =       0.12 minutes

*** tstart() called on moses-razer
*** at Wed Jan 24 04:56:23 2024


  //>>>>>>>>>>>>>>>>>>>>>>>>>>>>>>>>>>>//
  //               DFMP2               //
  //<<<<<<<<<<<<<<<<<<<<<<<<<<<<<<<<<<<//

   => Loading Basis Set <=

    Name: (AUG-CC-PVTZ AUX)
    Role: RIFIT
    Keyword: DF_BASIS_MP2
    atoms 1        entry K          line  1282 file /home/kchung25/anaconda3/envs/p415env/share/psi4/basis/def2-qzvpp-ri.gbs 
    atoms 2, 5     entry O          line   264 file /home/kchung25/anaconda3/envs/p415env/share/psi4/basis/aug-cc-pvtz-ri.gbs 
    atoms 3-4, 6-7 entry H          line    30 file /home/kchung25/anaconda3/envs/p415env/share/psi4/basis/aug-cc-pvtz-ri.gbs 

	 --------------------------------------------------------
	                          DF-MP2                         
	      2nd-Order Density-Fitted Moller-Plesset Theory     
	              RMP2 Wavefunction,   6 Threads             
	                                                         
	        Rob Parrish, Justin Turney, Andy Simmonett,      
	           Ed Hohenstein, and C. David Sherrill          
	 --------------------------------------------------------

   => Auxiliary Basis Set <=

  Basis Set: (AUG-CC-PVTZ AUX)
    Blend: AUG-CC-PVTZ-RI + DEF2-QZVPP-RI
    Number of shells: 161
    Number of basis functions: 595
    Number of Cartesian functions: 754
    Spherical Harmonics?: true
    Max angular momentum: 4

	 --------------------------------------------------------
	                 NBF =   243, NAUX =   595
	 --------------------------------------------------------
	   CLASS    FOCC     OCC    AOCC    AVIR     VIR    FVIR
	   PAIRS       0       9       9     234     234       0
	 --------------------------------------------------------

	-----------------------------------------------------------
	 ==================> DF-MP2 Energies <==================== 
	-----------------------------------------------------------
	 Reference Energy          =    -599.0175084102012306 [Eh]
	 Singles Energy            =      -0.0000000000000000 [Eh]
	 Same-Spin Energy          =      -0.0264447874029388 [Eh]
	 Opposite-Spin Energy      =      -0.0611905610969416 [Eh]
	 Correlation Energy        =      -0.0876353484998804 [Eh]
	 Total Energy              =    -599.1051437587011606 [Eh]
	-----------------------------------------------------------
	 ================> DF-SCS-MP2 Energies <================== 
	-----------------------------------------------------------
	 SCS Same-Spin Scale       =       0.3333333333333333 [-]
	 SCS Opposite-Spin Scale   =       1.2000000000000000 [-]
	 SCS Same-Spin Energy      =      -0.0088149291343129 [Eh]
	 SCS Opposite-Spin Energy  =      -0.0734286733163299 [Eh]
	 SCS Correlation Energy    =      -0.0822436024506429 [Eh]
	 SCS Total Energy          =    -599.0997520126518339 [Eh]
	-----------------------------------------------------------


*** tstop() called on moses-razer at Wed Jan 24 04:56:27 2024
Module time:
	user time   =       7.49 seconds =       0.12 minutes
	system time =       0.85 seconds =       0.01 minutes
	total time  =          4 seconds =       0.07 minutes
Total time:
	user time   =      22.27 seconds =       0.37 minutes
	system time =       3.57 seconds =       0.06 minutes
	total time  =         11 seconds =       0.18 minutes

    Psi4 stopped on: Wednesday, 24 January 2024 04:56AM
    Psi4 wall time for execution: 0:00:11.91


    -----------------------------------------------------------------------
          Psi4: An Open-Source Ab Initio Electronic Structure Package
                               Psi4 1.9 release

                         Git: Rev {} zzzzzzz 


    D. G. A. Smith, L. A. Burns, A. C. Simmonett, R. M. Parrish,
    M. C. Schieber, R. Galvelis, P. Kraus, H. Kruse, R. Di Remigio,
    A. Alenaizan, A. M. James, S. Lehtola, J. P. Misiewicz, M. Scheurer,
    R. A. Shaw, J. B. Schriber, Y. Xie, Z. L. Glick, D. A. Sirianni,
    J. S. O'Brien, J. M. Waldrop, A. Kumar, E. G. Hohenstein,
    B. P. Pritchard, B. R. Brooks, H. F. Schaefer III, A. Yu. Sokolov,
    K. Patkowski, A. E. DePrince III, U. Bozkaya, R. A. King,
    F. A. Evangelista, J. M. Turney, T. D. Crawford, C. D. Sherrill,
    J. Chem. Phys. 152(18) 184108 (2020). https://doi.org/10.1063/5.0006002

                            Additional Code Authors
    E. T. Seidl, C. L. Janssen, E. F. Valeev, M. L. Leininger,
    J. F. Gonthier, R. M. Richard, H. R. McAlexander, M. Saitow, X. Wang,
    P. Verma, M. H. Lechner, A. Jiang, S. Behnle, A. G. Heide,
    M. F. Herbst, and D. L. Poole

             Previous Authors, Complete List of Code Contributors,
                       and Citations for Specific Modules
    https://github.com/psi4/psi4/blob/master/codemeta.json
    https://github.com/psi4/psi4/graphs/contributors
    http://psicode.org/psi4manual/master/introduction.html#citing-psifour

    -----------------------------------------------------------------------


    Psi4 started on: Wednesday, 24 January 2024 04:56AM

    Process ID: 1192903
    Host:       moses-razer
    PSIDATADIR: /home/kchung25/anaconda3/envs/psi4_19/share/psi4
    Memory:     55.9 GiB
    Threads:    6
    
  ==> Input QCSchema <==

--------------------------------------------------------------------------
{'driver': 'energy',
 'extras': {'psiapi': True, 'wfn_qcvars_only': True},
 'id': None,
 'keywords': {'SCF_TYPE': 'DF', 'function_kwargs': {}},
 'model': {'basis': 'aug-cc-pvtz', 'method': 'mp2'},
 'molecule': {'atom_labels': ['', '', '', '', '', '', ''],
              'atomic_numbers': [19, 8, 1, 1, 8, 1, 1],
              'extras': {},
              'fix_com': True,
              'fix_orientation': True,
              'fix_symmetry': 'c1',
              'fragment_charges': [0.0, 0.0, 0.0],
              'fragment_multiplicities': [1, 1, 1],
              'fragments': [[0], [1, 2, 3], [4, 5, 6]],
              'geometry': [0.0, 0.0, 0.0, 7.1578913899262835, 0.0, 0.0, 8.278822125490228, 1.428466654947078, 0.0,
                           8.278822125490228, -1.428466654947078, 0.0, -7.1578913899262835, 0.0, 0.0,
                           -8.278822125490228, -1.428466654947078, 0.0, -8.278822125490228, 1.428466654947078, 0.0],
              'mass_numbers': [39, 16, 1, 1, 16, 1, 1],
              'masses': [38.9637064864, 15.99491461957, 1.00782503223, 1.00782503223, 15.99491461957, 1.00782503223,
                         1.00782503223],
              'molecular_charge': 0.0,
              'molecular_multiplicity': 1,
              'name': 'dimer',
              'provenance': {'creator': 'QCElemental',
                             'routine': 'qcelemental.molparse.from_string',
                             'version': '0.27.1'},
              'real': [False, True, True, True, False, False, False],
              'schema_name': 'qcschema_molecule',
              'schema_version': 2,
              'symbols': ['K', 'O', 'H', 'H', 'O', 'H', 'H'],
              'validated': True},
 'protocols': {'stdout': True},
 'provenance': {'creator': 'QCElemental', 'routine': 'qcelemental.models.results', 'version': '0.27.1'},
 'schema_name': 'qcschema_input',
 'schema_version': 1}
--------------------------------------------------------------------------

Scratch directory: /scratch/
   => Libint2 <=

    Primary   basis highest AM E, G, H:  5, 4, 3
    Auxiliary basis highest AM E, G, H:  6, 5, 4
    Onebody   basis highest AM E, G, H:  6, 5, 4
    Solid Harmonics ordering:            gaussian

*** tstart() called on moses-razer
*** at Wed Jan 24 04:56:27 2024

   => Loading Basis Set <=

    Name: AUG-CC-PVTZ
    Role: ORBITAL
    Keyword: BASIS
    atoms 1        entry K          line  1152 file /home/kchung25/anaconda3/envs/p415env/share/psi4/basis/aug-cc-pvtz.gbs 
    atoms 2, 5     entry O          line   331 file /home/kchung25/anaconda3/envs/p415env/share/psi4/basis/aug-cc-pvtz.gbs 
    atoms 3-4, 6-7 entry H          line    40 file /home/kchung25/anaconda3/envs/p415env/share/psi4/basis/aug-cc-pvtz.gbs 


         ---------------------------------------------------------
                                   SCF
               by Justin Turney, Rob Parrish, Andy Simmonett
                          and Daniel G. A. Smith
                              RHF Reference
                        6 Threads,  57220 MiB Core
         ---------------------------------------------------------

  ==> Geometry <==

    Molecular point group: c1
    Full point group: C2v

    Geometry (in Bohr), charge = 0, multiplicity = 1:

       Center              X                  Y                   Z               Mass       
    ------------   -----------------  -----------------  -----------------  -----------------
      Gh(K)           0.000000000000     0.000000000000     0.000000000000    38.963706486400
         O            7.157891389926     0.000000000000     0.000000000000    15.994914619570
         H            8.278822125490     1.428466654947     0.000000000000     1.007825032230
         H            8.278822125490    -1.428466654947     0.000000000000     1.007825032230
      Gh(O)          -7.157891389926     0.000000000000     0.000000000000    15.994914619570
      Gh(H)          -8.278822125490    -1.428466654947     0.000000000000     1.007825032230
      Gh(H)          -8.278822125490     1.428466654947     0.000000000000     1.007825032230

  Running in c1 symmetry.

  Rotational constants: A =      7.31828  B =      0.03143  C =      0.03130 [cm^-1]
  Rotational constants: A = 219396.44560  B =    942.26967  C =    938.24009 [MHz]
  Nuclear repulsion =    9.161738423061456

  Charge       = 0
  Multiplicity = 1
  Electrons    = 10
  Nalpha       = 5
  Nbeta        = 5

  ==> Algorithm <==

  SCF Algorithm Type is DF.
  DIIS enabled.
  MOM disabled.
  Fractional occupation disabled.
  Guess Type is SAD.
  Energy threshold   = 1.00e-08
  Density threshold  = 1.00e-08
  Integral threshold = 1.00e-12

  ==> Primary Basis <==

  Basis Set: AUG-CC-PVTZ
    Blend: AUG-CC-PVTZ
    Number of shells: 83
    Number of basis functions: 243
    Number of Cartesian functions: 279
    Spherical Harmonics?: true
    Max angular momentum: 3

   => Loading Basis Set <=

    Name: (AUG-CC-PVTZ AUX)
    Role: JKFIT
    Keyword: DF_BASIS_SCF
    atoms 1        entry K          line  1152 file /home/kchung25/anaconda3/envs/p415env/share/psi4/basis/def2-universal-jkfit.gbs 
    atoms 2, 5     entry O          line   286 file /home/kchung25/anaconda3/envs/p415env/share/psi4/basis/aug-cc-pvtz-jkfit.gbs 
    atoms 3-4, 6-7 entry H          line    70 file /home/kchung25/anaconda3/envs/p415env/share/psi4/basis/aug-cc-pvtz-jkfit.gbs 

  ==> Integral Setup <==

  DFHelper Memory: AOs need 0.213 GiB; user supplied 41.910 GiB. 
  Using in-core AOs.

  ==> MemDFJK: Density-Fitted J/K Matrices <==

    J tasked:                   Yes
    K tasked:                   Yes
    wK tasked:                   No
    OpenMP threads:               6
    Memory [MiB]:             42915
    Algorithm:                 Core
    Schwarz Cutoff:           1E-12
    Mask sparsity (%):      19.3568
    Fitting Condition:        1E-10

   => Auxiliary Basis Set <=

  Basis Set: (AUG-CC-PVTZ AUX)
    Blend: AUG-CC-PVTZ-JKFIT + DEF2-UNIVERSAL-JKFIT
    Number of shells: 160
    Number of basis functions: 552
    Number of Cartesian functions: 685
    Spherical Harmonics?: true
    Max angular momentum: 4

  Minimum eigenvalue in the overlap matrix is 1.6781603776E-04.
  Reciprocal condition number of the overlap matrix is 1.9858122790E-05.
    Using symmetric orthogonalization.

  ==> Pre-Iterations <==

  SCF Guess: Superposition of Atomic Densities via on-the-fly atomic UHF (no occupation information).

   -------------------------
    Irrep   Nso     Nmo    
   -------------------------
     A        243     243 
   -------------------------
    Total     243     243
   -------------------------

  ==> Iterations <==

                           Total Energy        Delta E     RMS |[F,P]|

   @DF-RHF iter SAD:   -75.47466770733503   -7.54747e+01   0.00000e+00 
   @DF-RHF iter   1:   -75.97581625526649   -5.01149e-01   1.92745e-03 DIIS/ADIIS
   @DF-RHF iter   2:   -76.02828489021047   -5.24686e-02   1.31670e-03 DIIS/ADIIS
   @DF-RHF iter   3:   -76.05987329632256   -3.15884e-02   8.96600e-05 DIIS
   @DF-RHF iter   4:   -76.06026494672228   -3.91650e-04   2.14248e-05 DIIS
   @DF-RHF iter   5:   -76.06028948444728   -2.45377e-05   4.88847e-06 DIIS
   @DF-RHF iter   6:   -76.06029150199197   -2.01754e-06   1.06838e-06 DIIS
   @DF-RHF iter   7:   -76.06029160785778   -1.05866e-07   1.91350e-07 DIIS
   @DF-RHF iter   8:   -76.06029161083241   -2.97463e-09   3.19606e-08 DIIS
   @DF-RHF iter   9:   -76.06029161089764   -6.52278e-11   7.86928e-09 DIIS
  Energy and wave function converged.


  ==> Post-Iterations <==

    Orbital Energies [Eh]
    ---------------------

    Doubly Occupied:                                                      

       1A    -20.568187     2A     -1.352293     3A     -0.714404  
       4A     -0.585740     5A     -0.510290  

    Virtual:                                                              

       6A      0.007852     7A      0.010296     8A      0.010767  
       9A      0.011328    10A      0.018369    11A      0.018754  
      12A      0.019326    13A      0.019882    14A      0.019891  
      15A      0.036680    16A      0.038405    17A      0.039423  
      18A      0.044522    19A      0.060158    20A      0.063414  
      21A      0.064829    22A      0.068006    23A      0.068463  
      24A      0.068467    25A      0.068701    26A      0.087660  
      27A      0.089861    28A      0.106221    29A      0.107562  
      30A      0.108843    31A      0.117713    32A      0.145671  
      33A      0.147394    34A      0.148048    35A      0.148055  
      36A      0.151793    37A      0.166380    38A      0.179690  
      39A      0.180557    40A      0.193984    41A      0.202064  
      42A      0.208601    43A      0.218158    44A      0.233456  
      45A      0.237436    46A      0.238956    47A      0.249186  
      48A      0.249971    49A      0.252857    50A      0.254570  
      51A      0.267797    52A      0.270897    53A      0.280709  
      54A      0.281315    55A      0.309654    56A      0.313606  
      57A      0.346037    58A      0.350216    59A      0.371057  
      60A      0.379861    61A      0.388358    62A      0.399274  
      63A      0.399363    64A      0.414320    65A      0.419803  
      66A      0.447689    67A      0.449174    68A      0.458408  
      69A      0.465208    70A      0.466662    71A      0.466706  
      72A      0.467419    73A      0.475482    74A      0.478378  
      75A      0.507325    76A      0.521025    77A      0.528094  
      78A      0.633505    79A      0.665991    80A      0.690718  
      81A      0.691348    82A      0.699267    83A      0.732822  
      84A      0.772921    85A      0.778672    86A      0.802804  
      87A      0.815513    88A      0.830226    89A      0.844978  
      90A      0.861940    91A      0.868836    92A      0.880371  
      93A      0.916496    94A      0.932811    95A      0.934614  
      96A      0.934775    97A      0.948917    98A      0.984108  
      99A      0.994325   100A      0.995929   101A      1.004833  
     102A      1.010356   103A      1.036049   104A      1.038406  
     105A      1.063237   106A      1.073207   107A      1.091600  
     108A      1.114567   109A      1.122517   110A      1.145163  
     111A      1.151695   112A      1.180556   113A      1.201335  
     114A      1.214007   115A      1.221602   116A      1.247563  
     117A      1.303913   118A      1.451612   119A      1.501780  
     120A      1.519735   121A      1.553412   122A      1.596079  
     123A      1.603522   124A      1.701731   125A      1.734359  
     126A      1.743298   127A      1.836569   128A      1.848054  
     129A      1.849077   130A      1.850099   131A      1.868822  
     132A      1.870674   133A      1.915608   134A      1.919655  
     135A      1.970302   136A      1.982043   137A      2.019482  
     138A      2.036110   139A      2.068783   140A      2.125902  
     141A      2.139229   142A      2.277383   143A      2.317384  
     144A      2.373514   145A      2.384185   146A      2.393580  
     147A      2.426719   148A      2.463094   149A      2.485387  
     150A      2.527778   151A      2.537592   152A      2.539016  
     153A      2.550707   154A      2.559407   155A      2.571119  
     156A      2.697697   157A      2.720723   158A      2.725525  
     159A      2.801490   160A      2.853447   161A      2.873201  
     162A      2.890276   163A      3.175724   164A      3.197283  
     165A      3.205267   166A      3.311587   167A      3.340881  
     168A      3.545107   169A      3.671118   170A      3.708336  
     171A      3.756221   172A      4.020726   173A      4.101185  
     174A      4.192941   175A      4.254613   176A      4.284676  
     177A      4.356522   178A      4.382818   179A      4.407435  
     180A      4.420721   181A      4.465280   182A      4.500622  
     183A      4.528034   184A      4.603351   185A      4.665081  
     186A      4.670476   187A      4.770680   188A      4.851448  
     189A      4.872945   190A      4.887913   191A      4.898590  
     192A      5.149446   193A      5.156301   194A      5.204829  
     195A      5.256809   196A      5.330101   197A      5.525656  
     198A      5.551417   199A      5.612026   200A      5.649051  
     201A      5.680256   202A      5.844604   203A      6.102568  
     204A      6.219178   205A      6.390008   206A      6.540367  
     207A      6.612900   208A      6.715305   209A      6.912339  
     210A      7.072125   211A      7.150087   212A      7.278431  
     213A      7.305802   214A      7.319200   215A      7.363010  
     216A      7.371190   217A      7.543258   218A      7.667551  
     219A      7.826255   220A      7.907934   221A      7.933670  
     222A      8.061405   223A      8.156131   224A      8.283991  
     225A      8.726835   226A      8.820145   227A      8.830987  
     228A      9.665490   229A      9.829552   230A      9.849088  
     231A      9.991891   232A     10.233409   233A     11.239490  
     234A     11.611905   235A     12.101515   236A     13.508722  
     237A     13.802916   238A     15.761859   239A     30.231009  
     240A     30.244752   241A     30.479189   242A     64.514322  
     243A    197.062737  

    Final Occupation by Irrep:
              A 
    DOCC [     5 ]
    NA   [     5 ]
    NB   [     5 ]

  @DF-RHF Final Energy:   -76.06029161089764

   => Energetics <=

    Nuclear Repulsion Energy =              9.1617384230614558
    One-Electron Energy =                -122.9822281470859195
    Two-Electron Energy =                  37.7601981131268403
    Total Energy =                        -76.0602916108976217

Computation Completed


Properties will be evaluated at   0.000000,   0.000000,   0.000000 [a0]

Properties computed using the SCF density matrix


 Multipole Moments:

 ------------------------------------------------------------------------------------
     Multipole            Electronic (a.u.)      Nuclear  (a.u.)        Total (a.u.)
 ------------------------------------------------------------------------------------

 L = 1.  Multiply by 2.5417464519 to convert [e a0] to [Debye]
 Dipole X            :        -73.0342012           73.8207754            0.7865742
 Dipole Y            :          0.0000000            0.0000000            0.0000000
 Dipole Z            :         -0.0000000            0.0000000           -0.0000000
 Magnitude           :                                                    0.7865742

 ------------------------------------------------------------------------------------

*** tstop() called on moses-razer at Wed Jan 24 04:56:32 2024
Module time:
	user time   =      11.93 seconds =       0.20 minutes
	system time =       1.47 seconds =       0.02 minutes
	total time  =          5 seconds =       0.08 minutes
Total time:
	user time   =      34.45 seconds =       0.57 minutes
	system time =       5.04 seconds =       0.08 minutes
	total time  =         16 seconds =       0.27 minutes

*** tstart() called on moses-razer
*** at Wed Jan 24 04:56:32 2024


  //>>>>>>>>>>>>>>>>>>>>>>>>>>>>>>>>>>>//
  //               DFMP2               //
  //<<<<<<<<<<<<<<<<<<<<<<<<<<<<<<<<<<<//

   => Loading Basis Set <=

    Name: (AUG-CC-PVTZ AUX)
    Role: RIFIT
    Keyword: DF_BASIS_MP2
    atoms 1        entry K          line  1282 file /home/kchung25/anaconda3/envs/p415env/share/psi4/basis/def2-qzvpp-ri.gbs 
    atoms 2, 5     entry O          line   264 file /home/kchung25/anaconda3/envs/p415env/share/psi4/basis/aug-cc-pvtz-ri.gbs 
    atoms 3-4, 6-7 entry H          line    30 file /home/kchung25/anaconda3/envs/p415env/share/psi4/basis/aug-cc-pvtz-ri.gbs 

	 --------------------------------------------------------
	                          DF-MP2                         
	      2nd-Order Density-Fitted Moller-Plesset Theory     
	              RMP2 Wavefunction,   6 Threads             
	                                                         
	        Rob Parrish, Justin Turney, Andy Simmonett,      
	           Ed Hohenstein, and C. David Sherrill          
	 --------------------------------------------------------

   => Auxiliary Basis Set <=

  Basis Set: (AUG-CC-PVTZ AUX)
    Blend: AUG-CC-PVTZ-RI + DEF2-QZVPP-RI
    Number of shells: 161
    Number of basis functions: 595
    Number of Cartesian functions: 754
    Spherical Harmonics?: true
    Max angular momentum: 4

	 --------------------------------------------------------
	                 NBF =   243, NAUX =   595
	 --------------------------------------------------------
	   CLASS    FOCC     OCC    AOCC    AVIR     VIR    FVIR
	   PAIRS       0       5       5     238     238       0
	 --------------------------------------------------------

	-----------------------------------------------------------
	 ==================> DF-MP2 Energies <==================== 
	-----------------------------------------------------------
	 Reference Energy          =     -76.0602916108976359 [Eh]
	 Singles Energy            =      -0.0000000000000000 [Eh]
	 Same-Spin Energy          =      -0.0684258546947539 [Eh]
	 Opposite-Spin Energy      =      -0.2154634511807259 [Eh]
	 Correlation Energy        =      -0.2838893058754798 [Eh]
	 Total Energy              =     -76.3441809167731122 [Eh]
	-----------------------------------------------------------
	 ================> DF-SCS-MP2 Energies <================== 
	-----------------------------------------------------------
	 SCS Same-Spin Scale       =       0.3333333333333333 [-]
	 SCS Opposite-Spin Scale   =       1.2000000000000000 [-]
	 SCS Same-Spin Energy      =      -0.0228086182315846 [Eh]
	 SCS Opposite-Spin Energy  =      -0.2585561414168710 [Eh]
	 SCS Correlation Energy    =      -0.2813647596484556 [Eh]
	 SCS Total Energy          =     -76.3416563705460902 [Eh]
	-----------------------------------------------------------


*** tstop() called on moses-razer at Wed Jan 24 04:56:37 2024
Module time:
	user time   =       7.38 seconds =       0.12 minutes
	system time =       0.85 seconds =       0.01 minutes
	total time  =          5 seconds =       0.08 minutes
Total time:
	user time   =      41.83 seconds =       0.70 minutes
	system time =       5.89 seconds =       0.10 minutes
	total time  =         21 seconds =       0.35 minutes

    Psi4 stopped on: Wednesday, 24 January 2024 04:56AM
    Psi4 wall time for execution: 0:00:09.69


    -----------------------------------------------------------------------
          Psi4: An Open-Source Ab Initio Electronic Structure Package
                               Psi4 1.9 release

                         Git: Rev {} zzzzzzz 


    D. G. A. Smith, L. A. Burns, A. C. Simmonett, R. M. Parrish,
    M. C. Schieber, R. Galvelis, P. Kraus, H. Kruse, R. Di Remigio,
    A. Alenaizan, A. M. James, S. Lehtola, J. P. Misiewicz, M. Scheurer,
    R. A. Shaw, J. B. Schriber, Y. Xie, Z. L. Glick, D. A. Sirianni,
    J. S. O'Brien, J. M. Waldrop, A. Kumar, E. G. Hohenstein,
    B. P. Pritchard, B. R. Brooks, H. F. Schaefer III, A. Yu. Sokolov,
    K. Patkowski, A. E. DePrince III, U. Bozkaya, R. A. King,
    F. A. Evangelista, J. M. Turney, T. D. Crawford, C. D. Sherrill,
    J. Chem. Phys. 152(18) 184108 (2020). https://doi.org/10.1063/5.0006002

                            Additional Code Authors
    E. T. Seidl, C. L. Janssen, E. F. Valeev, M. L. Leininger,
    J. F. Gonthier, R. M. Richard, H. R. McAlexander, M. Saitow, X. Wang,
    P. Verma, M. H. Lechner, A. Jiang, S. Behnle, A. G. Heide,
    M. F. Herbst, and D. L. Poole

             Previous Authors, Complete List of Code Contributors,
                       and Citations for Specific Modules
    https://github.com/psi4/psi4/blob/master/codemeta.json
    https://github.com/psi4/psi4/graphs/contributors
    http://psicode.org/psi4manual/master/introduction.html#citing-psifour

    -----------------------------------------------------------------------


    Psi4 started on: Wednesday, 24 January 2024 04:56AM

    Process ID: 1192903
    Host:       moses-razer
    PSIDATADIR: /home/kchung25/anaconda3/envs/psi4_19/share/psi4
    Memory:     55.9 GiB
    Threads:    6
    
  ==> Input QCSchema <==

--------------------------------------------------------------------------
{'driver': 'energy',
 'extras': {'psiapi': True, 'wfn_qcvars_only': True},
 'id': None,
 'keywords': {'SCF_TYPE': 'DF', 'function_kwargs': {}},
 'model': {'basis': 'aug-cc-pvtz', 'method': 'mp2'},
 'molecule': {'atom_labels': ['', '', '', '', '', '', ''],
              'atomic_numbers': [19, 8, 1, 1, 8, 1, 1],
              'extras': {},
              'fix_com': True,
              'fix_orientation': True,
              'fix_symmetry': 'c1',
              'fragment_charges': [0.0, 0.0, 0.0],
              'fragment_multiplicities': [1, 1, 1],
              'fragments': [[0], [1, 2, 3], [4, 5, 6]],
              'geometry': [0.0, 0.0, 0.0, 7.1578913899262835, 0.0, 0.0, 8.278822125490228, 1.428466654947078, 0.0,
                           8.278822125490228, -1.428466654947078, 0.0, -7.1578913899262835, 0.0, 0.0,
                           -8.278822125490228, -1.428466654947078, 0.0, -8.278822125490228, 1.428466654947078, 0.0],
              'mass_numbers': [39, 16, 1, 1, 16, 1, 1],
              'masses': [38.9637064864, 15.99491461957, 1.00782503223, 1.00782503223, 15.99491461957, 1.00782503223,
                         1.00782503223],
              'molecular_charge': 0.0,
              'molecular_multiplicity': 1,
              'name': 'dimer',
              'provenance': {'creator': 'QCElemental',
                             'routine': 'qcelemental.molparse.from_string',
                             'version': '0.27.1'},
              'real': [False, True, True, True, True, True, True],
              'schema_name': 'qcschema_molecule',
              'schema_version': 2,
              'symbols': ['K', 'O', 'H', 'H', 'O', 'H', 'H'],
              'validated': True},
 'protocols': {'stdout': True},
 'provenance': {'creator': 'QCElemental', 'routine': 'qcelemental.models.results', 'version': '0.27.1'},
 'schema_name': 'qcschema_input',
 'schema_version': 1}
--------------------------------------------------------------------------

Scratch directory: /scratch/
   => Libint2 <=

    Primary   basis highest AM E, G, H:  5, 4, 3
    Auxiliary basis highest AM E, G, H:  6, 5, 4
    Onebody   basis highest AM E, G, H:  6, 5, 4
    Solid Harmonics ordering:            gaussian

*** tstart() called on moses-razer
*** at Wed Jan 24 04:56:37 2024

   => Loading Basis Set <=

    Name: AUG-CC-PVTZ
    Role: ORBITAL
    Keyword: BASIS
    atoms 1        entry K          line  1152 file /home/kchung25/anaconda3/envs/p415env/share/psi4/basis/aug-cc-pvtz.gbs 
    atoms 2, 5     entry O          line   331 file /home/kchung25/anaconda3/envs/p415env/share/psi4/basis/aug-cc-pvtz.gbs 
    atoms 3-4, 6-7 entry H          line    40 file /home/kchung25/anaconda3/envs/p415env/share/psi4/basis/aug-cc-pvtz.gbs 


         ---------------------------------------------------------
                                   SCF
               by Justin Turney, Rob Parrish, Andy Simmonett
                          and Daniel G. A. Smith
                              RHF Reference
                        6 Threads,  57220 MiB Core
         ---------------------------------------------------------

  ==> Geometry <==

    Molecular point group: c1
    Full point group: D2h

    Geometry (in Bohr), charge = 0, multiplicity = 1:

       Center              X                  Y                   Z               Mass       
    ------------   -----------------  -----------------  -----------------  -----------------
      Gh(K)           0.000000000000     0.000000000000     0.000000000000    38.963706486400
         O            7.157891389926     0.000000000000     0.000000000000    15.994914619570
         H            8.278822125490     1.428466654947     0.000000000000     1.007825032230
         H            8.278822125490    -1.428466654947     0.000000000000     1.007825032230
         O           -7.157891389926     0.000000000000     0.000000000000    15.994914619570
         H           -8.278822125490    -1.428466654947     0.000000000000     1.007825032230
         H           -8.278822125490     1.428466654947     0.000000000000     1.007825032230

  Running in c1 symmetry.

  Rotational constants: A =      7.31828  B =      0.03143  C =      0.03130 [cm^-1]
  Rotational constants: A = 219396.44560  B =    942.26967  C =    938.24009 [MHz]
  Nuclear repulsion =   25.098049692389960

  Charge       = 0
  Multiplicity = 1
  Electrons    = 20
  Nalpha       = 10
  Nbeta        = 10

  ==> Algorithm <==

  SCF Algorithm Type is DF.
  DIIS enabled.
  MOM disabled.
  Fractional occupation disabled.
  Guess Type is SAD.
  Energy threshold   = 1.00e-08
  Density threshold  = 1.00e-08
  Integral threshold = 1.00e-12

  ==> Primary Basis <==

  Basis Set: AUG-CC-PVTZ
    Blend: AUG-CC-PVTZ
    Number of shells: 83
    Number of basis functions: 243
    Number of Cartesian functions: 279
    Spherical Harmonics?: true
    Max angular momentum: 3

   => Loading Basis Set <=

    Name: (AUG-CC-PVTZ AUX)
    Role: JKFIT
    Keyword: DF_BASIS_SCF
    atoms 1        entry K          line  1152 file /home/kchung25/anaconda3/envs/p415env/share/psi4/basis/def2-universal-jkfit.gbs 
    atoms 2, 5     entry O          line   286 file /home/kchung25/anaconda3/envs/p415env/share/psi4/basis/aug-cc-pvtz-jkfit.gbs 
    atoms 3-4, 6-7 entry H          line    70 file /home/kchung25/anaconda3/envs/p415env/share/psi4/basis/aug-cc-pvtz-jkfit.gbs 

  ==> Integral Setup <==

  DFHelper Memory: AOs need 0.213 GiB; user supplied 41.910 GiB. 
  Using in-core AOs.

  ==> MemDFJK: Density-Fitted J/K Matrices <==

    J tasked:                   Yes
    K tasked:                   Yes
    wK tasked:                   No
    OpenMP threads:               6
    Memory [MiB]:             42915
    Algorithm:                 Core
    Schwarz Cutoff:           1E-12
    Mask sparsity (%):      19.3568
    Fitting Condition:        1E-10

   => Auxiliary Basis Set <=

  Basis Set: (AUG-CC-PVTZ AUX)
    Blend: AUG-CC-PVTZ-JKFIT + DEF2-UNIVERSAL-JKFIT
    Number of shells: 160
    Number of basis functions: 552
    Number of Cartesian functions: 685
    Spherical Harmonics?: true
    Max angular momentum: 4

  Minimum eigenvalue in the overlap matrix is 1.6781603776E-04.
  Reciprocal condition number of the overlap matrix is 1.9858122790E-05.
    Using symmetric orthogonalization.

  ==> Pre-Iterations <==

  SCF Guess: Superposition of Atomic Densities via on-the-fly atomic UHF (no occupation information).

   -------------------------
    Irrep   Nso     Nmo    
   -------------------------
     A        243     243 
   -------------------------
    Total     243     243
   -------------------------

  ==> Iterations <==

                           Total Energy        Delta E     RMS |[F,P]|

   @DF-RHF iter SAD:  -150.94933576434747   -1.50949e+02   0.00000e+00 
   @DF-RHF iter   1:  -151.95069940438728   -1.00136e+00   2.72884e-03 DIIS/ADIIS
   @DF-RHF iter   2:  -152.05580732829364   -1.05108e-01   1.86662e-03 DIIS/ADIIS
   @DF-RHF iter   3:  -152.11934688308969   -6.35396e-02   1.27356e-04 DIIS/ADIIS
   @DF-RHF iter   4:  -152.12013485720067   -7.87974e-04   3.03834e-05 DIIS
   @DF-RHF iter   5:  -152.12018426646210   -4.94093e-05   6.94636e-06 DIIS
   @DF-RHF iter   6:  -152.12018834403401   -4.07757e-06   1.51834e-06 DIIS
   @DF-RHF iter   7:  -152.12018855804129   -2.14007e-07   2.72211e-07 DIIS
   @DF-RHF iter   8:  -152.12018856406681   -6.02552e-09   4.55440e-08 DIIS
   @DF-RHF iter   9:  -152.12018856419968   -1.32871e-10   1.12240e-08 DIIS
   @DF-RHF iter  10:  -152.12018856420775   -8.07177e-12   1.65717e-09 DIIS
  Energy and wave function converged.


  ==> Post-Iterations <==

    Orbital Energies [Eh]
    ---------------------

    Doubly Occupied:                                                      

       1A    -20.564705     2A    -20.564705     3A     -1.348789  
       4A     -1.348789     5A     -0.710900     6A     -0.710899  
       7A     -0.582069     8A     -0.582066     9A     -0.506740  
      10A     -0.506739  

    Virtual:                                                              

      11A      0.008197    12A      0.010838    13A      0.011357  
      14A      0.011609    15A      0.017969    16A      0.018358  
      17A      0.019462    18A      0.020581    19A      0.020629  
      20A      0.038525    21A      0.040640    22A      0.042655  
      23A      0.051130    24A      0.061018    25A      0.063092  
      26A      0.065286    27A      0.065652    28A      0.071452  
      29A      0.071483    30A      0.072909    31A      0.087722  
      32A      0.088599    33A      0.113334    34A      0.115735  
      35A      0.120739    36A      0.125515    37A      0.149840  
      38A      0.151572    39A      0.152584    40A      0.152598  
      41A      0.167007    42A      0.176200    43A      0.190089  
      44A      0.190318    45A      0.200773    46A      0.204566  
      47A      0.221354    48A      0.232987    49A      0.238811  
      50A      0.239548    51A      0.245522    52A      0.249113  
      53A      0.256935    54A      0.257800    55A      0.259486  
      56A      0.276491    57A      0.277502    58A      0.280375  
      59A      0.285638    60A      0.301549    61A      0.305101  
      62A      0.349882    63A      0.361246    64A      0.363521  
      65A      0.390249    66A      0.394892    67A      0.397803  
      68A      0.406813    69A      0.411429    70A      0.423890  
      71A      0.447353    72A      0.463151    73A      0.474532  
      74A      0.475725    75A      0.476950    76A      0.478233  
      77A      0.479576    78A      0.485330    79A      0.497352  
      80A      0.518201    81A      0.535374    82A      0.553618  
      83A      0.636737    84A      0.647623    85A      0.696953  
      86A      0.703572    87A      0.715686    88A      0.730602  
      89A      0.742498    90A      0.762965    91A      0.785142  
      92A      0.791973    93A      0.850333    94A      0.854454  
      95A      0.856032    96A      0.883261    97A      0.887283  
      98A      0.929227    99A      0.930183   100A      0.938251  
     101A      0.948516   102A      0.962043   103A      0.967005  
     104A      0.984726   105A      1.003748   106A      1.017979  
     107A      1.037709   108A      1.040710   109A      1.058937  
     110A      1.067966   111A      1.075242   112A      1.090822  
     113A      1.100153   114A      1.116867   115A      1.131438  
     116A      1.141458   117A      1.180543   118A      1.181414  
     119A      1.186446   120A      1.207184   121A      1.231162  
     122A      1.277329   123A      1.346953   124A      1.517046  
     125A      1.529454   126A      1.542374   127A      1.589140  
     128A      1.606529   129A      1.610559   130A      1.616305  
     131A      1.838092   132A      1.842291   133A      1.859273  
     134A      1.862799   135A      1.873559   136A      1.878696  
     137A      1.928169   138A      1.931493   139A      1.982348  
     140A      1.983178   141A      1.990506   142A      2.028717  
     143A      2.032346   144A      2.125489   145A      2.132932  
     146A      2.134235   147A      2.274305   148A      2.288475  
     149A      2.320664   150A      2.321465   151A      2.383295  
     152A      2.390522   153A      2.427507   154A      2.434204  
     155A      2.449621   156A      2.458363   157A      2.479312  
     158A      2.510809   159A      2.515989   160A      2.598075  
     161A      2.688919   162A      2.710410   163A      2.722015  
     164A      2.726669   165A      2.801505   166A      2.808920  
     167A      2.837416   168A      2.881694   169A      2.890572  
     170A      2.897025   171A      3.691859   172A      3.728183  
     173A      3.750899   174A      3.768092   175A      4.023732  
     176A      4.024396   177A      4.101823   178A      4.107347  
     179A      4.190776   180A      4.201802   181A      4.256621  
     182A      4.259434   183A      4.287064   184A      4.289135  
     185A      4.382746   186A      4.389659   187A      4.399416  
     188A      4.414161   189A      4.422928   190A      4.434419  
     191A      4.529220   192A      4.533711   193A      4.770004  
     194A      4.781366   195A      4.854664   196A      4.854948  
     197A      5.152797   198A      5.152983   199A      5.159488  
     200A      5.159724   201A      5.258942   202A      5.261615  
     203A      5.330463   204A      5.336521   205A      5.528379  
     206A      5.529816   207A      5.673725   208A      5.693804  
     209A      6.209569   210A      6.236523   211A      6.525509  
     212A      6.562809   213A      6.718589   214A      6.719165  
     215A      6.913253   216A      6.918459   217A      7.148017  
     218A      7.159357   219A      7.275798   220A      7.288254  
     221A      7.307245   222A      7.311357   223A      7.322126  
     224A      7.323367   225A      7.360977   226A      7.364886  
     227A      7.368181   228A      7.388187   229A      7.543187  
     230A      7.550923   231A      7.908844   232A      7.914204  
     233A      7.935505   234A      7.938942   235A      8.820223  
     236A      8.827160   237A      9.840984   238A     15.752037  
     239A     15.778525   240A     30.245265   241A     30.258962  
     242A     30.493958   243A    197.077038  

    Final Occupation by Irrep:
              A 
    DOCC [    10 ]
    NA   [    10 ]
    NB   [    10 ]

  @DF-RHF Final Energy:  -152.12018856420775

   => Energetics <=

    Nuclear Repulsion Energy =             25.0980496923899601
    One-Electron Energy =                -259.5836766430729767
    Two-Electron Energy =                  82.3654383864752759
    Total Energy =                       -152.1201885642077514

Computation Completed


Properties will be evaluated at   0.000000,   0.000000,   0.000000 [a0]

Properties computed using the SCF density matrix


 Multipole Moments:

 ------------------------------------------------------------------------------------
     Multipole            Electronic (a.u.)      Nuclear  (a.u.)        Total (a.u.)
 ------------------------------------------------------------------------------------

 L = 1.  Multiply by 2.5417464519 to convert [e a0] to [Debye]
 Dipole X            :          0.0000000           -0.0000000            0.0000000
 Dipole Y            :          0.0000000            0.0000000            0.0000000
 Dipole Z            :          0.0000000            0.0000000            0.0000000
 Magnitude           :                                                    0.0000000

 ------------------------------------------------------------------------------------

*** tstop() called on moses-razer at Wed Jan 24 04:56:42 2024
Module time:
	user time   =      11.91 seconds =       0.20 minutes
	system time =       1.43 seconds =       0.02 minutes
	total time  =          5 seconds =       0.08 minutes
Total time:
	user time   =      53.98 seconds =       0.90 minutes
	system time =       7.33 seconds =       0.12 minutes
	total time  =         26 seconds =       0.43 minutes

*** tstart() called on moses-razer
*** at Wed Jan 24 04:56:42 2024


  //>>>>>>>>>>>>>>>>>>>>>>>>>>>>>>>>>>>//
  //               DFMP2               //
  //<<<<<<<<<<<<<<<<<<<<<<<<<<<<<<<<<<<//

   => Loading Basis Set <=

    Name: (AUG-CC-PVTZ AUX)
    Role: RIFIT
    Keyword: DF_BASIS_MP2
    atoms 1        entry K          line  1282 file /home/kchung25/anaconda3/envs/p415env/share/psi4/basis/def2-qzvpp-ri.gbs 
    atoms 2, 5     entry O          line   264 file /home/kchung25/anaconda3/envs/p415env/share/psi4/basis/aug-cc-pvtz-ri.gbs 
    atoms 3-4, 6-7 entry H          line    30 file /home/kchung25/anaconda3/envs/p415env/share/psi4/basis/aug-cc-pvtz-ri.gbs 

	 --------------------------------------------------------
	                          DF-MP2                         
	      2nd-Order Density-Fitted Moller-Plesset Theory     
	              RMP2 Wavefunction,   6 Threads             
	                                                         
	        Rob Parrish, Justin Turney, Andy Simmonett,      
	           Ed Hohenstein, and C. David Sherrill          
	 --------------------------------------------------------

   => Auxiliary Basis Set <=

  Basis Set: (AUG-CC-PVTZ AUX)
    Blend: AUG-CC-PVTZ-RI + DEF2-QZVPP-RI
    Number of shells: 161
    Number of basis functions: 595
    Number of Cartesian functions: 754
    Spherical Harmonics?: true
    Max angular momentum: 4

	 --------------------------------------------------------
	                 NBF =   243, NAUX =   595
	 --------------------------------------------------------
	   CLASS    FOCC     OCC    AOCC    AVIR     VIR    FVIR
	   PAIRS       0      10      10     233     233       0
	 --------------------------------------------------------

	-----------------------------------------------------------
	 ==================> DF-MP2 Energies <==================== 
	-----------------------------------------------------------
	 Reference Energy          =    -152.1201885642077514 [Eh]
	 Singles Energy            =      -0.0000000000000000 [Eh]
	 Same-Spin Energy          =      -0.1368650501097391 [Eh]
	 Opposite-Spin Energy      =      -0.4309680562676063 [Eh]
	 Correlation Energy        =      -0.5678331063773454 [Eh]
	 Total Energy              =    -152.6880216705851012 [Eh]
	-----------------------------------------------------------
	 ================> DF-SCS-MP2 Energies <================== 
	-----------------------------------------------------------
	 SCS Same-Spin Scale       =       0.3333333333333333 [-]
	 SCS Opposite-Spin Scale   =       1.2000000000000000 [-]
	 SCS Same-Spin Energy      =      -0.0456216833699130 [Eh]
	 SCS Opposite-Spin Energy  =      -0.5171616675211275 [Eh]
	 SCS Correlation Energy    =      -0.5627833508910405 [Eh]
	 SCS Total Energy          =    -152.6829719150987899 [Eh]
	-----------------------------------------------------------


*** tstop() called on moses-razer at Wed Jan 24 04:56:47 2024
Module time:
	user time   =       7.54 seconds =       0.13 minutes
	system time =       0.87 seconds =       0.01 minutes
	total time  =          5 seconds =       0.08 minutes
Total time:
	user time   =      61.52 seconds =       1.03 minutes
	system time =       8.20 seconds =       0.14 minutes
	total time  =         31 seconds =       0.52 minutes

    Psi4 stopped on: Wednesday, 24 January 2024 04:56AM
    Psi4 wall time for execution: 0:00:09.75


    -----------------------------------------------------------------------
          Psi4: An Open-Source Ab Initio Electronic Structure Package
                               Psi4 1.9 release

                         Git: Rev {} zzzzzzz 


    D. G. A. Smith, L. A. Burns, A. C. Simmonett, R. M. Parrish,
    M. C. Schieber, R. Galvelis, P. Kraus, H. Kruse, R. Di Remigio,
    A. Alenaizan, A. M. James, S. Lehtola, J. P. Misiewicz, M. Scheurer,
    R. A. Shaw, J. B. Schriber, Y. Xie, Z. L. Glick, D. A. Sirianni,
    J. S. O'Brien, J. M. Waldrop, A. Kumar, E. G. Hohenstein,
    B. P. Pritchard, B. R. Brooks, H. F. Schaefer III, A. Yu. Sokolov,
    K. Patkowski, A. E. DePrince III, U. Bozkaya, R. A. King,
    F. A. Evangelista, J. M. Turney, T. D. Crawford, C. D. Sherrill,
    J. Chem. Phys. 152(18) 184108 (2020). https://doi.org/10.1063/5.0006002

                            Additional Code Authors
    E. T. Seidl, C. L. Janssen, E. F. Valeev, M. L. Leininger,
    J. F. Gonthier, R. M. Richard, H. R. McAlexander, M. Saitow, X. Wang,
    P. Verma, M. H. Lechner, A. Jiang, S. Behnle, A. G. Heide,
    M. F. Herbst, and D. L. Poole

             Previous Authors, Complete List of Code Contributors,
                       and Citations for Specific Modules
    https://github.com/psi4/psi4/blob/master/codemeta.json
    https://github.com/psi4/psi4/graphs/contributors
    http://psicode.org/psi4manual/master/introduction.html#citing-psifour

    -----------------------------------------------------------------------


    Psi4 started on: Wednesday, 24 January 2024 04:56AM

    Process ID: 1192903
    Host:       moses-razer
    PSIDATADIR: /home/kchung25/anaconda3/envs/psi4_19/share/psi4
    Memory:     55.9 GiB
    Threads:    6
    
  ==> Input QCSchema <==

--------------------------------------------------------------------------
{'driver': 'energy',
 'extras': {'psiapi': True, 'wfn_qcvars_only': True},
 'id': None,
 'keywords': {'SCF_TYPE': 'DF', 'function_kwargs': {}},
 'model': {'basis': 'aug-cc-pvtz', 'method': 'mp2'},
 'molecule': {'atom_labels': ['', '', '', '', '', '', ''],
              'atomic_numbers': [19, 8, 1, 1, 8, 1, 1],
              'extras': {},
              'fix_com': True,
              'fix_orientation': True,
              'fix_symmetry': 'c1',
              'fragment_charges': [1.0, 0.0, 0.0],
              'fragment_multiplicities': [1, 1, 1],
              'fragments': [[0], [1, 2, 3], [4, 5, 6]],
              'geometry': [0.0, 0.0, 0.0, 7.1578913899262835, 0.0, 0.0, 8.278822125490228, 1.428466654947078, 0.0,
                           8.278822125490228, -1.428466654947078, 0.0, -7.1578913899262835, 0.0, 0.0,
                           -8.278822125490228, -1.428466654947078, 0.0, -8.278822125490228, 1.428466654947078, 0.0],
              'mass_numbers': [39, 16, 1, 1, 16, 1, 1],
              'masses': [38.9637064864, 15.99491461957, 1.00782503223, 1.00782503223, 15.99491461957, 1.00782503223,
                         1.00782503223],
              'molecular_charge': 1.0,
              'molecular_multiplicity': 1,
              'name': 'dimer',
              'provenance': {'creator': 'QCElemental',
                             'routine': 'qcelemental.molparse.from_string',
                             'version': '0.27.1'},
              'real': [True, False, False, False, True, True, True],
              'schema_name': 'qcschema_molecule',
              'schema_version': 2,
              'symbols': ['K', 'O', 'H', 'H', 'O', 'H', 'H'],
              'validated': True},
 'protocols': {'stdout': True},
 'provenance': {'creator': 'QCElemental', 'routine': 'qcelemental.models.results', 'version': '0.27.1'},
 'schema_name': 'qcschema_input',
 'schema_version': 1}
--------------------------------------------------------------------------

Scratch directory: /scratch/
   => Libint2 <=

    Primary   basis highest AM E, G, H:  5, 4, 3
    Auxiliary basis highest AM E, G, H:  6, 5, 4
    Onebody   basis highest AM E, G, H:  6, 5, 4
    Solid Harmonics ordering:            gaussian

*** tstart() called on moses-razer
*** at Wed Jan 24 04:56:47 2024

   => Loading Basis Set <=

    Name: AUG-CC-PVTZ
    Role: ORBITAL
    Keyword: BASIS
    atoms 1        entry K          line  1152 file /home/kchung25/anaconda3/envs/p415env/share/psi4/basis/aug-cc-pvtz.gbs 
    atoms 2, 5     entry O          line   331 file /home/kchung25/anaconda3/envs/p415env/share/psi4/basis/aug-cc-pvtz.gbs 
    atoms 3-4, 6-7 entry H          line    40 file /home/kchung25/anaconda3/envs/p415env/share/psi4/basis/aug-cc-pvtz.gbs 


         ---------------------------------------------------------
                                   SCF
               by Justin Turney, Rob Parrish, Andy Simmonett
                          and Daniel G. A. Smith
                              RHF Reference
                        6 Threads,  57220 MiB Core
         ---------------------------------------------------------

  ==> Geometry <==

    Molecular point group: c1
    Full point group: C2v

    Geometry (in Bohr), charge = 1, multiplicity = 1:

       Center              X                  Y                   Z               Mass       
    ------------   -----------------  -----------------  -----------------  -----------------
         K            0.000000000000     0.000000000000     0.000000000000    38.963706486400
      Gh(O)           7.157891389926     0.000000000000     0.000000000000    15.994914619570
      Gh(H)           8.278822125490     1.428466654947     0.000000000000     1.007825032230
      Gh(H)           8.278822125490    -1.428466654947     0.000000000000     1.007825032230
         O           -7.157891389926     0.000000000000     0.000000000000    15.994914619570
         H           -8.278822125490    -1.428466654947     0.000000000000     1.007825032230
         H           -8.278822125490     1.428466654947     0.000000000000     1.007825032230

  Running in c1 symmetry.

  Rotational constants: A =      7.31828  B =      0.03143  C =      0.03130 [cm^-1]
  Rotational constants: A = 219396.44560  B =    942.26967  C =    938.24009 [MHz]
  Nuclear repulsion =   34.920229817243303

  Charge       = 1
  Multiplicity = 1
  Electrons    = 28
  Nalpha       = 14
  Nbeta        = 14

  ==> Algorithm <==

  SCF Algorithm Type is DF.
  DIIS enabled.
  MOM disabled.
  Fractional occupation disabled.
  Guess Type is SAD.
  Energy threshold   = 1.00e-08
  Density threshold  = 1.00e-08
  Integral threshold = 1.00e-12

  ==> Primary Basis <==

  Basis Set: AUG-CC-PVTZ
    Blend: AUG-CC-PVTZ
    Number of shells: 83
    Number of basis functions: 243
    Number of Cartesian functions: 279
    Spherical Harmonics?: true
    Max angular momentum: 3

   => Loading Basis Set <=

    Name: (AUG-CC-PVTZ AUX)
    Role: JKFIT
    Keyword: DF_BASIS_SCF
    atoms 1        entry K          line  1152 file /home/kchung25/anaconda3/envs/p415env/share/psi4/basis/def2-universal-jkfit.gbs 
    atoms 2, 5     entry O          line   286 file /home/kchung25/anaconda3/envs/p415env/share/psi4/basis/aug-cc-pvtz-jkfit.gbs 
    atoms 3-4, 6-7 entry H          line    70 file /home/kchung25/anaconda3/envs/p415env/share/psi4/basis/aug-cc-pvtz-jkfit.gbs 

  ==> Integral Setup <==

  DFHelper Memory: AOs need 0.213 GiB; user supplied 41.910 GiB. 
  Using in-core AOs.

  ==> MemDFJK: Density-Fitted J/K Matrices <==

    J tasked:                   Yes
    K tasked:                   Yes
    wK tasked:                   No
    OpenMP threads:               6
    Memory [MiB]:             42915
    Algorithm:                 Core
    Schwarz Cutoff:           1E-12
    Mask sparsity (%):      19.3568
    Fitting Condition:        1E-10

   => Auxiliary Basis Set <=

  Basis Set: (AUG-CC-PVTZ AUX)
    Blend: AUG-CC-PVTZ-JKFIT + DEF2-UNIVERSAL-JKFIT
    Number of shells: 160
    Number of basis functions: 552
    Number of Cartesian functions: 685
    Spherical Harmonics?: true
    Max angular momentum: 4

  Minimum eigenvalue in the overlap matrix is 1.6781603776E-04.
  Reciprocal condition number of the overlap matrix is 1.9858122790E-05.
    Using symmetric orthogonalization.

  ==> Pre-Iterations <==

  SCF Guess: Superposition of Atomic Densities via on-the-fly atomic UHF (no occupation information).

   -------------------------
    Irrep   Nso     Nmo    
   -------------------------
     A        243     243 
   -------------------------
    Total     243     243
   -------------------------

  ==> Iterations <==

                           Total Energy        Delta E     RMS |[F,P]|

   @DF-RHF iter SAD:  -674.53817691570725   -6.74538e+02   0.00000e+00 
   @DF-RHF iter   1:  -675.01015365991759   -4.71977e-01   1.93293e-03 DIIS/ADIIS
   @DF-RHF iter   2:  -675.06283088981638   -5.26772e-02   1.29986e-03 DIIS/ADIIS
   @DF-RHF iter   3:  -675.09343505253037   -3.06042e-02   8.92476e-05 DIIS
   @DF-RHF iter   4:  -675.09381226765345   -3.77215e-04   2.07595e-05 DIIS
   @DF-RHF iter   5:  -675.09383439709541   -2.21294e-05   4.60358e-06 DIIS
   @DF-RHF iter   6:  -675.09383607753841   -1.68044e-06   9.83168e-07 DIIS
   @DF-RHF iter   7:  -675.09383616155219   -8.40138e-08   1.81621e-07 DIIS
   @DF-RHF iter   8:  -675.09383616401226   -2.46007e-09   3.51880e-08 DIIS
   @DF-RHF iter   9:  -675.09383616408422   -7.19638e-11   7.10689e-09 DIIS
  Energy and wave function converged.


  ==> Post-Iterations <==

    Orbital Energies [Eh]
    ---------------------

    Doubly Occupied:                                                      

       1A   -133.735812     2A    -20.700289     3A    -14.691298  
       4A    -11.721374     5A    -11.721371     6A    -11.721332  
       7A     -1.946576     8A     -1.484713     9A     -1.153622  
      10A     -1.153516    11A     -1.152418    12A     -0.846673  
      13A     -0.724705    14A     -0.644321  

    Virtual:                                                              

      15A     -0.132931    16A     -0.087817    17A     -0.086578  
      18A     -0.081930    19A     -0.059250    20A     -0.053653  
      21A     -0.053192    22A     -0.052963    23A     -0.052911  
      24A     -0.051275    25A     -0.043405    26A     -0.042868  
      27A     -0.040833    28A     -0.028567    29A     -0.028437  
      30A     -0.028420    31A     -0.027315    32A     -0.026641  
      33A     -0.019900    34A     -0.017731    35A     -0.013211  
      36A     -0.012666    37A     -0.010637    38A     -0.008264  
      39A      0.008189    40A      0.009573    41A      0.021768  
      42A      0.022435    43A      0.022802    44A      0.022820  
      45A      0.024389    46A      0.026595    47A      0.028730  
      48A      0.028779    49A      0.032152    50A      0.034384  
      51A      0.062091    52A      0.063408    53A      0.090778  
      54A      0.097022    55A      0.097649    56A      0.105253  
      57A      0.108709    58A      0.113272    59A      0.118174  
      60A      0.127889    61A      0.142295    62A      0.149302  
      63A      0.170720    64A      0.180425    65A      0.194353  
      66A      0.206873    67A      0.212165    68A      0.226452  
      69A      0.235162    70A      0.235455    71A      0.237227  
      72A      0.244242    73A      0.247125    74A      0.249631  
      75A      0.249691    76A      0.251743    77A      0.252438  
      78A      0.275218    79A      0.287106    80A      0.291900  
      81A      0.295221    82A      0.296955    83A      0.307834  
      84A      0.319015    85A      0.327277    86A      0.336949  
      87A      0.337026    88A      0.350129    89A      0.351875  
      90A      0.370687    91A      0.378470    92A      0.531169  
      93A      0.532037    94A      0.552068    95A      0.575441  
      96A      0.609243    97A      0.638070    98A      0.646282  
      99A      0.669325   100A      0.684264   101A      0.689283  
     102A      0.704775   103A      0.720425   104A      0.746032  
     105A      0.752074   106A      0.787000   107A      0.799617  
     108A      0.808144   109A      0.811266   110A      0.817406  
     111A      0.829164   112A      0.857500   113A      0.864207  
     114A      0.866558   115A      0.884626   116A      0.896869  
     117A      0.920744   118A      0.929394   119A      0.949721  
     120A      0.956818   121A      0.980943   122A      0.995601  
     123A      1.008235   124A      1.015583   125A      1.035850  
     126A      1.060587   127A      1.079817   128A      1.097978  
     129A      1.105145   130A      1.140284   131A      1.174065  
     132A      1.333421   133A      1.377639   134A      1.393912  
     135A      1.461674   136A      1.473987   137A      1.587106  
     138A      1.615374   139A      1.621347   140A      1.716881  
     141A      1.731712   142A      1.736478   143A      1.744608  
     144A      1.863570   145A      1.954964   146A      1.996825  
     147A      2.140734   148A      2.179134   149A      2.220361  
     150A      2.235968   151A      2.255852   152A      2.286773  
     153A      2.322324   154A      2.330013   155A      2.377830  
     156A      2.392253   157A      2.394335   158A      2.409832  
     159A      2.412216   160A      2.427767   161A      2.559930  
     162A      2.560988   163A      2.585346   164A      2.670706  
     165A      2.710454   166A      2.732082   167A      2.758625  
     168A      3.046372   169A      3.059561   170A      3.065399  
     171A      3.183147   172A      3.214307   173A      3.412410  
     174A      3.542440   175A      3.579725   176A      3.624226  
     177A      3.894824   178A      3.971142   179A      4.064328  
     180A      4.127149   181A      4.156013   182A      4.239521  
     183A      4.256320   184A      4.278466   185A      4.293460  
     186A      4.347918   187A      4.380382   188A      4.399860  
     189A      4.481613   190A      4.545822   191A      4.555101  
     192A      4.641024   193A      4.723865   194A      4.756853  
     195A      4.772584   196A      4.781005   197A      5.019624  
     198A      5.029716   199A      5.086098   200A      5.123225  
     201A      5.199909   202A      5.396234   203A      5.429732  
     204A      5.488932   205A      5.523916   206A      5.544989  
     207A      5.716213   208A      5.973833   209A      6.086274  
     210A      6.264696   211A      6.406834   212A      6.481263  
     213A      6.580103   214A      6.778313   215A      6.942112  
     216A      7.015368   217A      7.144067   218A      7.172404  
     219A      7.184631   220A      7.230662   221A      7.235038  
     222A      7.410572   223A      7.529197   224A      7.689519  
     225A      7.774107   226A      7.798943   227A      7.924878  
     228A      8.020913   229A      8.147270   230A      8.595623  
     231A      8.688551   232A      8.695489   233A      9.527728  
     234A      9.709201   235A      9.855238   236A     10.095480  
     237A     11.105347   238A     11.475992   239A     11.964700  
     240A     13.374065   241A     13.666472   242A     15.631556  
     243A     64.377553  

    Final Occupation by Irrep:
              A 
    DOCC [    14 ]
    NA   [    14 ]
    NB   [    14 ]

  @DF-RHF Final Energy:  -675.09383616408422

   => Energetics <=

    Nuclear Repulsion Energy =             34.9202298172433032
    One-Electron Energy =                -993.2320915562055461
    Two-Electron Energy =                 283.2180255748780269
    Total Energy =                       -675.0938361640842231

Computation Completed


Properties will be evaluated at   0.000000,   0.000000,   0.000000 [a0]

Properties computed using the SCF density matrix


 Multipole Moments:

 ------------------------------------------------------------------------------------
     Multipole            Electronic (a.u.)      Nuclear  (a.u.)        Total (a.u.)
 ------------------------------------------------------------------------------------

 L = 1.  Multiply by 2.5417464519 to convert [e a0] to [Debye]
 Dipole X            :         72.8508996          -73.8207754           -0.9698758
 Dipole Y            :          0.0000000            0.0000000            0.0000000
 Dipole Z            :          0.0000000            0.0000000            0.0000000
 Magnitude           :                                                    0.9698758

[...]
    https://github.com/psi4/psi4/graphs/contributors
    http://psicode.org/psi4manual/master/introduction.html#citing-psifour

    -----------------------------------------------------------------------


    Psi4 started on: Wednesday, 24 January 2024 04:56AM

    Process ID: 1192903
    Host:       moses-razer
    PSIDATADIR: /home/kchung25/anaconda3/envs/psi4_19/share/psi4
    Memory:     55.9 GiB
    Threads:    6
    
  ==> Input QCSchema <==

--------------------------------------------------------------------------
{'driver': 'energy',
 'extras': {'psiapi': True, 'wfn_qcvars_only': True},
 'id': None,
 'keywords': {'SCF_TYPE': 'DF', 'function_kwargs': {}},
 'model': {'basis': 'aug-cc-pvtz', 'method': 'mp2'},
 'molecule': {'atom_labels': ['', '', '', '', '', '', ''],
              'atomic_numbers': [19, 8, 1, 1, 8, 1, 1],
              'extras': {},
              'fix_com': True,
              'fix_orientation': True,
              'fix_symmetry': 'c1',
              'fragment_charges': [1.0, 0.0, 0.0],
              'fragment_multiplicities': [1, 1, 1],
              'fragments': [[0], [1, 2, 3], [4, 5, 6]],
              'geometry': [0.0, 0.0, 0.0, 7.1578913899262835, 0.0, 0.0, 8.278822125490228, 1.428466654947078, 0.0,
                           8.278822125490228, -1.428466654947078, 0.0, -7.1578913899262835, 0.0, 0.0,
                           -8.278822125490228, -1.428466654947078, 0.0, -8.278822125490228, 1.428466654947078, 0.0],
              'mass_numbers': [39, 16, 1, 1, 16, 1, 1],
              'masses': [38.9637064864, 15.99491461957, 1.00782503223, 1.00782503223, 15.99491461957, 1.00782503223,
                         1.00782503223],
              'molecular_charge': 1.0,
              'molecular_multiplicity': 1,
              'name': 'dimer',
              'provenance': {'creator': 'QCElemental',
                             'routine': 'qcelemental.molparse.from_string',
                             'version': '0.27.1'},
              'real': [True, True, True, True, True, True, True],
              'schema_name': 'qcschema_molecule',
              'schema_version': 2,
              'symbols': ['K', 'O', 'H', 'H', 'O', 'H', 'H'],
              'validated': True},
 'protocols': {'stdout': True},
 'provenance': {'creator': 'QCElemental', 'routine': 'qcelemental.models.results', 'version': '0.27.1'},
 'schema_name': 'qcschema_input',
 'schema_version': 1}
--------------------------------------------------------------------------

Scratch directory: /scratch/
   => Libint2 <=

    Primary   basis highest AM E, G, H:  5, 4, 3
    Auxiliary basis highest AM E, G, H:  6, 5, 4
    Onebody   basis highest AM E, G, H:  6, 5, 4
    Solid Harmonics ordering:            gaussian

*** tstart() called on moses-razer
*** at Wed Jan 24 04:57:21 2024

   => Loading Basis Set <=

    Name: AUG-CC-PVTZ
    Role: ORBITAL
    Keyword: BASIS
    atoms 1        entry K          line  1152 file /home/kchung25/anaconda3/envs/p415env/share/psi4/basis/aug-cc-pvtz.gbs 
    atoms 2, 5     entry O          line   331 file /home/kchung25/anaconda3/envs/p415env/share/psi4/basis/aug-cc-pvtz.gbs 
    atoms 3-4, 6-7 entry H          line    40 file /home/kchung25/anaconda3/envs/p415env/share/psi4/basis/aug-cc-pvtz.gbs 


         ---------------------------------------------------------
                                   SCF
               by Justin Turney, Rob Parrish, Andy Simmonett
                          and Daniel G. A. Smith
                              RHF Reference
                        6 Threads,  57220 MiB Core
         ---------------------------------------------------------

  ==> Geometry <==

    Molecular point group: c1
    Full point group: D2h

    Geometry (in Bohr), charge = 1, multiplicity = 1:

       Center              X                  Y                   Z               Mass       
    ------------   -----------------  -----------------  -----------------  -----------------
         K            0.000000000000     0.000000000000     0.000000000000    38.963706486400
         O            7.157891389926     0.000000000000     0.000000000000    15.994914619570
         H            8.278822125490     1.428466654947     0.000000000000     1.007825032230
         H            8.278822125490    -1.428466654947     0.000000000000     1.007825032230
         O           -7.157891389926     0.000000000000     0.000000000000    15.994914619570
         H           -8.278822125490    -1.428466654947     0.000000000000     1.007825032230
         H           -8.278822125490     1.428466654947     0.000000000000     1.007825032230

  Running in c1 symmetry.

  Rotational constants: A =      7.31828  B =      0.03143  C =      0.03130 [cm^-1]
  Rotational constants: A = 219396.44560  B =    942.26967  C =    938.24009 [MHz]
  Nuclear repulsion =   76.615032480753669

  Charge       = 1
  Multiplicity = 1
  Electrons    = 38
  Nalpha       = 19
  Nbeta        = 19

  ==> Algorithm <==

  SCF Algorithm Type is DF.
  DIIS enabled.
  MOM disabled.
  Fractional occupation disabled.
  Guess Type is SAD.
  Energy threshold   = 1.00e-08
  Density threshold  = 1.00e-08
  Integral threshold = 1.00e-12

  ==> Primary Basis <==

  Basis Set: AUG-CC-PVTZ
    Blend: AUG-CC-PVTZ
    Number of shells: 83
    Number of basis functions: 243
    Number of Cartesian functions: 279
    Spherical Harmonics?: true
    Max angular momentum: 3

   => Loading Basis Set <=

    Name: (AUG-CC-PVTZ AUX)
    Role: JKFIT
    Keyword: DF_BASIS_SCF
    atoms 1        entry K          line  1152 file /home/kchung25/anaconda3/envs/p415env/share/psi4/basis/def2-universal-jkfit.gbs 
    atoms 2, 5     entry O          line   286 file /home/kchung25/anaconda3/envs/p415env/share/psi4/basis/aug-cc-pvtz-jkfit.gbs 
    atoms 3-4, 6-7 entry H          line    70 file /home/kchung25/anaconda3/envs/p415env/share/psi4/basis/aug-cc-pvtz-jkfit.gbs 

  ==> Integral Setup <==

  DFHelper Memory: AOs need 0.213 GiB; user supplied 41.910 GiB. 
  Using in-core AOs.

  ==> MemDFJK: Density-Fitted J/K Matrices <==

    J tasked:                   Yes
    K tasked:                   Yes
    wK tasked:                   No
    OpenMP threads:               6
    Memory [MiB]:             42915
    Algorithm:                 Core
    Schwarz Cutoff:           1E-12
    Mask sparsity (%):      19.3568
    Fitting Condition:        1E-10

   => Auxiliary Basis Set <=

  Basis Set: (AUG-CC-PVTZ AUX)
    Blend: AUG-CC-PVTZ-JKFIT + DEF2-UNIVERSAL-JKFIT
    Number of shells: 160
    Number of basis functions: 552
    Number of Cartesian functions: 685
    Spherical Harmonics?: true
    Max angular momentum: 4

  Minimum eigenvalue in the overlap matrix is 1.6781603776E-04.
  Reciprocal condition number of the overlap matrix is 1.9858122790E-05.
    Using symmetric orthogonalization.

  ==> Pre-Iterations <==

  SCF Guess: Superposition of Atomic Densities via on-the-fly atomic UHF (no occupation information).

   -------------------------
    Irrep   Nso     Nmo    
   -------------------------
     A        243     243 
   -------------------------
    Total     243     243
   -------------------------

  ==> Iterations <==

                           Total Energy        Delta E     RMS |[F,P]|

   @DF-RHF iter SAD:  -750.02458474724483   -7.50025e+02   0.00000e+00 
   @DF-RHF iter   1:  -751.00174562512734   -9.77161e-01   2.73558e-03 DIIS/ADIIS
   @DF-RHF iter   2:  -751.10725606099936   -1.05510e-01   1.84113e-03 DIIS/ADIIS
   @DF-RHF iter   3:  -751.16866916252036   -6.14131e-02   1.26842e-04 DIIS/ADIIS
   @DF-RHF iter   4:  -751.16942785107619   -7.58689e-04   2.94206e-05 DIIS
   @DF-RHF iter   5:  -751.16947245380197   -4.46027e-05   6.52327e-06 DIIS
   @DF-RHF iter   6:  -751.16947584791410   -3.39411e-06   1.38466e-06 DIIS
   @DF-RHF iter   7:  -751.16947601588367   -1.67970e-07   2.42514e-07 DIIS
   @DF-RHF iter   8:  -751.16947602035043   -4.46676e-09   3.78659e-08 DIIS
   @DF-RHF iter   9:  -751.16947602043172   -8.12861e-11   8.50677e-09 DIIS
  Energy and wave function converged.


  ==> Post-Iterations <==

    Orbital Energies [Eh]
    ---------------------

    Doubly Occupied:                                                      

       1A   -133.718135     2A    -20.695569     3A    -20.695568  
       4A    -14.673663     5A    -11.703754     6A    -11.703747  
       7A    -11.703664     8A     -1.929046     9A     -1.480003  
      10A     -1.480002    11A     -1.136567    12A     -1.136358  
      13A     -1.134121    14A     -0.841966    15A     -0.841966  
      16A     -0.719839    17A     -0.719686    18A     -0.639545  
      19A     -0.639544  

    Virtual:                                                              

      20A     -0.117653    21A     -0.080564    22A     -0.077799  
      23A     -0.071921    24A     -0.058262    25A     -0.050437  
      26A     -0.048980    27A     -0.048930    28A     -0.047638  
      29A     -0.046574    30A     -0.041994    31A     -0.040811  
      32A     -0.038651    33A     -0.025557    34A     -0.025487  
      35A     -0.024934    36A     -0.022119    37A     -0.020577  
      38A     -0.020143    39A     -0.018329    40A     -0.009887  
      41A     -0.009006    42A     -0.004232    43A     -0.002559  
      44A      0.004051    45A      0.007830    46A      0.027367  
      47A      0.028159    48A      0.028563    49A      0.028577  
      50A      0.037693    51A      0.037870    52A      0.037879  
      53A      0.041425    54A      0.045040    55A      0.061604  
      56A      0.069031    57A      0.072569    58A      0.103878  
      59A      0.105805    60A      0.106950    61A      0.112338  
      62A      0.116413    63A      0.122564    64A      0.122603  
      65A      0.127452    66A      0.141859    67A      0.149210  
      68A      0.167561    69A      0.177744    70A      0.186179  
      71A      0.193275    72A      0.223484    73A      0.226681  
      74A      0.233597    75A      0.249690    76A      0.250987  
      77A      0.259655    78A      0.260210    79A      0.260745  
      80A      0.262269    81A      0.264994    82A      0.280633  
      83A      0.289932    84A      0.289957    85A      0.297384  
      86A      0.301421    87A      0.302734    88A      0.303820  
      89A      0.329147    90A      0.329395    91A      0.334773  
      92A      0.350617    93A      0.372828    94A      0.373796  
      95A      0.376027    96A      0.387892    97A      0.503411  
      98A      0.573554    99A      0.580409   100A      0.584437  
     101A      0.608768   102A      0.619069   103A      0.627910  
     104A      0.652292   105A      0.659658   106A      0.689084  
     107A      0.722207   108A      0.739052   109A      0.761891  
     110A      0.767371   111A      0.767918   112A      0.806190  
     113A      0.813793   114A      0.827918   115A      0.832045  
     116A      0.836406   117A      0.845989   118A      0.869462  
     119A      0.875215   120A      0.880408   121A      0.907518  
     122A      0.920908   123A      0.931196   124A      0.951067  
     125A      0.957149   126A      0.977204   127A      0.996366  
     128A      0.996766   129A      1.003030   130A      1.022867  
     131A      1.048900   132A      1.062500   133A      1.067354  
     134A      1.093655   135A      1.114623   136A      1.149840  
     137A      1.215369   138A      1.392627   139A      1.404327  
     140A      1.443533   141A      1.467513   142A      1.490025  
     143A      1.491497   144A      1.718438   145A      1.723601  
     146A      1.729170   147A      1.756890   148A      1.867928  
     149A      1.867956   150A      1.998019   151A      2.004529  
     152A      2.139264   153A      2.152611   154A      2.183513  
     155A      2.184596   156A      2.212082   157A      2.238381  
     158A      2.289058   159A      2.295244   160A      2.310078  
     161A      2.319728   162A      2.339202   163A      2.354293  
     164A      2.379919   165A      2.432020   166A      2.552966  
     167A      2.575486   168A      2.586621   169A      2.593653  
     170A      2.671377   171A      2.678802   172A      2.696791  
     173A      2.738953   174A      2.760047   175A      2.766568  
     176A      3.564076   177A      3.601127   178A      3.620491  
     179A      3.636896   180A      3.898930   181A      3.899600  
     182A      3.972962   183A      3.978467   184A      4.063297  
     185A      4.074288   186A      4.130108   187A      4.133225  
     188A      4.159513   189A      4.161624   190A      4.257361  
     191A      4.264258   192A      4.270518   193A      4.288192  
     194A      4.296174   195A      4.308078   196A      4.402124  
     197A      4.406711   198A      4.641330   199A      4.652876  
     200A      4.728104   201A      4.728607   202A      5.024116  
     203A      5.024325   204A      5.033965   205A      5.034295  
     206A      5.126603   207A      5.129079   208A      5.201540  
     209A      5.207393   210A      5.400103   211A      5.401556  
     212A      5.539152   213A      5.560282   214A      6.078127  
     215A      6.104522   216A      6.393131   217A      6.430533  
     218A      6.584609   219A      6.585217   220A      6.780579  
     221A      6.785543   222A      7.014488   223A      7.025918  
     224A      7.142712   225A      7.155078   226A      7.175014  
     227A      7.179211   228A      7.188846   229A      7.189979  
     230A      7.226645   231A      7.233679   232A      7.237101  
     233A      7.252743   234A      7.411836   235A      7.419259  
     236A      7.776183   237A      7.781664   238A      7.802014  
     239A      7.805450   240A      8.689853   241A      8.696818  
     242A     15.622635   243A     15.649690  

    Final Occupation by Irrep:
              A 
    DOCC [    19 ]
    NA   [    19 ]
    NB   [    19 ]

  @DF-RHF Final Energy:  -751.16947602043172

   => Energetics <=

    Nuclear Repulsion Energy =             76.6150324807536691
    One-Electron Energy =               -1180.3835227740198661
    Two-Electron Energy =                 352.5990142728345518
    Total Energy =                       -751.1694760204317163

Computation Completed


Properties will be evaluated at   0.000000,   0.000000,   0.000000 [a0]

Properties computed using the SCF density matrix


 Multipole Moments:

 ------------------------------------------------------------------------------------
     Multipole            Electronic (a.u.)      Nuclear  (a.u.)        Total (a.u.)
 ------------------------------------------------------------------------------------

 L = 1.  Multiply by 2.5417464519 to convert [e a0] to [Debye]
 Dipole X            :          0.0000000           -0.0000000            0.0000000
 Dipole Y            :          0.0000000            0.0000000            0.0000000
 Dipole Z            :         -0.0000000            0.0000000           -0.0000000
 Magnitude           :                                                    0.0000000

 ------------------------------------------------------------------------------------

*** tstop() called on moses-razer at Wed Jan 24 04:57:28 2024
Module time:
	user time   =      16.31 seconds =       0.27 minutes
	system time =       2.76 seconds =       0.05 minutes
	total time  =          7 seconds =       0.12 minutes
Total time:
	user time   =     145.36 seconds =       2.42 minutes
	system time =      20.21 seconds =       0.34 minutes
	total time  =         72 seconds =       1.20 minutes

*** tstart() called on moses-razer
*** at Wed Jan 24 04:57:28 2024


  //>>>>>>>>>>>>>>>>>>>>>>>>>>>>>>>>>>>//
  //               DFMP2               //
  //<<<<<<<<<<<<<<<<<<<<<<<<<<<<<<<<<<<//

   => Loading Basis Set <=

    Name: (AUG-CC-PVTZ AUX)
    Role: RIFIT
    Keyword: DF_BASIS_MP2
    atoms 1        entry K          line  1282 file /home/kchung25/anaconda3/envs/p415env/share/psi4/basis/def2-qzvpp-ri.gbs 
    atoms 2, 5     entry O          line   264 file /home/kchung25/anaconda3/envs/p415env/share/psi4/basis/aug-cc-pvtz-ri.gbs 
    atoms 3-4, 6-7 entry H          line    30 file /home/kchung25/anaconda3/envs/p415env/share/psi4/basis/aug-cc-pvtz-ri.gbs 

	 --------------------------------------------------------
	                          DF-MP2                         
	      2nd-Order Density-Fitted Moller-Plesset Theory     
	              RMP2 Wavefunction,   6 Threads             
	                                                         
	        Rob Parrish, Justin Turney, Andy Simmonett,      
	           Ed Hohenstein, and C. David Sherrill          
	 --------------------------------------------------------

   => Auxiliary Basis Set <=

  Basis Set: (AUG-CC-PVTZ AUX)
    Blend: AUG-CC-PVTZ-RI + DEF2-QZVPP-RI
    Number of shells: 161
    Number of basis functions: 595
    Number of Cartesian functions: 754
    Spherical Harmonics?: true
    Max angular momentum: 4

	 --------------------------------------------------------
	                 NBF =   243, NAUX =   595
	 --------------------------------------------------------
	   CLASS    FOCC     OCC    AOCC    AVIR     VIR    FVIR
	   PAIRS       0      19      19     224     224       0
	 --------------------------------------------------------

	-----------------------------------------------------------
	 ==================> DF-MP2 Energies <==================== 
	-----------------------------------------------------------
	 Reference Energy          =    -751.1694760204317163 [Eh]
	 Singles Energy            =      -0.0000000000000000 [Eh]
	 Same-Spin Energy          =      -0.1632845889018602 [Eh]
	 Opposite-Spin Energy      =      -0.4912711847321185 [Eh]
	 Correlation Energy        =      -0.6545557736339787 [Eh]
	 Total Energy              =    -751.8240317940657178 [Eh]
	-----------------------------------------------------------
	 ================> DF-SCS-MP2 Energies <================== 
	-----------------------------------------------------------
	 SCS Same-Spin Scale       =       0.3333333333333333 [-]
	 SCS Opposite-Spin Scale   =       1.2000000000000000 [-]
	 SCS Same-Spin Energy      =      -0.0544281963006201 [Eh]
	 SCS Opposite-Spin Energy  =      -0.5895254216785422 [Eh]
	 SCS Correlation Energy    =      -0.6439536179791622 [Eh]
	 SCS Total Energy          =    -751.8134296384108666 [Eh]
	-----------------------------------------------------------


*** tstop() called on moses-razer at Wed Jan 24 04:57:33 2024
Module time:
	user time   =       7.87 seconds =       0.13 minutes
	system time =       0.91 seconds =       0.02 minutes
	total time  =          5 seconds =       0.08 minutes
Total time:
	user time   =     153.23 seconds =       2.55 minutes
	system time =      21.12 seconds =       0.35 minutes
	total time  =         77 seconds =       1.28 minutes

    Psi4 stopped on: Wednesday, 24 January 2024 04:57AM
    Psi4 wall time for execution: 0:00:12.25


  //>>>>>>>>>>>>>>>>>>>>>>>>>>>>>>>>>>>//
  //          ManyBody Results         //
  //<<<<<<<<<<<<<<<<<<<<<<<<<<<<<<<<<<<//


   ==> N-Body: Counterpoise Corrected (CP) energies <==

        n-Body     Total Energy            Interaction Energy                          N-body Contribution to Interaction Energy
                   [Eh]                    [Eh]                  [kcal/mol]            [Eh]                  [kcal/mol]
             1  N/A                         0.000000000000        0.000000000000        0.000000000000        0.000000000000
             2  N/A                        -0.030829057165      -19.345525438930       -0.030829057165      -19.345525438930
  FULL/RTN   3  N/A                        -0.030526201817      -19.155480838753        0.000302855348        0.190044600177


    Psi4 stopped on: Wednesday, 24 January 2024 04:57AM
    Psi4 wall time for execution: 0:01:19.12

*** Psi4 exiting successfully. Buy a developer a beer!
