
    -----------------------------------------------------------------------
          Psi4: An Open-Source Ab Initio Electronic Structure Package
                               Psi4 1.8.2 release

                         Git: Rev {} zzzzzzz 


    D. G. A. Smith, L. A. Burns, A. C. Simmonett, R. M. Parrish,
    M. C. Schieber, R. Galvelis, P. Kraus, H. Kruse, R. Di Remigio,
    A. Alenaizan, A. M. James, S. Lehtola, J. P. Misiewicz, M. Scheurer,
    R. A. Shaw, J. B. Schriber, Y. Xie, Z. L. Glick, D. A. Sirianni,
    J. S. O'Brien, J. M. Waldrop, A. Kumar, E. G. Hohenstein,
    B. P. Pritchard, B. R. Brooks, H. F. Schaefer III, A. Yu. Sokolov,
    K. Patkowski, A. E. DePrince III, U. Bozkaya, R. A. King,
    F. A. Evangelista, J. M. Turney, T. D. Crawford, C. D. Sherrill,
    J. Chem. Phys. 152(18) 184108 (2020). https://doi.org/10.1063/5.0006002

                            Additional Code Authors
    E. T. Seidl, C. L. Janssen, E. F. Valeev, M. L. Leininger,
    J. F. Gonthier, R. M. Richard, H. R. McAlexander, M. Saitow, X. Wang,
    P. Verma, M. H. Lechner, A. Jiang, S. Behnle, A. G. Heide,
    M. F. Herbst, and D. L. Poole

             Previous Authors, Complete List of Code Contributors,
                       and Citations for Specific Modules
    https://github.com/psi4/psi4/blob/master/codemeta.json
    https://github.com/psi4/psi4/graphs/contributors
    http://psicode.org/psi4manual/master/introduction.html#citing-psifour

    -----------------------------------------------------------------------


    Psi4 started on: Monday, 22 January 2024 03:13AM

    Process ID: 28888
    Host:       ddmfs1
    PSIDATADIR: /ddmfs1b/softs/psi4conda/share/psi4
    Memory:     500.0 MiB
    Threads:    20
    
  ==> Input File <==

--------------------------------------------------------------------------
MEMORY 60 GB

molecule dimer {
-1 1
F      1.566997     0.000000     0.000000
--
0 1
O      0.000000    -0.007351     1.810088
H     -0.603559     0.630161     1.426970
H      0.742517    -0.027506     1.118978
--
0 1
O      0.000000     0.007351    -1.810088
H     -0.603559    -0.630161    -1.426970
H      0.742517     0.027506    -1.118978

units ang
no_reorient
no_com
symmetry c1
}

set {
basis        aug-cc-pVTZ
scf_type     df
}

energy("mp2", bsse_type="cp")
--------------------------------------------------------------------------

  Memory set to  55.879 GiB by Python driver.

Scratch directory: /ddmfs1a/scratch/

  //>>>>>>>>>>>>>>>>>>>>>>>>>>>>>>>>>>>>>>>>//
  // ManyBody Setup: N-Body Levels [1, 2, 3]//
  //<<<<<<<<<<<<<<<<<<<<<<<<<<<<<<<<<<<<<<<<//

        Number of 1-body computations:     3
        Number of 2-body computations:     3
        Number of 3-body computations:     1

    -----------------------------------------------------------------------
          Psi4: An Open-Source Ab Initio Electronic Structure Package
                               Psi4 1.8.2 release

                         Git: Rev {} zzzzzzz 


    D. G. A. Smith, L. A. Burns, A. C. Simmonett, R. M. Parrish,
    M. C. Schieber, R. Galvelis, P. Kraus, H. Kruse, R. Di Remigio,
    A. Alenaizan, A. M. James, S. Lehtola, J. P. Misiewicz, M. Scheurer,
    R. A. Shaw, J. B. Schriber, Y. Xie, Z. L. Glick, D. A. Sirianni,
    J. S. O'Brien, J. M. Waldrop, A. Kumar, E. G. Hohenstein,
    B. P. Pritchard, B. R. Brooks, H. F. Schaefer III, A. Yu. Sokolov,
    K. Patkowski, A. E. DePrince III, U. Bozkaya, R. A. King,
    F. A. Evangelista, J. M. Turney, T. D. Crawford, C. D. Sherrill,
    J. Chem. Phys. 152(18) 184108 (2020). https://doi.org/10.1063/5.0006002

                            Additional Code Authors
    E. T. Seidl, C. L. Janssen, E. F. Valeev, M. L. Leininger,
    J. F. Gonthier, R. M. Richard, H. R. McAlexander, M. Saitow, X. Wang,
    P. Verma, M. H. Lechner, A. Jiang, S. Behnle, A. G. Heide,
    M. F. Herbst, and D. L. Poole

             Previous Authors, Complete List of Code Contributors,
                       and Citations for Specific Modules
    https://github.com/psi4/psi4/blob/master/codemeta.json
    https://github.com/psi4/psi4/graphs/contributors
    http://psicode.org/psi4manual/master/introduction.html#citing-psifour

    -----------------------------------------------------------------------


    Psi4 started on: Monday, 22 January 2024 03:13AM

    Process ID: 28888
    Host:       ddmfs1
    PSIDATADIR: /ddmfs1b/softs/psi4conda/share/psi4
    Memory:     55.9 GiB
    Threads:    20
    
  ==> Input QCSchema <==

--------------------------------------------------------------------------
{'driver': 'energy',
 'extras': {'psiapi': True, 'wfn_qcvars_only': True},
 'id': None,
 'keywords': {'SCF_TYPE': 'DF', 'function_kwargs': {}},
 'model': {'basis': 'aug-cc-pvtz', 'method': 'mp2'},
 'molecule': {'atom_labels': ['', '', '', '', '', '', ''],
              'atomic_numbers': [9, 8, 1, 1, 8, 1, 1],
              'extras': {},
              'fix_com': True,
              'fix_orientation': True,
              'fix_symmetry': 'c1',
              'fragment_charges': [-1.0, 0.0, 0.0],
              'fragment_multiplicities': [1, 1, 1],
              'fragments': [[0], [1, 2, 3], [4, 5, 6]],
              'geometry': [2.96119516941404, 0.0, 0.0, 0.0, -0.013891376748240494, 3.4205705829777084,
                           -1.1405612105552012, 1.1908317049446304, 2.696582489244557, 1.4031537734965702,
                           -0.05197880680684302, 2.1145619604125496, 0.0, 0.013891376748240494, -3.4205705829777084,
                           -1.1405612105552012, -1.1908317049446304, -2.696582489244557, 1.4031537734965702,
                           0.05197880680684302, -2.1145619604125496],
              'mass_numbers': [19, 16, 1, 1, 16, 1, 1],
              'masses': [18.99840316273, 15.99491461957, 1.00782503223, 1.00782503223, 15.99491461957, 1.00782503223,
                         1.00782503223],
              'molecular_charge': -1.0,
              'molecular_multiplicity': 1,
              'name': 'dimer',
              'provenance': {'creator': 'QCElemental',
                             'routine': 'qcelemental.molparse.from_string',
                             'version': '0.26.0'},
              'real': [True, False, False, False, False, False, False],
              'schema_name': 'qcschema_molecule',
              'schema_version': 2,
              'symbols': ['F', 'O', 'H', 'H', 'O', 'H', 'H'],
              'validated': True},
 'protocols': {'stdout': True},
 'provenance': {'creator': 'QCElemental', 'routine': 'qcelemental.models.results', 'version': '0.26.0'},
 'schema_name': 'qcschema_input',
 'schema_version': 1}
--------------------------------------------------------------------------

Scratch directory: /ddmfs1a/scratch/
   => Libint2 <=

    Primary   basis highest AM E, G, H:  5, 4, 3
    Auxiliary basis highest AM E, G, H:  6, 5, 4
    Onebody   basis highest AM E, G, H:  6, 5, 4
    Solid Harmonics ordering:            gaussian

*** tstart() called on ddmfs1
*** at Mon Jan 22 03:13:34 2024

   => Loading Basis Set <=

    Name: AUG-CC-PVTZ
    Role: ORBITAL
    Keyword: BASIS
    atoms 1        entry F          line   377 file /ddmfs1b/softs/psi4conda/share/psi4/basis/aug-cc-pvtz.gbs 
    atoms 2, 5     entry O          line   331 file /ddmfs1b/softs/psi4conda/share/psi4/basis/aug-cc-pvtz.gbs 
    atoms 3-4, 6-7 entry H          line    40 file /ddmfs1b/softs/psi4conda/share/psi4/basis/aug-cc-pvtz.gbs 


         ---------------------------------------------------------
                                   SCF
               by Justin Turney, Rob Parrish, Andy Simmonett
                          and Daniel G. A. Smith
                              RHF Reference
                       20 Threads,  57220 MiB Core
         ---------------------------------------------------------

  ==> Geometry <==

    Molecular point group: c1
    Full point group: C2

    Geometry (in Bohr), charge = -1, multiplicity = 1:

       Center              X                  Y                   Z               Mass       
    ------------   -----------------  -----------------  -----------------  -----------------
         F            2.961195169414     0.000000000000     0.000000000000    18.998403162730
      Gh(O)           0.000000000000    -0.013891376748     3.420570582978    15.994914619570
      Gh(H)          -1.140561210555     1.190831704945     2.696582489245     1.007825032230
      Gh(H)           1.403153773497    -0.051978806807     2.114561960413     1.007825032230
      Gh(O)           0.000000000000     0.013891376748    -3.420570582978    15.994914619570
      Gh(H)          -1.140561210555    -1.190831704945    -2.696582489245     1.007825032230
      Gh(H)           1.403153773497     0.051978806807    -2.114561960413     1.007825032230

  Running in c1 symmetry.

  Rotational constants: A =      0.34205  B =      0.15019  C =      0.10539 [cm^-1]
  Rotational constants: A =  10254.51445  B =   4502.50685  C =   3159.56951 [MHz]
  Nuclear repulsion =    0.000000000000000

  Charge       = -1
  Multiplicity = 1
  Electrons    = 10
  Nalpha       = 5
  Nbeta        = 5

  ==> Algorithm <==

  SCF Algorithm Type is DF.
  DIIS enabled.
  MOM disabled.
  Fractional occupation disabled.
  Guess Type is SAD.
  Energy threshold   = 1.00e-08
  Density threshold  = 1.00e-08
  Integral threshold = 1.00e-12

  ==> Primary Basis <==

  Basis Set: AUG-CC-PVTZ
    Blend: AUG-CC-PVTZ
    Number of shells: 78
    Number of basis functions: 230
    Number of Cartesian functions: 265
    Spherical Harmonics?: true
    Max angular momentum: 3

   => Loading Basis Set <=

    Name: (AUG-CC-PVTZ AUX)
    Role: JKFIT
    Keyword: DF_BASIS_SCF
    atoms 1        entry F          line   348 file /ddmfs1b/softs/psi4conda/share/psi4/basis/aug-cc-pvtz-jkfit.gbs 
    atoms 2, 5     entry O          line   286 file /ddmfs1b/softs/psi4conda/share/psi4/basis/aug-cc-pvtz-jkfit.gbs 
    atoms 3-4, 6-7 entry H          line    70 file /ddmfs1b/softs/psi4conda/share/psi4/basis/aug-cc-pvtz-jkfit.gbs 

  ==> Integral Setup <==

  DFHelper Memory: AOs need 0.213 GiB; user supplied 41.910 GiB. 
  Using in-core AOs.

  ==> MemDFJK: Density-Fitted J/K Matrices <==

    J tasked:                   Yes
    K tasked:                   Yes
    wK tasked:                   No
    OpenMP threads:              20
    Memory [MiB]:             42915
    Algorithm:                 Core
    Schwarz Cutoff:           1E-12
    Mask sparsity (%):       1.2817
    Fitting Condition:        1E-10

   => Auxiliary Basis Set <=

  Basis Set: (AUG-CC-PVTZ AUX)
    Blend: AUG-CC-PVTZ-JKFIT
    Number of shells: 146
    Number of basis functions: 496
    Number of Cartesian functions: 613
    Spherical Harmonics?: true
    Max angular momentum: 4

  Minimum eigenvalue in the overlap matrix is 2.4614743176E-04.
  Reciprocal condition number of the overlap matrix is 2.3932592839E-05.
    Using symmetric orthogonalization.

  ==> Pre-Iterations <==

  SCF Guess: Superposition of Atomic Densities via on-the-fly atomic UHF (no occupation information).

   -------------------------
    Irrep   Nso     Nmo    
   -------------------------
     A        230     230 
   -------------------------
    Total     230     230
   -------------------------

  ==> Iterations <==

                           Total Energy        Delta E     RMS |[F,P]|

   @DF-RHF iter SAD:   -98.82535133836679   -9.88254e+01   0.00000e+00 
   @DF-RHF iter   1:   -99.33790429638704   -5.12553e-01   2.37428e-03 DIIS/ADIIS
   @DF-RHF iter   2:   -99.37335080983507   -3.54465e-02   2.31616e-03 DIIS/ADIIS
   @DF-RHF iter   3:   -99.45093722424878   -7.75864e-02   7.81131e-05 DIIS
   @DF-RHF iter   4:   -99.45100789118125   -7.06669e-05   2.81747e-05 DIIS
   @DF-RHF iter   5:   -99.45101852621139   -1.06350e-05   1.90272e-06 DIIS
   @DF-RHF iter   6:   -99.45101863697447   -1.10763e-07   1.85330e-07 DIIS
   @DF-RHF iter   7:   -99.45101863837114   -1.39667e-09   2.73659e-08 DIIS
   @DF-RHF iter   8:   -99.45101863843324   -6.21014e-11   6.75386e-09 DIIS
  Energy and wave function converged.


  ==> Post-Iterations <==

    Orbital Energies [Eh]
    ---------------------

    Doubly Occupied:                                                      

       1A    -25.833715     2A     -1.075960     3A     -0.180982  
       4A     -0.180970     5A     -0.180887  

    Virtual:                                                              

       6A      0.142077     7A      0.153193     8A      0.177071  
       9A      0.190844    10A      0.263226    11A      0.277408  
      12A      0.279509    13A      0.280935    14A      0.298199  
      15A      0.318715    16A      0.327078    17A      0.347088  
      18A      0.398855    19A      0.404851    20A      0.435846  
      21A      0.446212    22A      0.459194    23A      0.461123  
      24A      0.489966    25A      0.495400    26A      0.530186  
      27A      0.542661    28A      0.552287    29A      0.568165  
      30A      0.596115    31A      0.606218    32A      0.617702  
      33A      0.654801    34A      0.659786    35A      0.701135  
      36A      0.754762    37A      0.760650    38A      0.875688  
      39A      0.892571    40A      0.911622    41A      0.925623  
      42A      0.951322    43A      0.965949    44A      0.970646  
      45A      0.987923    46A      1.001458    47A      1.025735  
      48A      1.028948    49A      1.035758    50A      1.058474  
      51A      1.059107    52A      1.065774    53A      1.093028  
      54A      1.106297    55A      1.142281    56A      1.144435  
      57A      1.159954    58A      1.173833    59A      1.194431  
      60A      1.243268    61A      1.260714    62A      1.281541  
      63A      1.310188    64A      1.324501    65A      1.369912  
      66A      1.371651    67A      1.412351    68A      1.428123  
      69A      1.448930    70A      1.499466    71A      1.518273  
      72A      1.527501    73A      1.579726    74A      1.579730  
      75A      1.631669    76A      1.644082    77A      1.665963  
      78A      1.677910    79A      1.720357    80A      1.727481  
      81A      1.879781    82A      1.891149    83A      1.899183  
      84A      1.928230    85A      1.958854    86A      1.969787  
      87A      2.005549    88A      2.007413    89A      2.037750  
      90A      2.051394    91A      2.083654    92A      2.084772  
      93A      2.148918    94A      2.171866    95A      2.253145  
      96A      2.279214    97A      2.404140    98A      2.422607  
      99A      2.446787   100A      2.653724   101A      2.669141  
     102A      2.688921   103A      2.696381   104A      2.728347  
     105A      2.746588   106A      2.798021   107A      2.824285  
     108A      2.866560   109A      2.889169   110A      2.895762  
     111A      2.917679   112A      2.960041   113A      2.966275  
     114A      3.037533   115A      3.108482   116A      3.129739  
     117A      3.179233   118A      3.184227   119A      3.329292  
     120A      3.342945   121A      3.351103   122A      3.363378  
     123A      3.419773   124A      3.420548   125A      3.445524  
     126A      3.453521   127A      3.477599   128A      3.608559  
     129A      3.655279   130A      3.663404   131A      3.693441  
     132A      3.747788   133A      3.786769   134A      3.823925  
     135A      3.853398   136A      3.869808   137A      3.981539  
     138A      3.990011   139A      3.992050   140A      4.079163  
     141A      4.122487   142A      4.242858   143A      4.466328  
     144A      4.523444   145A      4.642665   146A      4.647107  
     147A      4.690122   148A      4.711224   149A      4.832338  
     150A      4.890421   151A      4.919598   152A      4.960956  
     153A      5.034355   154A      5.047711   155A      5.077455  
     156A      5.083418   157A      5.273008   158A      5.276872  
     159A      5.378273   160A      5.427976   161A      5.523572  
     162A      5.585259   163A      5.594352   164A      5.636248  
     165A      5.838153   166A      5.842719   167A      5.952968  
     168A      6.006067   169A      6.034367   170A      6.061460  
     171A      6.077072   172A      6.094872   173A      6.166365  
     174A      6.255693   175A      6.267071   176A      6.642364  
     177A      6.692370   178A      6.802855   179A      6.819832  
     180A      7.189790   181A      7.192132   182A      7.274715  
     183A      7.411483   184A      7.961402   185A      7.962546  
     186A      8.095712   187A      8.136376   188A      8.254217  
     189A      8.373007   190A      8.394980   191A      8.397365  
     192A      8.542940   193A      8.571213   194A      9.010809  
     195A      9.021249   196A      9.052767   197A      9.061813  
     198A      9.460791   199A      9.488716   200A      9.714208  
     201A      9.728211   202A      9.801870   203A      9.836745  
     204A      9.912852   205A      9.940136   206A      9.949381  
     207A     10.002386   208A     10.020400   209A     10.036717  
     210A     10.123184   211A     10.129354   212A     10.261582  
     213A     10.293587   214A     10.337490   215A     10.546196  
     216A     10.587818   217A     10.732131   218A     11.594741  
     219A     11.599234   220A     12.000793   221A     12.023010  
     222A     12.511722   223A     12.518285   224A     13.797860  
     225A     13.865014   226A     14.168417   227A     14.171776  
     228A     16.563756   229A     65.784061   230A     65.915023  

    Final Occupation by Irrep:
              A 
    DOCC [     5 ]
    NA   [     5 ]
    NB   [     5 ]

  @DF-RHF Final Energy:   -99.45101863843324

   => Energetics <=

    Nuclear Repulsion Energy =              0.0000000000000000
    One-Electron Energy =                -143.9970112618752296
    Two-Electron Energy =                  44.5459926234419896
    Total Energy =                        -99.4510186384332400

Computation Completed


Properties will be evaluated at   0.000000,   0.000000,   0.000000 [a0]

Properties computed using the SCF density matrix


 Multipole Moments:

 ------------------------------------------------------------------------------------
     Multipole            Electronic (a.u.)      Nuclear  (a.u.)        Total (a.u.)
 ------------------------------------------------------------------------------------

 L = 1.  Multiply by 2.5417464519 to convert [e a0] to [Debye]
 Dipole X            :        -29.6114566           26.6507565           -2.9607000
 Dipole Y            :         -0.0000000            0.0000000           -0.0000000
 Dipole Z            :          0.0000000            0.0000000            0.0000000
 Magnitude           :                                                    2.9607000

 ------------------------------------------------------------------------------------

*** tstop() called on ddmfs1 at Mon Jan 22 03:13:35 2024
Module time:
	user time   =      18.76 seconds =       0.31 minutes
	system time =       0.93 seconds =       0.02 minutes
	total time  =          1 seconds =       0.02 minutes
Total time:
	user time   =      18.76 seconds =       0.31 minutes
	system time =       0.93 seconds =       0.02 minutes
	total time  =          1 seconds =       0.02 minutes

*** tstart() called on ddmfs1
*** at Mon Jan 22 03:13:35 2024


  //>>>>>>>>>>>>>>>>>>>>>>>>>>>>>>>>>>>//
  //               DFMP2               //
  //<<<<<<<<<<<<<<<<<<<<<<<<<<<<<<<<<<<//

   => Loading Basis Set <=

    Name: (AUG-CC-PVTZ AUX)
    Role: RIFIT
    Keyword: DF_BASIS_MP2
    atoms 1        entry F          line   322 file /ddmfs1b/softs/psi4conda/share/psi4/basis/aug-cc-pvtz-ri.gbs 
    atoms 2, 5     entry O          line   264 file /ddmfs1b/softs/psi4conda/share/psi4/basis/aug-cc-pvtz-ri.gbs 
    atoms 3-4, 6-7 entry H          line    30 file /ddmfs1b/softs/psi4conda/share/psi4/basis/aug-cc-pvtz-ri.gbs 

	 --------------------------------------------------------
	                          DF-MP2                         
	      2nd-Order Density-Fitted Moller-Plesset Theory     
	              RMP2 Wavefunction,  20 Threads             
	                                                         
	        Rob Parrish, Justin Turney, Andy Simmonett,      
	           Ed Hohenstein, and C. David Sherrill          
	 --------------------------------------------------------

   => Auxiliary Basis Set <=

  Basis Set: (AUG-CC-PVTZ AUX)
    Blend: AUG-CC-PVTZ-RI
    Number of shells: 140
    Number of basis functions: 502
    Number of Cartesian functions: 628
    Spherical Harmonics?: true
    Max angular momentum: 4

	 --------------------------------------------------------
	                 NBF =   230, NAUX =   502
	 --------------------------------------------------------
	   CLASS    FOCC     OCC    AOCC    AVIR     VIR    FVIR
	   PAIRS       0       5       5     225     225       0
	 --------------------------------------------------------

	-----------------------------------------------------------
	 ==================> DF-MP2 Energies <==================== 
	-----------------------------------------------------------
	 Reference Energy          =     -99.4510186384332400 [Eh]
	 Singles Energy            =      -0.0000000000000000 [Eh]
	 Same-Spin Energy          =      -0.0819568127393244 [Eh]
	 Opposite-Spin Energy      =      -0.2299549191593735 [Eh]
	 Correlation Energy        =      -0.3119117318986978 [Eh]
	 Total Energy              =     -99.7629303703319437 [Eh]
	-----------------------------------------------------------
	 ================> DF-SCS-MP2 Energies <================== 
	-----------------------------------------------------------
	 SCS Same-Spin Scale       =       0.3333333333333333 [-]
	 SCS Opposite-Spin Scale   =       1.2000000000000000 [-]
	 SCS Same-Spin Energy      =      -0.0273189375797748 [Eh]
	 SCS Opposite-Spin Energy  =      -0.2759459029912482 [Eh]
	 SCS Correlation Energy    =      -0.3032648405710229 [Eh]
	 SCS Total Energy          =     -99.7542834790042576 [Eh]
	-----------------------------------------------------------


*** tstop() called on ddmfs1 at Mon Jan 22 03:13:36 2024
Module time:
	user time   =       7.15 seconds =       0.12 minutes
	system time =       0.33 seconds =       0.01 minutes
	total time  =          1 seconds =       0.02 minutes
Total time:
	user time   =      25.93 seconds =       0.43 minutes
	system time =       1.26 seconds =       0.02 minutes
	total time  =          2 seconds =       0.03 minutes

    Psi4 stopped on: Monday, 22 January 2024 03:13AM
    Psi4 wall time for execution: 0:00:02.01


    -----------------------------------------------------------------------
          Psi4: An Open-Source Ab Initio Electronic Structure Package
                               Psi4 1.8.2 release

                         Git: Rev {} zzzzzzz 


    D. G. A. Smith, L. A. Burns, A. C. Simmonett, R. M. Parrish,
    M. C. Schieber, R. Galvelis, P. Kraus, H. Kruse, R. Di Remigio,
    A. Alenaizan, A. M. James, S. Lehtola, J. P. Misiewicz, M. Scheurer,
    R. A. Shaw, J. B. Schriber, Y. Xie, Z. L. Glick, D. A. Sirianni,
    J. S. O'Brien, J. M. Waldrop, A. Kumar, E. G. Hohenstein,
    B. P. Pritchard, B. R. Brooks, H. F. Schaefer III, A. Yu. Sokolov,
    K. Patkowski, A. E. DePrince III, U. Bozkaya, R. A. King,
    F. A. Evangelista, J. M. Turney, T. D. Crawford, C. D. Sherrill,
    J. Chem. Phys. 152(18) 184108 (2020). https://doi.org/10.1063/5.0006002

                            Additional Code Authors
    E. T. Seidl, C. L. Janssen, E. F. Valeev, M. L. Leininger,
    J. F. Gonthier, R. M. Richard, H. R. McAlexander, M. Saitow, X. Wang,
    P. Verma, M. H. Lechner, A. Jiang, S. Behnle, A. G. Heide,
    M. F. Herbst, and D. L. Poole

             Previous Authors, Complete List of Code Contributors,
                       and Citations for Specific Modules
    https://github.com/psi4/psi4/blob/master/codemeta.json
    https://github.com/psi4/psi4/graphs/contributors
    http://psicode.org/psi4manual/master/introduction.html#citing-psifour

    -----------------------------------------------------------------------


    Psi4 started on: Monday, 22 January 2024 03:13AM

    Process ID: 28888
    Host:       ddmfs1
    PSIDATADIR: /ddmfs1b/softs/psi4conda/share/psi4
    Memory:     55.9 GiB
    Threads:    20
    
  ==> Input QCSchema <==

--------------------------------------------------------------------------
{'driver': 'energy',
 'extras': {'psiapi': True, 'wfn_qcvars_only': True},
 'id': None,
 'keywords': {'SCF_TYPE': 'DF', 'function_kwargs': {}},
 'model': {'basis': 'aug-cc-pvtz', 'method': 'mp2'},
 'molecule': {'atom_labels': ['', '', '', '', '', '', ''],
              'atomic_numbers': [9, 8, 1, 1, 8, 1, 1],
              'extras': {},
              'fix_com': True,
              'fix_orientation': True,
              'fix_symmetry': 'c1',
              'fragment_charges': [0.0, 0.0, 0.0],
              'fragment_multiplicities': [1, 1, 1],
              'fragments': [[0], [1, 2, 3], [4, 5, 6]],
              'geometry': [2.96119516941404, 0.0, 0.0, 0.0, -0.013891376748240494, 3.4205705829777084,
                           -1.1405612105552012, 1.1908317049446304, 2.696582489244557, 1.4031537734965702,
                           -0.05197880680684302, 2.1145619604125496, 0.0, 0.013891376748240494, -3.4205705829777084,
                           -1.1405612105552012, -1.1908317049446304, -2.696582489244557, 1.4031537734965702,
                           0.05197880680684302, -2.1145619604125496],
              'mass_numbers': [19, 16, 1, 1, 16, 1, 1],
              'masses': [18.99840316273, 15.99491461957, 1.00782503223, 1.00782503223, 15.99491461957, 1.00782503223,
                         1.00782503223],
              'molecular_charge': 0.0,
              'molecular_multiplicity': 1,
              'name': 'dimer',
              'provenance': {'creator': 'QCElemental',
                             'routine': 'qcelemental.molparse.from_string',
                             'version': '0.26.0'},
              'real': [False, True, True, True, False, False, False],
              'schema_name': 'qcschema_molecule',
              'schema_version': 2,
              'symbols': ['F', 'O', 'H', 'H', 'O', 'H', 'H'],
              'validated': True},
 'protocols': {'stdout': True},
 'provenance': {'creator': 'QCElemental', 'routine': 'qcelemental.models.results', 'version': '0.26.0'},
 'schema_name': 'qcschema_input',
 'schema_version': 1}
--------------------------------------------------------------------------

Scratch directory: /ddmfs1a/scratch/
   => Libint2 <=

    Primary   basis highest AM E, G, H:  5, 4, 3
    Auxiliary basis highest AM E, G, H:  6, 5, 4
    Onebody   basis highest AM E, G, H:  6, 5, 4
    Solid Harmonics ordering:            gaussian

*** tstart() called on ddmfs1
*** at Mon Jan 22 03:13:36 2024

   => Loading Basis Set <=

    Name: AUG-CC-PVTZ
    Role: ORBITAL
    Keyword: BASIS
    atoms 1        entry F          line   377 file /ddmfs1b/softs/psi4conda/share/psi4/basis/aug-cc-pvtz.gbs 
    atoms 2, 5     entry O          line   331 file /ddmfs1b/softs/psi4conda/share/psi4/basis/aug-cc-pvtz.gbs 
    atoms 3-4, 6-7 entry H          line    40 file /ddmfs1b/softs/psi4conda/share/psi4/basis/aug-cc-pvtz.gbs 


         ---------------------------------------------------------
                                   SCF
               by Justin Turney, Rob Parrish, Andy Simmonett
                          and Daniel G. A. Smith
                              RHF Reference
                       20 Threads,  57220 MiB Core
         ---------------------------------------------------------

  ==> Geometry <==

    Molecular point group: c1
    Full point group: C1

    Geometry (in Bohr), charge = 0, multiplicity = 1:

       Center              X                  Y                   Z               Mass       
    ------------   -----------------  -----------------  -----------------  -----------------
      Gh(F)           2.961195169414     0.000000000000     0.000000000000    18.998403162730
         O            0.000000000000    -0.013891376748     3.420570582978    15.994914619570
         H           -1.140561210555     1.190831704945     2.696582489245     1.007825032230
         H            1.403153773497    -0.051978806807     2.114561960413     1.007825032230
      Gh(O)           0.000000000000     0.013891376748    -3.420570582978    15.994914619570
      Gh(H)          -1.140561210555    -1.190831704945    -2.696582489245     1.007825032230
      Gh(H)           1.403153773497     0.051978806807    -2.114561960413     1.007825032230

  Running in c1 symmetry.

  Rotational constants: A =      0.34205  B =      0.15019  C =      0.10539 [cm^-1]
  Rotational constants: A =  10254.51445  B =   4502.50685  C =   3159.56951 [MHz]
  Nuclear repulsion =    8.938260071000268

  Charge       = 0
  Multiplicity = 1
  Electrons    = 10
  Nalpha       = 5
  Nbeta        = 5

  ==> Algorithm <==

  SCF Algorithm Type is DF.
  DIIS enabled.
  MOM disabled.
  Fractional occupation disabled.
  Guess Type is SAD.
  Energy threshold   = 1.00e-08
  Density threshold  = 1.00e-08
  Integral threshold = 1.00e-12

  ==> Primary Basis <==

  Basis Set: AUG-CC-PVTZ
    Blend: AUG-CC-PVTZ
    Number of shells: 78
    Number of basis functions: 230
    Number of Cartesian functions: 265
    Spherical Harmonics?: true
    Max angular momentum: 3

   => Loading Basis Set <=

    Name: (AUG-CC-PVTZ AUX)
    Role: JKFIT
    Keyword: DF_BASIS_SCF
    atoms 1        entry F          line   348 file /ddmfs1b/softs/psi4conda/share/psi4/basis/aug-cc-pvtz-jkfit.gbs 
    atoms 2, 5     entry O          line   286 file /ddmfs1b/softs/psi4conda/share/psi4/basis/aug-cc-pvtz-jkfit.gbs 
    atoms 3-4, 6-7 entry H          line    70 file /ddmfs1b/softs/psi4conda/share/psi4/basis/aug-cc-pvtz-jkfit.gbs 

  ==> Integral Setup <==

  DFHelper Memory: AOs need 0.213 GiB; user supplied 41.910 GiB. 
  Using in-core AOs.

  ==> MemDFJK: Density-Fitted J/K Matrices <==

    J tasked:                   Yes
    K tasked:                   Yes
    wK tasked:                   No
    OpenMP threads:              20
    Memory [MiB]:             42915
    Algorithm:                 Core
    Schwarz Cutoff:           1E-12
    Mask sparsity (%):       1.2817
    Fitting Condition:        1E-10

   => Auxiliary Basis Set <=

  Basis Set: (AUG-CC-PVTZ AUX)
    Blend: AUG-CC-PVTZ-JKFIT
    Number of shells: 146
    Number of basis functions: 496
    Number of Cartesian functions: 613
    Spherical Harmonics?: true
    Max angular momentum: 4

  Minimum eigenvalue in the overlap matrix is 2.4614743176E-04.
  Reciprocal condition number of the overlap matrix is 2.3932592839E-05.
    Using symmetric orthogonalization.

  ==> Pre-Iterations <==

  SCF Guess: Superposition of Atomic Densities via on-the-fly atomic UHF (no occupation information).

   -------------------------
    Irrep   Nso     Nmo    
   -------------------------
     A        230     230 
   -------------------------
    Total     230     230
   -------------------------

  ==> Iterations <==

                           Total Energy        Delta E     RMS |[F,P]|

   @DF-RHF iter SAD:   -75.44645631941127   -7.54465e+01   0.00000e+00 
   @DF-RHF iter   1:   -75.96929350981847   -5.22837e-01   2.03257e-03 DIIS/ADIIS
   @DF-RHF iter   2:   -76.02118405380514   -5.18905e-02   1.43368e-03 DIIS/ADIIS
   @DF-RHF iter   3:   -76.05519059962074   -3.40065e-02   9.79440e-05 DIIS
   @DF-RHF iter   4:   -76.05562433027426   -4.33731e-04   2.49651e-05 DIIS
   @DF-RHF iter   5:   -76.05565605044713   -3.17202e-05   5.93100e-06 DIIS
   @DF-RHF iter   6:   -76.05565882862729   -2.77818e-06   1.29428e-06 DIIS
   @DF-RHF iter   7:   -76.05565897019326   -1.41566e-07   2.19278e-07 DIIS
   @DF-RHF iter   8:   -76.05565897365901   -3.46574e-09   3.82040e-08 DIIS
   @DF-RHF iter   9:   -76.05565897374477   -8.57625e-11   9.95641e-09 DIIS
  Energy and wave function converged.


  ==> Post-Iterations <==

    Orbital Energies [Eh]
    ---------------------

    Doubly Occupied:                                                      

       1A    -20.573289     2A     -1.341778     3A     -0.697214  
       4A     -0.584534     5A     -0.508974  

    Virtual:                                                              

       6A      0.021259     7A      0.044865     8A      0.048337  
       9A      0.058131    10A      0.112575    11A      0.117793  
      12A      0.140559    13A      0.153785    14A      0.158772  
      15A      0.172153    16A      0.180518    17A      0.187905  
      18A      0.208478    19A      0.212887    20A      0.237964  
      21A      0.247118    22A      0.264932    23A      0.283983  
      24A      0.304711    25A      0.317797    26A      0.322946  
      27A      0.349807    28A      0.366544    29A      0.371887  
      30A      0.397608    31A      0.413635    32A      0.416681  
      33A      0.452552    34A      0.467840    35A      0.478870  
      36A      0.498942    37A      0.556061    38A      0.643413  
      39A      0.670966    40A      0.678003    41A      0.691809  
      42A      0.718921    43A      0.729701    44A      0.738746  
      45A      0.754546    46A      0.764793    47A      0.768482  
      48A      0.813126    49A      0.819079    50A      0.842791  
      51A      0.852553    52A      0.869033    53A      0.880989  
      54A      0.892238    55A      0.912183    56A      0.925180  
      57A      0.933713    58A      0.950020    59A      0.968608  
      60A      0.973750    61A      1.015578    62A      1.026007  
      63A      1.035364    64A      1.050349    65A      1.066965  
      66A      1.081497    67A      1.116314    68A      1.128228  
      69A      1.187195    70A      1.202370    71A      1.212595  
      72A      1.246897    73A      1.265231    74A      1.307079  
      75A      1.324659    76A      1.340285    77A      1.381391  
      78A      1.399250    79A      1.422396    80A      1.476437  
      81A      1.513396    82A      1.545391    83A      1.600007  
      84A      1.610795    85A      1.627002    86A      1.648842  
      87A      1.658994    88A      1.699465    89A      1.742873  
      90A      1.756678    91A      1.784199    92A      1.799249  
      93A      1.844248    94A      1.901521    95A      1.917328  
      96A      1.983649    97A      2.057429    98A      2.112460  
      99A      2.148067   100A      2.329347   101A      2.388296  
     102A      2.427831   103A      2.448025   104A      2.452384  
     105A      2.456719   106A      2.486067   107A      2.523208  
     108A      2.562810   109A      2.608630   110A      2.643633  
     111A      2.656569   112A      2.669004   113A      2.700133  
     114A      2.733516   115A      2.744850   116A      2.768175  
     117A      2.831414   118A      2.856767   119A      2.880715  
     120A      2.925555   121A      2.958920   122A      3.078909  
     123A      3.092148   124A      3.206200   125A      3.209283  
     126A      3.235775   127A      3.281116   128A      3.333375  
     129A      3.342543   130A      3.418915   131A      3.458281  
     132A      3.543735   133A      3.568075   134A      3.587713  
     135A      3.683018   136A      3.718278   137A      3.764109  
     138A      3.788176   139A      3.847027   140A      3.900618  
     141A      3.927740   142A      3.977134   143A      4.038843  
     144A      4.097737   145A      4.191308   146A      4.242595  
     147A      4.270057   148A      4.286257   149A      4.316736  
     150A      4.383193   151A      4.407246   152A      4.479288  
     153A      4.488073   154A      4.502316   155A      4.573732  
     156A      4.598941   157A      4.641191   158A      4.687654  
     159A      4.731742   160A      4.874537   161A      4.882774  
     162A      4.919719   163A      5.035266   164A      5.076540  
     165A      5.137206   166A      5.248361   167A      5.292635  
     168A      5.316730   169A      5.348951   170A      5.488241  
     171A      5.630340   172A      5.632614   173A      5.704257  
     174A      5.745002   175A      5.802128   176A      6.004808  
     177A      6.189360   178A      6.301817   179A      6.413420  
     180A      6.544399   181A      6.557559   182A      6.769029  
     183A      6.810015   184A      6.993445   185A      7.013794  
     186A      7.199811   187A      7.308730   188A      7.336484  
     189A      7.401025   190A      7.420251   191A      7.512504  
     192A      7.717025   193A      7.735255   194A      7.886726  
     195A      7.991153   196A      8.037469   197A      8.096822  
     198A      8.165600   199A      8.338609   200A      8.808468  
     201A      8.823286   202A      8.885118   203A      9.649904  
     204A      9.873544   205A     10.060531   206A     10.259021  
     207A     10.296064   208A     10.359250   209A     10.526288  
     210A     10.592090   211A     10.643162   212A     10.689759  
     213A     10.850600   214A     11.286466   215A     11.773935  
     216A     12.121285   217A     12.340395   218A     13.036821  
     219A     13.105705   220A     13.116472   221A     13.538061  
     222A     13.606199   223A     13.870102   224A     14.018960  
     225A     14.528915   226A     14.850782   227A     15.438099  
     228A     16.677262   229A     65.626582   230A     76.237470  

    Final Occupation by Irrep:
              A 
    DOCC [     5 ]
    NA   [     5 ]
    NB   [     5 ]

  @DF-RHF Final Energy:   -76.05565897374477

   => Energetics <=

    Nuclear Repulsion Energy =              8.9382600710002684
    One-Electron Energy =                -122.5762583367481540
    Two-Electron Energy =                  37.5823392920031196
    Total Energy =                        -76.0556589737447553

Computation Completed


Properties will be evaluated at   0.000000,   0.000000,   0.000000 [a0]

Properties computed using the SCF density matrix


 Multipole Moments:

 ------------------------------------------------------------------------------------
     Multipole            Electronic (a.u.)      Nuclear  (a.u.)        Total (a.u.)
 ------------------------------------------------------------------------------------

 L = 1.  Multiply by 2.5417464519 to convert [e a0] to [Debye]
 Dipole X            :         -0.1815344            0.2625926            0.0810582
 Dipole Y            :         -0.6228421            1.0277219            0.4048798
 Dipole Z            :        -32.8703148           32.1757091           -0.6946057
 Magnitude           :                                                    0.8080687

 ------------------------------------------------------------------------------------

*** tstop() called on ddmfs1 at Mon Jan 22 03:13:37 2024
Module time:
	user time   =      18.08 seconds =       0.30 minutes
	system time =       0.65 seconds =       0.01 minutes
	total time  =          1 seconds =       0.02 minutes
Total time:
	user time   =      45.20 seconds =       0.75 minutes
	system time =       1.93 seconds =       0.03 minutes
	total time  =          3 seconds =       0.05 minutes

*** tstart() called on ddmfs1
*** at Mon Jan 22 03:13:37 2024


  //>>>>>>>>>>>>>>>>>>>>>>>>>>>>>>>>>>>//
  //               DFMP2               //
  //<<<<<<<<<<<<<<<<<<<<<<<<<<<<<<<<<<<//

   => Loading Basis Set <=

    Name: (AUG-CC-PVTZ AUX)
    Role: RIFIT
    Keyword: DF_BASIS_MP2
    atoms 1        entry F          line   322 file /ddmfs1b/softs/psi4conda/share/psi4/basis/aug-cc-pvtz-ri.gbs 
    atoms 2, 5     entry O          line   264 file /ddmfs1b/softs/psi4conda/share/psi4/basis/aug-cc-pvtz-ri.gbs 
    atoms 3-4, 6-7 entry H          line    30 file /ddmfs1b/softs/psi4conda/share/psi4/basis/aug-cc-pvtz-ri.gbs 

	 --------------------------------------------------------
	                          DF-MP2                         
	      2nd-Order Density-Fitted Moller-Plesset Theory     
	              RMP2 Wavefunction,  20 Threads             
	                                                         
	        Rob Parrish, Justin Turney, Andy Simmonett,      
	           Ed Hohenstein, and C. David Sherrill          
	 --------------------------------------------------------

   => Auxiliary Basis Set <=

  Basis Set: (AUG-CC-PVTZ AUX)
    Blend: AUG-CC-PVTZ-RI
    Number of shells: 140
    Number of basis functions: 502
    Number of Cartesian functions: 628
    Spherical Harmonics?: true
    Max angular momentum: 4

	 --------------------------------------------------------
	                 NBF =   230, NAUX =   502
	 --------------------------------------------------------
	   CLASS    FOCC     OCC    AOCC    AVIR     VIR    FVIR
	   PAIRS       0       5       5     225     225       0
	 --------------------------------------------------------

	-----------------------------------------------------------
	 ==================> DF-MP2 Energies <==================== 
	-----------------------------------------------------------
	 Reference Energy          =     -76.0556589737447695 [Eh]
	 Singles Energy            =      -0.0000000000000000 [Eh]
	 Same-Spin Energy          =      -0.0689633605805116 [Eh]
	 Opposite-Spin Energy      =      -0.2177698871324101 [Eh]
	 Correlation Energy        =      -0.2867332477129217 [Eh]
	 Total Energy              =     -76.3423922214576862 [Eh]
	-----------------------------------------------------------
	 ================> DF-SCS-MP2 Energies <================== 
	-----------------------------------------------------------
	 SCS Same-Spin Scale       =       0.3333333333333333 [-]
	 SCS Opposite-Spin Scale   =       1.2000000000000000 [-]
	 SCS Same-Spin Energy      =      -0.0229877868601705 [Eh]
	 SCS Opposite-Spin Energy  =      -0.2613238645588921 [Eh]
	 SCS Correlation Energy    =      -0.2843116514190626 [Eh]
	 SCS Total Energy          =     -76.3399706251638293 [Eh]
	-----------------------------------------------------------


*** tstop() called on ddmfs1 at Mon Jan 22 03:13:38 2024
Module time:
	user time   =       7.15 seconds =       0.12 minutes
	system time =       0.21 seconds =       0.00 minutes
	total time  =          1 seconds =       0.02 minutes
Total time:
	user time   =      52.37 seconds =       0.87 minutes
	system time =       2.15 seconds =       0.04 minutes
	total time  =          4 seconds =       0.07 minutes

    Psi4 stopped on: Monday, 22 January 2024 03:13AM
    Psi4 wall time for execution: 0:00:01.79


    -----------------------------------------------------------------------
          Psi4: An Open-Source Ab Initio Electronic Structure Package
                               Psi4 1.8.2 release

                         Git: Rev {} zzzzzzz 


    D. G. A. Smith, L. A. Burns, A. C. Simmonett, R. M. Parrish,
    M. C. Schieber, R. Galvelis, P. Kraus, H. Kruse, R. Di Remigio,
    A. Alenaizan, A. M. James, S. Lehtola, J. P. Misiewicz, M. Scheurer,
    R. A. Shaw, J. B. Schriber, Y. Xie, Z. L. Glick, D. A. Sirianni,
    J. S. O'Brien, J. M. Waldrop, A. Kumar, E. G. Hohenstein,
    B. P. Pritchard, B. R. Brooks, H. F. Schaefer III, A. Yu. Sokolov,
    K. Patkowski, A. E. DePrince III, U. Bozkaya, R. A. King,
    F. A. Evangelista, J. M. Turney, T. D. Crawford, C. D. Sherrill,
    J. Chem. Phys. 152(18) 184108 (2020). https://doi.org/10.1063/5.0006002

                            Additional Code Authors
    E. T. Seidl, C. L. Janssen, E. F. Valeev, M. L. Leininger,
    J. F. Gonthier, R. M. Richard, H. R. McAlexander, M. Saitow, X. Wang,
    P. Verma, M. H. Lechner, A. Jiang, S. Behnle, A. G. Heide,
    M. F. Herbst, and D. L. Poole

             Previous Authors, Complete List of Code Contributors,
                       and Citations for Specific Modules
    https://github.com/psi4/psi4/blob/master/codemeta.json
    https://github.com/psi4/psi4/graphs/contributors
    http://psicode.org/psi4manual/master/introduction.html#citing-psifour

    -----------------------------------------------------------------------


    Psi4 started on: Monday, 22 January 2024 03:13AM

    Process ID: 28888
    Host:       ddmfs1
    PSIDATADIR: /ddmfs1b/softs/psi4conda/share/psi4
    Memory:     55.9 GiB
    Threads:    20
    
  ==> Input QCSchema <==

--------------------------------------------------------------------------
{'driver': 'energy',
 'extras': {'psiapi': True, 'wfn_qcvars_only': True},
 'id': None,
 'keywords': {'SCF_TYPE': 'DF', 'function_kwargs': {}},
 'model': {'basis': 'aug-cc-pvtz', 'method': 'mp2'},
 'molecule': {'atom_labels': ['', '', '', '', '', '', ''],
              'atomic_numbers': [9, 8, 1, 1, 8, 1, 1],
              'extras': {},
              'fix_com': True,
              'fix_orientation': True,
              'fix_symmetry': 'c1',
              'fragment_charges': [0.0, 0.0, 0.0],
              'fragment_multiplicities': [1, 1, 1],
              'fragments': [[0], [1, 2, 3], [4, 5, 6]],
              'geometry': [2.96119516941404, 0.0, 0.0, 0.0, -0.013891376748240494, 3.4205705829777084,
                           -1.1405612105552012, 1.1908317049446304, 2.696582489244557, 1.4031537734965702,
                           -0.05197880680684302, 2.1145619604125496, 0.0, 0.013891376748240494, -3.4205705829777084,
                           -1.1405612105552012, -1.1908317049446304, -2.696582489244557, 1.4031537734965702,
                           0.05197880680684302, -2.1145619604125496],
              'mass_numbers': [19, 16, 1, 1, 16, 1, 1],
              'masses': [18.99840316273, 15.99491461957, 1.00782503223, 1.00782503223, 15.99491461957, 1.00782503223,
                         1.00782503223],
              'molecular_charge': 0.0,
              'molecular_multiplicity': 1,
              'name': 'dimer',
              'provenance': {'creator': 'QCElemental',
                             'routine': 'qcelemental.molparse.from_string',
                             'version': '0.26.0'},
              'real': [False, True, True, True, True, True, True],
              'schema_name': 'qcschema_molecule',
              'schema_version': 2,
              'symbols': ['F', 'O', 'H', 'H', 'O', 'H', 'H'],
              'validated': True},
 'protocols': {'stdout': True},
 'provenance': {'creator': 'QCElemental', 'routine': 'qcelemental.models.results', 'version': '0.26.0'},
 'schema_name': 'qcschema_input',
 'schema_version': 1}
--------------------------------------------------------------------------

Scratch directory: /ddmfs1a/scratch/
   => Libint2 <=

    Primary   basis highest AM E, G, H:  5, 4, 3
    Auxiliary basis highest AM E, G, H:  6, 5, 4
    Onebody   basis highest AM E, G, H:  6, 5, 4
    Solid Harmonics ordering:            gaussian

*** tstart() called on ddmfs1
*** at Mon Jan 22 03:13:38 2024

   => Loading Basis Set <=

    Name: AUG-CC-PVTZ
    Role: ORBITAL
    Keyword: BASIS
    atoms 1        entry F          line   377 file /ddmfs1b/softs/psi4conda/share/psi4/basis/aug-cc-pvtz.gbs 
    atoms 2, 5     entry O          line   331 file /ddmfs1b/softs/psi4conda/share/psi4/basis/aug-cc-pvtz.gbs 
    atoms 3-4, 6-7 entry H          line    40 file /ddmfs1b/softs/psi4conda/share/psi4/basis/aug-cc-pvtz.gbs 


         ---------------------------------------------------------
                                   SCF
               by Justin Turney, Rob Parrish, Andy Simmonett
                          and Daniel G. A. Smith
                              RHF Reference
                       20 Threads,  57220 MiB Core
         ---------------------------------------------------------

  ==> Geometry <==

    Molecular point group: c1
    Full point group: C2

    Geometry (in Bohr), charge = 0, multiplicity = 1:

       Center              X                  Y                   Z               Mass       
    ------------   -----------------  -----------------  -----------------  -----------------
      Gh(F)           2.961195169414     0.000000000000     0.000000000000    18.998403162730
         O            0.000000000000    -0.013891376748     3.420570582978    15.994914619570
         H           -1.140561210555     1.190831704945     2.696582489245     1.007825032230
         H            1.403153773497    -0.051978806807     2.114561960413     1.007825032230
         O            0.000000000000     0.013891376748    -3.420570582978    15.994914619570
         H           -1.140561210555    -1.190831704945    -2.696582489245     1.007825032230
         H            1.403153773497     0.051978806807    -2.114561960413     1.007825032230

  Running in c1 symmetry.

  Rotational constants: A =      0.34205  B =      0.15019  C =      0.10539 [cm^-1]
  Rotational constants: A =  10254.51445  B =   4502.50685  C =   3159.56951 [MHz]
  Nuclear repulsion =   33.325614019337735

  Charge       = 0
  Multiplicity = 1
  Electrons    = 20
  Nalpha       = 10
  Nbeta        = 10

  ==> Algorithm <==

  SCF Algorithm Type is DF.
  DIIS enabled.
  MOM disabled.
  Fractional occupation disabled.
  Guess Type is SAD.
  Energy threshold   = 1.00e-08
  Density threshold  = 1.00e-08
  Integral threshold = 1.00e-12

  ==> Primary Basis <==

  Basis Set: AUG-CC-PVTZ
    Blend: AUG-CC-PVTZ
    Number of shells: 78
    Number of basis functions: 230
    Number of Cartesian functions: 265
    Spherical Harmonics?: true
    Max angular momentum: 3

   => Loading Basis Set <=

    Name: (AUG-CC-PVTZ AUX)
    Role: JKFIT
    Keyword: DF_BASIS_SCF
    atoms 1        entry F          line   348 file /ddmfs1b/softs/psi4conda/share/psi4/basis/aug-cc-pvtz-jkfit.gbs 
    atoms 2, 5     entry O          line   286 file /ddmfs1b/softs/psi4conda/share/psi4/basis/aug-cc-pvtz-jkfit.gbs 
    atoms 3-4, 6-7 entry H          line    70 file /ddmfs1b/softs/psi4conda/share/psi4/basis/aug-cc-pvtz-jkfit.gbs 

  ==> Integral Setup <==

  DFHelper Memory: AOs need 0.213 GiB; user supplied 41.910 GiB. 
  Using in-core AOs.

  ==> MemDFJK: Density-Fitted J/K Matrices <==

    J tasked:                   Yes
    K tasked:                   Yes
    wK tasked:                   No
    OpenMP threads:              20
    Memory [MiB]:             42915
    Algorithm:                 Core
    Schwarz Cutoff:           1E-12
    Mask sparsity (%):       1.2817
    Fitting Condition:        1E-10

   => Auxiliary Basis Set <=

  Basis Set: (AUG-CC-PVTZ AUX)
    Blend: AUG-CC-PVTZ-JKFIT
    Number of shells: 146
    Number of basis functions: 496
    Number of Cartesian functions: 613
    Spherical Harmonics?: true
    Max angular momentum: 4

  Minimum eigenvalue in the overlap matrix is 2.4614743176E-04.
  Reciprocal condition number of the overlap matrix is 2.3932592839E-05.
    Using symmetric orthogonalization.

  ==> Pre-Iterations <==

  SCF Guess: Superposition of Atomic Densities via on-the-fly atomic UHF (no occupation information).

   -------------------------
    Irrep   Nso     Nmo    
   -------------------------
     A        230     230 
   -------------------------
    Total     230     230
   -------------------------

  ==> Iterations <==

                           Total Energy        Delta E     RMS |[F,P]|

   @DF-RHF iter SAD:  -150.93264301219011   -1.50933e+02   0.00000e+00 
   @DF-RHF iter   1:  -151.93732909161491   -1.00469e+00   2.85657e-03 DIIS/ADIIS
   @DF-RHF iter   2:  -152.04054756356385   -1.03218e-01   2.01074e-03 DIIS/ADIIS
   @DF-RHF iter   3:  -152.10777483431448   -6.72273e-02   1.40895e-04 DIIS/ADIIS
   @DF-RHF iter   4:  -152.10867691530837   -9.02081e-04   3.49377e-05 DIIS
   @DF-RHF iter   5:  -152.10873857898395   -6.16637e-05   8.39705e-06 DIIS
   @DF-RHF iter   6:  -152.10874399410011   -5.41512e-06   1.80564e-06 DIIS
   @DF-RHF iter   7:  -152.10874426402700   -2.69927e-07   3.25198e-07 DIIS
   @DF-RHF iter   8:  -152.10874427153215   -7.50515e-09   6.76878e-08 DIIS
   @DF-RHF iter   9:  -152.10874427183091   -2.98769e-10   2.00196e-08 DIIS
   @DF-RHF iter  10:  -152.10874427186346   -3.25429e-11   5.75564e-09 DIIS
  Energy and wave function converged.


  ==> Post-Iterations <==

    Orbital Energies [Eh]
    ---------------------

    Doubly Occupied:                                                      

       1A    -20.586566     2A    -20.586564     3A     -1.356286  
       4A     -1.353733     5A     -0.713307     6A     -0.707747  
       7A     -0.604559     8A     -0.590751     9A     -0.523656  
      10A     -0.520114  

    Virtual:                                                              

      11A      0.021886    12A      0.042081    13A      0.048882  
      14A      0.060147    15A      0.113662    16A      0.127996  
      17A      0.150386    18A      0.164479    19A      0.170491  
      20A      0.171731    21A      0.178270    22A      0.182628  
      23A      0.210374    24A      0.219226    25A      0.222403  
      26A      0.239406    27A      0.261105    28A      0.274693  
      29A      0.291491    30A      0.309599    31A      0.321247  
      32A      0.353836    33A      0.373254    34A      0.383475  
      35A      0.388818    36A      0.411615    37A      0.428254  
      38A      0.456813    39A      0.463964    40A      0.486784  
      41A      0.540702    42A      0.543825    43A      0.603447  
      44A      0.649293    45A      0.663231    46A      0.681158  
      47A      0.683658    48A      0.717219    49A      0.722821  
      50A      0.727889    51A      0.757248    52A      0.767172  
      53A      0.784550    54A      0.818146    55A      0.839647  
      56A      0.844805    57A      0.868653    58A      0.879646  
      59A      0.902748    60A      0.914071    61A      0.923140  
      62A      0.926653    63A      0.944611    64A      0.979253  
      65A      0.992041    66A      1.010106    67A      1.025465  
      68A      1.042555    69A      1.046028    70A      1.063599  
      71A      1.068741    72A      1.107210    73A      1.172534  
      74A      1.173607    75A      1.190856    76A      1.218319  
      77A      1.232095    78A      1.232638    79A      1.278726  
      80A      1.291515    81A      1.300183    82A      1.324087  
      83A      1.373910    84A      1.403039    85A      1.452009  
      86A      1.480458    87A      1.514120    88A      1.524930  
      89A      1.557952    90A      1.583424    91A      1.588443  
      92A      1.640810    93A      1.648794    94A      1.666539  
      95A      1.701231    96A      1.806766    97A      1.834550  
      98A      1.880132    99A      1.906415   100A      1.959978  
     101A      1.980803   102A      2.078541   103A      2.117859  
     104A      2.272365   105A      2.324385   106A      2.334404  
     107A      2.389221   108A      2.402988   109A      2.412126  
     110A      2.436656   111A      2.478038   112A      2.481802  
     113A      2.511601   114A      2.530076   115A      2.531667  
     116A      2.590079   117A      2.618926   118A      2.663447  
     119A      2.710887   120A      2.712304   121A      2.736587  
     122A      2.753391   123A      2.813592   124A      2.822256  
     125A      2.831044   126A      2.857023   127A      2.894304  
     128A      2.903802   129A      2.945678   130A      3.124490  
     131A      3.144130   132A      3.226634   133A      3.323392  
     134A      3.339504   135A      3.468933   136A      3.504221  
     137A      3.541373   138A      3.701909   139A      3.705376  
     140A      3.727632   141A      3.788955   142A      3.852857  
     143A      3.858932   144A      3.873628   145A      3.943365  
     146A      4.045538   147A      4.077248   148A      4.079455  
     149A      4.197594   150A      4.198002   151A      4.219194  
     152A      4.245738   153A      4.249092   154A      4.282537  
     155A      4.300403   156A      4.366542   157A      4.376455  
     158A      4.377579   159A      4.416335   160A      4.454922  
     161A      4.488331   162A      4.548105   163A      4.550323  
     164A      4.614610   165A      4.653986   166A      4.675443  
     167A      4.705308   168A      4.882286   169A      4.906911  
     170A      5.092046   171A      5.113114   172A      5.227870  
     173A      5.250758   174A      5.302284   175A      5.317731  
     176A      5.356409   177A      5.431041   178A      5.573323  
     179A      5.636260   180A      5.676741   181A      5.677502  
     182A      6.114014   183A      6.202433   184A      6.269637  
     185A      6.317675   186A      6.534887   187A      6.550271  
     188A      6.783779   189A      6.801897   190A      6.955887  
     191A      6.995818   192A      7.150423   193A      7.245365  
     194A      7.291342   195A      7.299503   196A      7.318282  
     197A      7.319312   198A      7.373867   199A      7.391654  
     200A      7.407275   201A      7.422795   202A      7.496953  
     203A      7.504558   204A      7.686561   205A      7.716545  
     206A      7.979426   207A      7.986696   208A      8.021781  
     209A      8.031562   210A      8.842994   211A      8.879315  
     212A     10.251818   213A     10.257669   214A     10.479945  
     215A     10.534284   216A     10.627265   217A     10.665082  
     218A     10.815255   219A     12.288505   220A     12.986985  
     221A     13.062548   222A     13.068161   223A     13.555647  
     224A     13.864829   225A     14.477277   226A     14.757597  
     227A     14.878074   228A     16.594580   229A     16.712591  
     230A     76.184708  

    Final Occupation by Irrep:
              A 
    DOCC [    10 ]
    NA   [    10 ]
    NB   [    10 ]

  @DF-RHF Final Energy:  -152.10874427186346

   => Energetics <=

    Nuclear Repulsion Energy =             33.3256140193377348
    One-Electron Energy =                -275.7821501508568076
    Two-Electron Energy =                  90.3477918596555867
    Total Energy =                       -152.1087442718634861

Computation Completed


Properties will be evaluated at   0.000000,   0.000000,   0.000000 [a0]

Properties computed using the SCF density matrix


 Multipole Moments:

 ------------------------------------------------------------------------------------
     Multipole            Electronic (a.u.)      Nuclear  (a.u.)        Total (a.u.)
 ------------------------------------------------------------------------------------

 L = 1.  Multiply by 2.5417464519 to convert [e a0] to [Debye]
 Dipole X            :         -0.4046519            0.5251851            0.1205333
 Dipole Y            :          0.0000000            0.0000000            0.0000000
 Dipole Z            :          0.0000000            0.0000000            0.0000000
 Magnitude           :                                                    0.1205333

 ------------------------------------------------------------------------------------

*** tstop() called on ddmfs1 at Mon Jan 22 03:13:39 2024
Module time:
	user time   =      19.24 seconds =       0.32 minutes
	system time =       0.72 seconds =       0.01 minutes
	total time  =          1 seconds =       0.02 minutes
Total time:
	user time   =      72.79 seconds =       1.21 minutes
	system time =       2.91 seconds =       0.05 minutes
	total time  =          5 seconds =       0.08 minutes

*** tstart() called on ddmfs1
*** at Mon Jan 22 03:13:39 2024


  //>>>>>>>>>>>>>>>>>>>>>>>>>>>>>>>>>>>//
  //               DFMP2               //
  //<<<<<<<<<<<<<<<<<<<<<<<<<<<<<<<<<<<//

   => Loading Basis Set <=

    Name: (AUG-CC-PVTZ AUX)
    Role: RIFIT
    Keyword: DF_BASIS_MP2
    atoms 1        entry F          line   322 file /ddmfs1b/softs/psi4conda/share/psi4/basis/aug-cc-pvtz-ri.gbs 
    atoms 2, 5     entry O          line   264 file /ddmfs1b/softs/psi4conda/share/psi4/basis/aug-cc-pvtz-ri.gbs 
    atoms 3-4, 6-7 entry H          line    30 file /ddmfs1b/softs/psi4conda/share/psi4/basis/aug-cc-pvtz-ri.gbs 

	 --------------------------------------------------------
	                          DF-MP2                         
	      2nd-Order Density-Fitted Moller-Plesset Theory     
	              RMP2 Wavefunction,  20 Threads             
	                                                         
	        Rob Parrish, Justin Turney, Andy Simmonett,      
	           Ed Hohenstein, and C. David Sherrill          
	 --------------------------------------------------------

   => Auxiliary Basis Set <=

  Basis Set: (AUG-CC-PVTZ AUX)
    Blend: AUG-CC-PVTZ-RI
    Number of shells: 140
    Number of basis functions: 502
    Number of Cartesian functions: 628
    Spherical Harmonics?: true
    Max angular momentum: 4

	 --------------------------------------------------------
	                 NBF =   230, NAUX =   502
	 --------------------------------------------------------
	   CLASS    FOCC     OCC    AOCC    AVIR     VIR    FVIR
	   PAIRS       0      10      10     220     220       0
	 --------------------------------------------------------

	-----------------------------------------------------------
	 ==================> DF-MP2 Energies <==================== 
	-----------------------------------------------------------
	 Reference Energy          =    -152.1087442718634577 [Eh]
	 Singles Energy            =      -0.0000000000000000 [Eh]
	 Same-Spin Energy          =      -0.1384363137340018 [Eh]
	 Opposite-Spin Energy      =      -0.4362233162127132 [Eh]
	 Correlation Energy        =      -0.5746596299467150 [Eh]
	 Total Energy              =    -152.6834039018101805 [Eh]
	-----------------------------------------------------------
	 ================> DF-SCS-MP2 Energies <================== 
	-----------------------------------------------------------
	 SCS Same-Spin Scale       =       0.3333333333333333 [-]
	 SCS Opposite-Spin Scale   =       1.2000000000000000 [-]
	 SCS Same-Spin Energy      =      -0.0461454379113339 [Eh]
	 SCS Opposite-Spin Energy  =      -0.5234679794552558 [Eh]
	 SCS Correlation Energy    =      -0.5696134173665898 [Eh]
	 SCS Total Energy          =    -152.6783576892300403 [Eh]
	-----------------------------------------------------------


*** tstop() called on ddmfs1 at Mon Jan 22 03:13:39 2024
Module time:
	user time   =       7.40 seconds =       0.12 minutes
	system time =       0.31 seconds =       0.01 minutes
	total time  =          0 seconds =       0.00 minutes
Total time:
	user time   =      80.20 seconds =       1.34 minutes
	system time =       3.22 seconds =       0.05 minutes
	total time  =          5 seconds =       0.08 minutes

    Psi4 stopped on: Monday, 22 January 2024 03:13AM
    Psi4 wall time for execution: 0:00:01.85


    -----------------------------------------------------------------------
          Psi4: An Open-Source Ab Initio Electronic Structure Package
                               Psi4 1.8.2 release

                         Git: Rev {} zzzzzzz 


    D. G. A. Smith, L. A. Burns, A. C. Simmonett, R. M. Parrish,
    M. C. Schieber, R. Galvelis, P. Kraus, H. Kruse, R. Di Remigio,
    A. Alenaizan, A. M. James, S. Lehtola, J. P. Misiewicz, M. Scheurer,
    R. A. Shaw, J. B. Schriber, Y. Xie, Z. L. Glick, D. A. Sirianni,
    J. S. O'Brien, J. M. Waldrop, A. Kumar, E. G. Hohenstein,
    B. P. Pritchard, B. R. Brooks, H. F. Schaefer III, A. Yu. Sokolov,
    K. Patkowski, A. E. DePrince III, U. Bozkaya, R. A. King,
    F. A. Evangelista, J. M. Turney, T. D. Crawford, C. D. Sherrill,
    J. Chem. Phys. 152(18) 184108 (2020). https://doi.org/10.1063/5.0006002

                            Additional Code Authors
    E. T. Seidl, C. L. Janssen, E. F. Valeev, M. L. Leininger,
    J. F. Gonthier, R. M. Richard, H. R. McAlexander, M. Saitow, X. Wang,
    P. Verma, M. H. Lechner, A. Jiang, S. Behnle, A. G. Heide,
    M. F. Herbst, and D. L. Poole

             Previous Authors, Complete List of Code Contributors,
                       and Citations for Specific Modules
    https://github.com/psi4/psi4/blob/master/codemeta.json
    https://github.com/psi4/psi4/graphs/contributors
    http://psicode.org/psi4manual/master/introduction.html#citing-psifour

    -----------------------------------------------------------------------


    Psi4 started on: Monday, 22 January 2024 03:13AM

    Process ID: 28888
    Host:       ddmfs1
    PSIDATADIR: /ddmfs1b/softs/psi4conda/share/psi4
    Memory:     55.9 GiB
    Threads:    20
    
  ==> Input QCSchema <==

--------------------------------------------------------------------------
{'driver': 'energy',
 'extras': {'psiapi': True, 'wfn_qcvars_only': True},
 'id': None,
 'keywords': {'SCF_TYPE': 'DF', 'function_kwargs': {}},
 'model': {'basis': 'aug-cc-pvtz', 'method': 'mp2'},
 'molecule': {'atom_labels': ['', '', '', '', '', '', ''],
              'atomic_numbers': [9, 8, 1, 1, 8, 1, 1],
              'extras': {},
              'fix_com': True,
              'fix_orientation': True,
              'fix_symmetry': 'c1',
              'fragment_charges': [-1.0, 0.0, 0.0],
              'fragment_multiplicities': [1, 1, 1],
              'fragments': [[0], [1, 2, 3], [4, 5, 6]],
              'geometry': [2.96119516941404, 0.0, 0.0, 0.0, -0.013891376748240494, 3.4205705829777084,
                           -1.1405612105552012, 1.1908317049446304, 2.696582489244557, 1.4031537734965702,
                           -0.05197880680684302, 2.1145619604125496, 0.0, 0.013891376748240494, -3.4205705829777084,
                           -1.1405612105552012, -1.1908317049446304, -2.696582489244557, 1.4031537734965702,
                           0.05197880680684302, -2.1145619604125496],
              'mass_numbers': [19, 16, 1, 1, 16, 1, 1],
              'masses': [18.99840316273, 15.99491461957, 1.00782503223, 1.00782503223, 15.99491461957, 1.00782503223,
                         1.00782503223],
              'molecular_charge': -1.0,
              'molecular_multiplicity': 1,
              'name': 'dimer',
              'provenance': {'creator': 'QCElemental',
                             'routine': 'qcelemental.molparse.from_string',
                             'version': '0.26.0'},
              'real': [True, False, False, False, True, True, True],
              'schema_name': 'qcschema_molecule',
              'schema_version': 2,
              'symbols': ['F', 'O', 'H', 'H', 'O', 'H', 'H'],
              'validated': True},
 'protocols': {'stdout': True},
 'provenance': {'creator': 'QCElemental', 'routine': 'qcelemental.models.results', 'version': '0.26.0'},
 'schema_name': 'qcschema_input',
 'schema_version': 1}
--------------------------------------------------------------------------

Scratch directory: /ddmfs1a/scratch/
   => Libint2 <=

    Primary   basis highest AM E, G, H:  5, 4, 3
    Auxiliary basis highest AM E, G, H:  6, 5, 4
    Onebody   basis highest AM E, G, H:  6, 5, 4
    Solid Harmonics ordering:            gaussian

*** tstart() called on ddmfs1
*** at Mon Jan 22 03:13:40 2024

   => Loading Basis Set <=

    Name: AUG-CC-PVTZ
    Role: ORBITAL
    Keyword: BASIS
    atoms 1        entry F          line   377 file /ddmfs1b/softs/psi4conda/share/psi4/basis/aug-cc-pvtz.gbs 
    atoms 2, 5     entry O          line   331 file /ddmfs1b/softs/psi4conda/share/psi4/basis/aug-cc-pvtz.gbs 
    atoms 3-4, 6-7 entry H          line    40 file /ddmfs1b/softs/psi4conda/share/psi4/basis/aug-cc-pvtz.gbs 


         ---------------------------------------------------------
                                   SCF
               by Justin Turney, Rob Parrish, Andy Simmonett
                          and Daniel G. A. Smith
                              RHF Reference
                       20 Threads,  57220 MiB Core
         ---------------------------------------------------------

  ==> Geometry <==

    Molecular point group: c1
    Full point group: C1

    Geometry (in Bohr), charge = -1, multiplicity = 1:

       Center              X                  Y                   Z               Mass       
    ------------   -----------------  -----------------  -----------------  -----------------
         F            2.961195169414     0.000000000000     0.000000000000    18.998403162730
      Gh(O)           0.000000000000    -0.013891376748     3.420570582978    15.994914619570
      Gh(H)          -1.140561210555     1.190831704945     2.696582489245     1.007825032230
      Gh(H)           1.403153773497    -0.051978806807     2.114561960413     1.007825032230
         O            0.000000000000     0.013891376748    -3.420570582978    15.994914619570
         H           -1.140561210555    -1.190831704945    -2.696582489245     1.007825032230
         H            1.403153773497     0.051978806807    -2.114561960413     1.007825032230

  Running in c1 symmetry.

  Rotational constants: A =      0.34205  B =      0.15019  C =      0.10539 [cm^-1]
  Rotational constants: A =  10254.51445  B =   4502.50685  C =   3159.56951 [MHz]
  Nuclear repulsion =   30.059997310150564

  Charge       = -1
  Multiplicity = 1
  Electrons    = 20
  Nalpha       = 10
  Nbeta        = 10

  ==> Algorithm <==

  SCF Algorithm Type is DF.
  DIIS enabled.
  MOM disabled.
  Fractional occupation disabled.
  Guess Type is SAD.
  Energy threshold   = 1.00e-08
  Density threshold  = 1.00e-08
  Integral threshold = 1.00e-12

  ==> Primary Basis <==

  Basis Set: AUG-CC-PVTZ
    Blend: AUG-CC-PVTZ
    Number of shells: 78
    Number of basis functions: 230
    Number of Cartesian functions: 265
    Spherical Harmonics?: true
    Max angular momentum: 3

   => Loading Basis Set <=

    Name: (AUG-CC-PVTZ AUX)
    Role: JKFIT
    Keyword: DF_BASIS_SCF
    atoms 1        entry F          line   348 file /ddmfs1b/softs/psi4conda/share/psi4/basis/aug-cc-pvtz-jkfit.gbs 
    atoms 2, 5     entry O          line   286 file /ddmfs1b/softs/psi4conda/share/psi4/basis/aug-cc-pvtz-jkfit.gbs 
    atoms 3-4, 6-7 entry H          line    70 file /ddmfs1b/softs/psi4conda/share/psi4/basis/aug-cc-pvtz-jkfit.gbs 

  ==> Integral Setup <==

  DFHelper Memory: AOs need 0.213 GiB; user supplied 41.910 GiB. 
  Using in-core AOs.

  ==> MemDFJK: Density-Fitted J/K Matrices <==

    J tasked:                   Yes
    K tasked:                   Yes
    wK tasked:                   No
    OpenMP threads:              20
    Memory [MiB]:             42915
    Algorithm:                 Core
    Schwarz Cutoff:           1E-12
    Mask sparsity (%):       1.2817
    Fitting Condition:        1E-10

   => Auxiliary Basis Set <=

  Basis Set: (AUG-CC-PVTZ AUX)
    Blend: AUG-CC-PVTZ-JKFIT
    Number of shells: 146
    Number of basis functions: 496
    Number of Cartesian functions: 613
    Spherical Harmonics?: true
    Max angular momentum: 4

  Minimum eigenvalue in the overlap matrix is 2.4614743176E-04.
  Reciprocal condition number of the overlap matrix is 2.3932592839E-05.
    Using symmetric orthogonalization.

  ==> Pre-Iterations <==

  SCF Guess: Superposition of Atomic Densities via on-the-fly atomic UHF (no occupation information).

   -------------------------
    Irrep   Nso     Nmo    
   -------------------------
     A        230     230 
   -------------------------
    Total     230     230
   -------------------------

  ==> Iterations <==

                           Total Energy        Delta E     RMS |[F,P]|

   @DF-RHF iter SAD:  -174.46504223391446   -1.74465e+02   0.00000e+00 
   @DF-RHF iter   1:  -175.38394370633546   -9.18901e-01   2.89690e-03 DIIS/ADIIS
   @DF-RHF iter   2:  -175.47844843586296   -9.45047e-02   2.18174e-03 DIIS/ADIIS
   @DF-RHF iter   3:  -175.54784266480155   -6.93942e-02   1.14782e-04 DIIS/ADIIS
   @DF-RHF iter   4:  -175.54829692226119   -4.54257e-04   5.38190e-05 DIIS
   @DF-RHF iter   5:  -175.54836193233416   -6.50101e-05   1.69982e-05 DIIS
   @DF-RHF iter   6:  -175.54837075917516   -8.82684e-06   3.10011e-06 DIIS
   @DF-RHF iter   7:  -175.54837134781329   -5.88638e-07   7.88695e-07 DIIS
   @DF-RHF iter   8:  -175.54837139641995   -4.86067e-08   1.77736e-07 DIIS
   @DF-RHF iter   9:  -175.54837139909895   -2.67900e-09   3.98005e-08 DIIS
   @DF-RHF iter  10:  -175.54837139921545   -1.16501e-10   7.54894e-09 DIIS
  Energy and wave function converged.


  ==> Post-Iterations <==

    Orbital Energies [Eh]
    ---------------------

    Doubly Occupied:                                                      

       1A    -25.896058     2A    -20.310370     3A     -1.164534  
       4A     -1.087638     5A     -0.464039     6A     -0.361300  
       7A     -0.270832     8A     -0.253548     9A     -0.244278  
      10A     -0.233435  

    Virtual:                                                              

      11A      0.141936    12A      0.157157    13A      0.173743  
      14A      0.191995    15A      0.257770    16A      0.276910  
      17A      0.279860    18A      0.303149    19A      0.315771  
      20A      0.326324    21A      0.345526    22A      0.364537  
      23A      0.385467    24A      0.399827    25A      0.430656  
      26A      0.434896    27A      0.444005    28A      0.453971  
      29A      0.483868    30A      0.498016    31A      0.523331  
      32A      0.534099    33A      0.554343    34A      0.582781  
      35A      0.609944    36A      0.621063    37A      0.629263  
      38A      0.650691    39A      0.676789    40A      0.715313  
      41A      0.736108    42A      0.799525    43A      0.850923  
      44A      0.884274    45A      0.902152    46A      0.904079  
      47A      0.914487    48A      0.939386    49A      0.946310  
      50A      0.969522    51A      0.976394    52A      1.012581  
      53A      1.028018    54A      1.038286    55A      1.048714  
      56A      1.070856    57A      1.089321    58A      1.111921  
      59A      1.121756    60A      1.135668    61A      1.161247  
      62A      1.162006    63A      1.187820    64A      1.217384  
      65A      1.228527    66A      1.241289    67A      1.253387  
      68A      1.283628    69A      1.305274    70A      1.338578  
      71A      1.356346    72A      1.388563    73A      1.401884  
      74A      1.441630    75A      1.463504    76A      1.479056  
      77A      1.486794    78A      1.539789    79A      1.557735  
      80A      1.583738    81A      1.587377    82A      1.633073  
      83A      1.647951    84A      1.667616    85A      1.756681  
      86A      1.772960    87A      1.837920    88A      1.856152  
      89A      1.886727    90A      1.907033    91A      1.944402  
      92A      1.953411    93A      1.971286    94A      2.021392  
      95A      2.031605    96A      2.056785    97A      2.125097  
      98A      2.151273    99A      2.209680   100A      2.223656  
     101A      2.295511   102A      2.364571   103A      2.387006  
     104A      2.529706   105A      2.586915   106A      2.643654  
     107A      2.647164   108A      2.668295   109A      2.678195  
     110A      2.702157   111A      2.741096   112A      2.788437  
     113A      2.800802   114A      2.838627   115A      2.860697  
     116A      2.903865   117A      2.908874   118A      2.947932  
     119A      2.980815   120A      2.986808   121A      3.033956  
     122A      3.085077   123A      3.112578   124A      3.134648  
     125A      3.157148   126A      3.167904   127A      3.281135  
     128A      3.303376   129A      3.378227   130A      3.398586  
     131A      3.429476   132A      3.459780   133A      3.579901  
     134A      3.622146   135A      3.644287   136A      3.719999  
     137A      3.766546   138A      3.778471   139A      3.866163  
     140A      3.890985   141A      3.949477   142A      3.995073  
     143A      4.056155   144A      4.122098   145A      4.207300  
     146A      4.339143   147A      4.425767   148A      4.497351  
     149A      4.507135   150A      4.514773   151A      4.550117  
     152A      4.605209   153A      4.631399   154A      4.667161  
     155A      4.711458   156A      4.767584   157A      4.838697  
     158A      4.854977   159A      4.885729   160A      4.935843  
     161A      5.021131   162A      5.063846   163A      5.119541  
     164A      5.244564   165A      5.333679   166A      5.343581  
     167A      5.454455   168A      5.528150   169A      5.539754  
     170A      5.586333   171A      5.642795   172A      5.736106  
     173A      5.816639   174A      5.879836   175A      5.913466  
     176A      5.959099   177A      5.987607   178A      6.035785  
     179A      6.079663   180A      6.229216   181A      6.511830  
     182A      6.641521   183A      6.713261   184A      6.776702  
     185A      6.854830   186A      7.055161   187A      7.159821  
     188A      7.251372   189A      7.302398   190A      7.437568  
     191A      7.552449   192A      7.579603   193A      7.637894  
     194A      7.682478   195A      7.761225   196A      7.940781  
     197A      7.964410   198A      8.092586   199A      8.239913  
     200A      8.275307   201A      8.294685   202A      8.369650  
     203A      8.528414   204A      8.987486   205A      9.016925  
     206A      9.099484   207A      9.390596   208A      9.435947  
     209A      9.646518   210A      9.691040   211A      9.755369  
     212A      9.826308   213A      9.877764   214A      9.891326  
     215A      9.944472   216A      9.957678   217A      9.970004  
     218A     10.099521   219A     10.264668   220A     10.297134  
     221A     10.536546   222A     10.686952   223A     11.567805  
     224A     11.984492   225A     12.485901   226A     13.804276  
     227A     14.142932   228A     16.422345   229A     16.611423  
     230A     65.823300  

    Final Occupation by Irrep:
              A 
    DOCC [    10 ]
    NA   [    10 ]
    NB   [    10 ]

  @DF-RHF Final Energy:  -175.54837139921545

   => Energetics <=

    Nuclear Repulsion Energy =             30.0599973101505640
    One-Electron Energy =                -310.6446699126702811
    Two-Electron Energy =                 105.0363012033042622
    Total Energy =                       -175.5483713992154549

Computation Completed


Properties will be evaluated at   0.000000,   0.000000,   0.000000 [a0]

Properties computed using the SCF density matrix


 Multipole Moments:

 ------------------------------------------------------------------------------------
     Multipole            Electronic (a.u.)      Nuclear  (a.u.)        Total (a.u.)
 ------------------------------------------------------------------------------------

 L = 1.  Multiply by 2.5417464519 to convert [e a0] to [Debye]
 Dipole X            :        -29.2019023           26.9133491           -2.2885532
 Dipole Y            :          0.6764895           -1.0277219           -0.3512324
 Dipole Z            :         33.4760777          -32.1757091            1.3003686
 Magnitude           :                                                    2.6555223

 ------------------------------------------------------------------------------------

*** tstop() called on ddmfs1 at Mon Jan 22 03:13:41 2024
Module time:
	user time   =      19.68 seconds =       0.33 minutes
	system time =       0.79 seconds =       0.01 minutes
	total time  =          1 seconds =       0.02 minutes
Total time:
	user time   =     101.06 seconds =       1.68 minutes
	system time =       4.05 seconds =       0.07 minutes
	total time  =          7 seconds =       0.12 minutes

*** tstart() called on ddmfs1
*** at Mon Jan 22 03:13:41 2024


  //>>>>>>>>>>>>>>>>>>>>>>>>>>>>>>>>>>>//
  //               DFMP2               //
  //<<<<<<<<<<<<<<<<<<<<<<<<<<<<<<<<<<<//

   => Loading Basis Set <=

    Name: (AUG-CC-PVTZ AUX)
    Role: RIFIT
    Keyword: DF_BASIS_MP2
    atoms 1        entry F          line   322 file /ddmfs1b/softs/psi4conda/share/psi4/basis/aug-cc-pvtz-ri.gbs 
[...]
    M. F. Herbst, and D. L. Poole

             Previous Authors, Complete List of Code Contributors,
                       and Citations for Specific Modules
    https://github.com/psi4/psi4/blob/master/codemeta.json
    https://github.com/psi4/psi4/graphs/contributors
    http://psicode.org/psi4manual/master/introduction.html#citing-psifour

    -----------------------------------------------------------------------


    Psi4 started on: Monday, 22 January 2024 03:13AM

    Process ID: 28888
    Host:       ddmfs1
    PSIDATADIR: /ddmfs1b/softs/psi4conda/share/psi4
    Memory:     55.9 GiB
    Threads:    20
    
  ==> Input QCSchema <==

--------------------------------------------------------------------------
{'driver': 'energy',
 'extras': {'psiapi': True, 'wfn_qcvars_only': True},
 'id': None,
 'keywords': {'SCF_TYPE': 'DF', 'function_kwargs': {}},
 'model': {'basis': 'aug-cc-pvtz', 'method': 'mp2'},
 'molecule': {'atom_labels': ['', '', '', '', '', '', ''],
              'atomic_numbers': [9, 8, 1, 1, 8, 1, 1],
              'extras': {},
              'fix_com': True,
              'fix_orientation': True,
              'fix_symmetry': 'c1',
              'fragment_charges': [-1.0, 0.0, 0.0],
              'fragment_multiplicities': [1, 1, 1],
              'fragments': [[0], [1, 2, 3], [4, 5, 6]],
              'geometry': [2.96119516941404, 0.0, 0.0, 0.0, -0.013891376748240494, 3.4205705829777084,
                           -1.1405612105552012, 1.1908317049446304, 2.696582489244557, 1.4031537734965702,
                           -0.05197880680684302, 2.1145619604125496, 0.0, 0.013891376748240494, -3.4205705829777084,
                           -1.1405612105552012, -1.1908317049446304, -2.696582489244557, 1.4031537734965702,
                           0.05197880680684302, -2.1145619604125496],
              'mass_numbers': [19, 16, 1, 1, 16, 1, 1],
              'masses': [18.99840316273, 15.99491461957, 1.00782503223, 1.00782503223, 15.99491461957, 1.00782503223,
                         1.00782503223],
              'molecular_charge': -1.0,
              'molecular_multiplicity': 1,
              'name': 'dimer',
              'provenance': {'creator': 'QCElemental',
                             'routine': 'qcelemental.molparse.from_string',
                             'version': '0.26.0'},
              'real': [True, True, True, True, True, True, True],
              'schema_name': 'qcschema_molecule',
              'schema_version': 2,
              'symbols': ['F', 'O', 'H', 'H', 'O', 'H', 'H'],
              'validated': True},
 'protocols': {'stdout': True},
 'provenance': {'creator': 'QCElemental', 'routine': 'qcelemental.models.results', 'version': '0.26.0'},
 'schema_name': 'qcschema_input',
 'schema_version': 1}
--------------------------------------------------------------------------

Scratch directory: /ddmfs1a/scratch/
   => Libint2 <=

    Primary   basis highest AM E, G, H:  5, 4, 3
    Auxiliary basis highest AM E, G, H:  6, 5, 4
    Onebody   basis highest AM E, G, H:  6, 5, 4
    Solid Harmonics ordering:            gaussian

*** tstart() called on ddmfs1
*** at Mon Jan 22 03:13:45 2024

   => Loading Basis Set <=

    Name: AUG-CC-PVTZ
    Role: ORBITAL
    Keyword: BASIS
    atoms 1        entry F          line   377 file /ddmfs1b/softs/psi4conda/share/psi4/basis/aug-cc-pvtz.gbs 
    atoms 2, 5     entry O          line   331 file /ddmfs1b/softs/psi4conda/share/psi4/basis/aug-cc-pvtz.gbs 
    atoms 3-4, 6-7 entry H          line    40 file /ddmfs1b/softs/psi4conda/share/psi4/basis/aug-cc-pvtz.gbs 


         ---------------------------------------------------------
                                   SCF
               by Justin Turney, Rob Parrish, Andy Simmonett
                          and Daniel G. A. Smith
                              RHF Reference
                       20 Threads,  57220 MiB Core
         ---------------------------------------------------------

  ==> Geometry <==

    Molecular point group: c1
    Full point group: C2

    Geometry (in Bohr), charge = -1, multiplicity = 1:

       Center              X                  Y                   Z               Mass       
    ------------   -----------------  -----------------  -----------------  -----------------
         F            2.961195169414     0.000000000000     0.000000000000    18.998403162730
         O            0.000000000000    -0.013891376748     3.420570582978    15.994914619570
         H           -1.140561210555     1.190831704945     2.696582489245     1.007825032230
         H            1.403153773497    -0.051978806807     2.114561960413     1.007825032230
         O            0.000000000000     0.013891376748    -3.420570582978    15.994914619570
         H           -1.140561210555    -1.190831704945    -2.696582489245     1.007825032230
         H            1.403153773497     0.051978806807    -2.114561960413     1.007825032230

  Running in c1 symmetry.

  Rotational constants: A =      0.34205  B =      0.15019  C =      0.10539 [cm^-1]
  Rotational constants: A =  10254.51445  B =   4502.50685  C =   3159.56951 [MHz]
  Nuclear repulsion =   75.569088497638347

  Charge       = -1
  Multiplicity = 1
  Electrons    = 30
  Nalpha       = 15
  Nbeta        = 15

  ==> Algorithm <==

  SCF Algorithm Type is DF.
  DIIS enabled.
  MOM disabled.
  Fractional occupation disabled.
  Guess Type is SAD.
  Energy threshold   = 1.00e-08
  Density threshold  = 1.00e-08
  Integral threshold = 1.00e-12

  ==> Primary Basis <==

  Basis Set: AUG-CC-PVTZ
    Blend: AUG-CC-PVTZ
    Number of shells: 78
    Number of basis functions: 230
    Number of Cartesian functions: 265
    Spherical Harmonics?: true
    Max angular momentum: 3

   => Loading Basis Set <=

    Name: (AUG-CC-PVTZ AUX)
    Role: JKFIT
    Keyword: DF_BASIS_SCF
    atoms 1        entry F          line   348 file /ddmfs1b/softs/psi4conda/share/psi4/basis/aug-cc-pvtz-jkfit.gbs 
    atoms 2, 5     entry O          line   286 file /ddmfs1b/softs/psi4conda/share/psi4/basis/aug-cc-pvtz-jkfit.gbs 
    atoms 3-4, 6-7 entry H          line    70 file /ddmfs1b/softs/psi4conda/share/psi4/basis/aug-cc-pvtz-jkfit.gbs 

  ==> Integral Setup <==

  DFHelper Memory: AOs need 0.213 GiB; user supplied 41.910 GiB. 
  Using in-core AOs.

  ==> MemDFJK: Density-Fitted J/K Matrices <==

    J tasked:                   Yes
    K tasked:                   Yes
    wK tasked:                   No
    OpenMP threads:              20
    Memory [MiB]:             42915
    Algorithm:                 Core
    Schwarz Cutoff:           1E-12
    Mask sparsity (%):       1.2817
    Fitting Condition:        1E-10

   => Auxiliary Basis Set <=

  Basis Set: (AUG-CC-PVTZ AUX)
    Blend: AUG-CC-PVTZ-JKFIT
    Number of shells: 146
    Number of basis functions: 496
    Number of Cartesian functions: 613
    Spherical Harmonics?: true
    Max angular momentum: 4

  Minimum eigenvalue in the overlap matrix is 2.4614743176E-04.
  Reciprocal condition number of the overlap matrix is 2.3932592839E-05.
    Using symmetric orthogonalization.

  ==> Pre-Iterations <==

  SCF Guess: Superposition of Atomic Densities via on-the-fly atomic UHF (no occupation information).

   -------------------------
    Irrep   Nso     Nmo    
   -------------------------
     A        230     230 
   -------------------------
    Total     230     230
   -------------------------

  ==> Iterations <==

                           Total Energy        Delta E     RMS |[F,P]|

   @DF-RHF iter SAD:  -250.14446350279272   -2.50144e+02   0.00000e+00 
   @DF-RHF iter   1:  -251.41090974730469   -1.26645e+00   3.38289e-03 DIIS/ADIIS
   @DF-RHF iter   2:  -251.54966025177495   -1.38751e-01   2.33484e-03 DIIS/ADIIS
   @DF-RHF iter   3:  -251.63332484717378   -8.36646e-02   1.34652e-04 DIIS/ADIIS
   @DF-RHF iter   4:  -251.63411579811969   -7.90951e-04   4.79445e-05 DIIS
   @DF-RHF iter   5:  -251.63417253188584   -5.67338e-05   1.94832e-05 DIIS
   @DF-RHF iter   6:  -251.63418377881874   -1.12469e-05   3.78836e-06 DIIS
   @DF-RHF iter   7:  -251.63418466093634   -8.82118e-07   9.89255e-07 DIIS
   @DF-RHF iter   8:  -251.63418473337444   -7.24381e-08   2.06979e-07 DIIS
   @DF-RHF iter   9:  -251.63418473693127   -3.55683e-09   4.65052e-08 DIIS
   @DF-RHF iter  10:  -251.63418473707077   -1.39494e-10   9.43144e-09 DIIS
  Energy and wave function converged.


  ==> Post-Iterations <==

    Orbital Energies [Eh]
    ---------------------

    Doubly Occupied:                                                      

       1A    -25.957561     2A    -20.334779     3A    -20.334778  
       4A     -1.244235     5A     -1.118238     6A     -1.112310  
       7A     -0.507250     8A     -0.483667     9A     -0.395920  
      10A     -0.391252    11A     -0.326767    12A     -0.297943  
      13A     -0.287233    14A     -0.281146    15A     -0.278286  

    Virtual:                                                              

      16A      0.147416    17A      0.157518    18A      0.180233  
      19A      0.182343    20A      0.281275    21A      0.287671  
      22A      0.304621    23A      0.313203    24A      0.321428  
      25A      0.340100    26A      0.345715    27A      0.356206  
      28A      0.370802    29A      0.401211    30A      0.420351  
      31A      0.424960    32A      0.430590    33A      0.446368  
      34A      0.478602    35A      0.495136    36A      0.522369  
      37A      0.551315    38A      0.583450    39A      0.607084  
      40A      0.609299    41A      0.618996    42A      0.629831  
      43A      0.653627    44A      0.696507    45A      0.708878  
      46A      0.756088    47A      0.783356    48A      0.822575  
      49A      0.854523    50A      0.875203    51A      0.890961  
      52A      0.895158    53A      0.923877    54A      0.930164  
      55A      0.954155    56A      0.962234    57A      0.998159  
      58A      1.037650    59A      1.046147    60A      1.076057  
      61A      1.091350    62A      1.103227    63A      1.111406  
      64A      1.120687    65A      1.131865    66A      1.138238  
      67A      1.182610    68A      1.183557    69A      1.203567  
      70A      1.224439    71A      1.228128    72A      1.234196  
      73A      1.270305    74A      1.281242    75A      1.310473  
      76A      1.338840    77A      1.379264    78A      1.395072  
      79A      1.409758    80A      1.433617    81A      1.447749  
      82A      1.461724    83A      1.484717    84A      1.513276  
      85A      1.548368    86A      1.550118    87A      1.579744  
      88A      1.622027    89A      1.682851    90A      1.720164  
      91A      1.735374    92A      1.785513    93A      1.823305  
      94A      1.825321    95A      1.842045    96A      1.878275  
      97A      1.899909    98A      1.932767    99A      2.006915  
     100A      2.055302   101A      2.102105   102A      2.106658  
     103A      2.181932   104A      2.197005   105A      2.248282  
     106A      2.266251   107A      2.324213   108A      2.422632  
     109A      2.513768   110A      2.552143   111A      2.617098  
     112A      2.620036   113A      2.644596   114A      2.650255  
     115A      2.686056   116A      2.715972   117A      2.729575  
     118A      2.740004   119A      2.758223   120A      2.795339  
     121A      2.854978   122A      2.868455   123A      2.923129  
     124A      2.931169   125A      2.955289   126A      2.967583  
     127A      3.019418   128A      3.022046   129A      3.060411  
     130A      3.080825   131A      3.092038   132A      3.093556  
     133A      3.144764   134A      3.163645   135A      3.269551  
     136A      3.398701   137A      3.454420   138A      3.509819  
     139A      3.570943   140A      3.649457   141A      3.764840  
     142A      3.770793   143A      3.880341   144A      3.927280  
     145A      3.996372   146A      4.029797   147A      4.129271  
     148A      4.191745   149A      4.291474   150A      4.309084  
     151A      4.393472   152A      4.432590   153A      4.451292  
     154A      4.470563   155A      4.489043   156A      4.494150  
     157A      4.572288   158A      4.578310   159A      4.593685  
     160A      4.593849   161A      4.606190   162A      4.671984  
     163A      4.757009   164A      4.779646   165A      4.784494  
     166A      4.836383   167A      4.873566   168A      4.893849  
     169A      5.086206   170A      5.126784   171A      5.301362  
     172A      5.303495   173A      5.433106   174A      5.471561  
     175A      5.523711   176A      5.542569   177A      5.562017  
     178A      5.584422   179A      5.664260   180A      5.718416  
     181A      5.842057   182A      5.863916   183A      5.883541  
     184A      5.916245   185A      5.952358   186A      6.458531  
     187A      6.518042   188A      6.671721   189A      6.683244  
     190A      6.780459   191A      6.868476   192A      7.017671  
     193A      7.043244   194A      7.208896   195A      7.236579  
     196A      7.376701   197A      7.470003   198A      7.525997  
     199A      7.531825   200A      7.551245   201A      7.554569  
     202A      7.597069   203A      7.625459   204A      7.648566  
     205A      7.670478   206A      7.734304   207A      7.740630  
     208A      7.919386   209A      7.950803   210A      8.195220  
     211A      8.225491   212A      8.249182   213A      8.265747  
     214A      9.009325   215A      9.106998   216A      9.322892  
     217A      9.378321   218A      9.579000   219A      9.665511  
     220A      9.696334   221A      9.813100   222A      9.821632  
     223A      9.871330   224A      9.889898   225A      9.903660  
     226A     10.303423   227A     10.615844   228A     16.311619  
     229A     16.562439   230A     16.578017  

    Final Occupation by Irrep:
              A 
    DOCC [    15 ]
    NA   [    15 ]
    NB   [    15 ]

  @DF-RHF Final Energy:  -251.63418473707077

   => Energetics <=

    Nuclear Repulsion Energy =             75.5690884976383472
    One-Electron Energy =                -507.7038120679823692
    Two-Electron Energy =                 180.5005388332732537
    Total Energy =                       -251.6341847370707683

Computation Completed


Properties will be evaluated at   0.000000,   0.000000,   0.000000 [a0]

Properties computed using the SCF density matrix


 Multipole Moments:

 ------------------------------------------------------------------------------------
     Multipole            Electronic (a.u.)      Nuclear  (a.u.)        Total (a.u.)
 ------------------------------------------------------------------------------------

 L = 1.  Multiply by 2.5417464519 to convert [e a0] to [Debye]
 Dipole X            :        -28.9174464           27.1759417           -1.7415047
 Dipole Y            :          0.0000000            0.0000000            0.0000000
 Dipole Z            :          0.0000000            0.0000000            0.0000000
 Magnitude           :                                                    1.7415047

 ------------------------------------------------------------------------------------

*** tstop() called on ddmfs1 at Mon Jan 22 03:13:46 2024
Module time:
	user time   =      20.15 seconds =       0.34 minutes
	system time =       0.75 seconds =       0.01 minutes
	total time  =          1 seconds =       0.02 minutes
Total time:
	user time   =     185.47 seconds =       3.09 minutes
	system time =       7.06 seconds =       0.12 minutes
	total time  =         12 seconds =       0.20 minutes

*** tstart() called on ddmfs1
*** at Mon Jan 22 03:13:46 2024


  //>>>>>>>>>>>>>>>>>>>>>>>>>>>>>>>>>>>//
  //               DFMP2               //
  //<<<<<<<<<<<<<<<<<<<<<<<<<<<<<<<<<<<//

   => Loading Basis Set <=

    Name: (AUG-CC-PVTZ AUX)
    Role: RIFIT
    Keyword: DF_BASIS_MP2
    atoms 1        entry F          line   322 file /ddmfs1b/softs/psi4conda/share/psi4/basis/aug-cc-pvtz-ri.gbs 
    atoms 2, 5     entry O          line   264 file /ddmfs1b/softs/psi4conda/share/psi4/basis/aug-cc-pvtz-ri.gbs 
    atoms 3-4, 6-7 entry H          line    30 file /ddmfs1b/softs/psi4conda/share/psi4/basis/aug-cc-pvtz-ri.gbs 

	 --------------------------------------------------------
	                          DF-MP2                         
	      2nd-Order Density-Fitted Moller-Plesset Theory     
	              RMP2 Wavefunction,  20 Threads             
	                                                         
	        Rob Parrish, Justin Turney, Andy Simmonett,      
	           Ed Hohenstein, and C. David Sherrill          
	 --------------------------------------------------------

   => Auxiliary Basis Set <=

  Basis Set: (AUG-CC-PVTZ AUX)
    Blend: AUG-CC-PVTZ-RI
    Number of shells: 140
    Number of basis functions: 502
    Number of Cartesian functions: 628
    Spherical Harmonics?: true
    Max angular momentum: 4

	 --------------------------------------------------------
	                 NBF =   230, NAUX =   502
	 --------------------------------------------------------
	   CLASS    FOCC     OCC    AOCC    AVIR     VIR    FVIR
	   PAIRS       0      15      15     215     215       0
	 --------------------------------------------------------

	-----------------------------------------------------------
	 ==================> DF-MP2 Energies <==================== 
	-----------------------------------------------------------
	 Reference Energy          =    -251.6341847370707683 [Eh]
	 Singles Energy            =      -0.0000000000000000 [Eh]
	 Same-Spin Energy          =      -0.2252652938596074 [Eh]
	 Opposite-Spin Energy      =      -0.6641092877212664 [Eh]
	 Correlation Energy        =      -0.8893745815808738 [Eh]
	 Total Energy              =    -252.5235593186516496 [Eh]
	-----------------------------------------------------------
	 ================> DF-SCS-MP2 Energies <================== 
	-----------------------------------------------------------
	 SCS Same-Spin Scale       =       0.3333333333333333 [-]
	 SCS Opposite-Spin Scale   =       1.2000000000000000 [-]
	 SCS Same-Spin Energy      =      -0.0750884312865358 [Eh]
	 SCS Opposite-Spin Energy  =      -0.7969311452655197 [Eh]
	 SCS Correlation Energy    =      -0.8720195765520555 [Eh]
	 SCS Total Energy          =    -252.5062043136228169 [Eh]
	-----------------------------------------------------------


*** tstop() called on ddmfs1 at Mon Jan 22 03:13:47 2024
Module time:
	user time   =       7.84 seconds =       0.13 minutes
	system time =       0.31 seconds =       0.01 minutes
	total time  =          1 seconds =       0.02 minutes
Total time:
	user time   =     193.32 seconds =       3.22 minutes
	system time =       7.37 seconds =       0.12 minutes
	total time  =         13 seconds =       0.22 minutes

    Psi4 stopped on: Monday, 22 January 2024 03:13AM
    Psi4 wall time for execution: 0:00:01.92


  //>>>>>>>>>>>>>>>>>>>>>>>>>>>>>>>>>>>//
  //          ManyBody Results         //
  //<<<<<<<<<<<<<<<<<<<<<<<<<<<<<<<<<<<//


   ==> N-Body: Counterpoise Corrected (CP) energies <==

        n-Body     Total Energy            Interaction Energy                          N-body Contribution to Interaction Energy
                   [Eh]                    [Eh]                  [kcal/mol]            [Eh]                  [kcal/mol]
             1  N/A                         0.000000000000        0.000000000000        0.000000000000        0.000000000000
             2  N/A                        -0.084619737409      -53.099686892403       -0.084619737409      -53.099686892403
  FULL/RTN   3  N/A                        -0.075844505390      -47.593145666193        0.008775232019        5.506541226209


    Psi4 stopped on: Monday, 22 January 2024 03:13AM
    Psi4 wall time for execution: 0:00:15.94

*** Psi4 exiting successfully. Buy a developer a beer!
