
    -----------------------------------------------------------------------
          Psi4: An Open-Source Ab Initio Electronic Structure Package
                               Psi4 1.8.2 release

                         Git: Rev {} zzzzzzz 


    D. G. A. Smith, L. A. Burns, A. C. Simmonett, R. M. Parrish,
    M. C. Schieber, R. Galvelis, P. Kraus, H. Kruse, R. Di Remigio,
    A. Alenaizan, A. M. James, S. Lehtola, J. P. Misiewicz, M. Scheurer,
    R. A. Shaw, J. B. Schriber, Y. Xie, Z. L. Glick, D. A. Sirianni,
    J. S. O'Brien, J. M. Waldrop, A. Kumar, E. G. Hohenstein,
    B. P. Pritchard, B. R. Brooks, H. F. Schaefer III, A. Yu. Sokolov,
    K. Patkowski, A. E. DePrince III, U. Bozkaya, R. A. King,
    F. A. Evangelista, J. M. Turney, T. D. Crawford, C. D. Sherrill,
    J. Chem. Phys. 152(18) 184108 (2020). https://doi.org/10.1063/5.0006002

                            Additional Code Authors
    E. T. Seidl, C. L. Janssen, E. F. Valeev, M. L. Leininger,
    J. F. Gonthier, R. M. Richard, H. R. McAlexander, M. Saitow, X. Wang,
    P. Verma, M. H. Lechner, A. Jiang, S. Behnle, A. G. Heide,
    M. F. Herbst, and D. L. Poole

             Previous Authors, Complete List of Code Contributors,
                       and Citations for Specific Modules
    https://github.com/psi4/psi4/blob/master/codemeta.json
    https://github.com/psi4/psi4/graphs/contributors
    http://psicode.org/psi4manual/master/introduction.html#citing-psifour

    -----------------------------------------------------------------------


    Psi4 started on: Monday, 22 January 2024 03:14AM

    Process ID: 28960
    Host:       ddmfs1
    PSIDATADIR: /ddmfs1b/softs/psi4conda/share/psi4
    Memory:     500.0 MiB
    Threads:    20
    
  ==> Input File <==

--------------------------------------------------------------------------
MEMORY 60 GB

molecule dimer {
-1 1
F      1.741108     0.000000     0.000000
--
0 1
O      0.000000    -0.007351     1.810088
H     -0.603559     0.630161     1.426970
H      0.742517    -0.027506     1.118978
--
0 1
O      0.000000     0.007351    -1.810088
H     -0.603559    -0.630161    -1.426970
H      0.742517     0.027506    -1.118978

units ang
no_reorient
no_com
symmetry c1
}

set {
basis        aug-cc-pVTZ
scf_type     df
}

energy("mp2", bsse_type="cp")
--------------------------------------------------------------------------

  Memory set to  55.879 GiB by Python driver.

Scratch directory: /ddmfs1a/scratch/

  //>>>>>>>>>>>>>>>>>>>>>>>>>>>>>>>>>>>>>>>>//
  // ManyBody Setup: N-Body Levels [1, 2, 3]//
  //<<<<<<<<<<<<<<<<<<<<<<<<<<<<<<<<<<<<<<<<//

        Number of 1-body computations:     3
        Number of 2-body computations:     3
        Number of 3-body computations:     1

    -----------------------------------------------------------------------
          Psi4: An Open-Source Ab Initio Electronic Structure Package
                               Psi4 1.8.2 release

                         Git: Rev {} zzzzzzz 


    D. G. A. Smith, L. A. Burns, A. C. Simmonett, R. M. Parrish,
    M. C. Schieber, R. Galvelis, P. Kraus, H. Kruse, R. Di Remigio,
    A. Alenaizan, A. M. James, S. Lehtola, J. P. Misiewicz, M. Scheurer,
    R. A. Shaw, J. B. Schriber, Y. Xie, Z. L. Glick, D. A. Sirianni,
    J. S. O'Brien, J. M. Waldrop, A. Kumar, E. G. Hohenstein,
    B. P. Pritchard, B. R. Brooks, H. F. Schaefer III, A. Yu. Sokolov,
    K. Patkowski, A. E. DePrince III, U. Bozkaya, R. A. King,
    F. A. Evangelista, J. M. Turney, T. D. Crawford, C. D. Sherrill,
    J. Chem. Phys. 152(18) 184108 (2020). https://doi.org/10.1063/5.0006002

                            Additional Code Authors
    E. T. Seidl, C. L. Janssen, E. F. Valeev, M. L. Leininger,
    J. F. Gonthier, R. M. Richard, H. R. McAlexander, M. Saitow, X. Wang,
    P. Verma, M. H. Lechner, A. Jiang, S. Behnle, A. G. Heide,
    M. F. Herbst, and D. L. Poole

             Previous Authors, Complete List of Code Contributors,
                       and Citations for Specific Modules
    https://github.com/psi4/psi4/blob/master/codemeta.json
    https://github.com/psi4/psi4/graphs/contributors
    http://psicode.org/psi4manual/master/introduction.html#citing-psifour

    -----------------------------------------------------------------------


    Psi4 started on: Monday, 22 January 2024 03:14AM

    Process ID: 28960
    Host:       ddmfs1
    PSIDATADIR: /ddmfs1b/softs/psi4conda/share/psi4
    Memory:     55.9 GiB
    Threads:    20
    
  ==> Input QCSchema <==

--------------------------------------------------------------------------
{'driver': 'energy',
 'extras': {'psiapi': True, 'wfn_qcvars_only': True},
 'id': None,
 'keywords': {'SCF_TYPE': 'DF', 'function_kwargs': {}},
 'model': {'basis': 'aug-cc-pvtz', 'method': 'mp2'},
 'molecule': {'atom_labels': ['', '', '', '', '', '', ''],
              'atomic_numbers': [9, 8, 1, 1, 8, 1, 1],
              'extras': {},
              'fix_com': True,
              'fix_orientation': True,
              'fix_symmetry': 'c1',
              'fragment_charges': [-1.0, 0.0, 0.0],
              'fragment_multiplicities': [1, 1, 1],
              'fragments': [[0], [1, 2, 3], [4, 5, 6]],
              'geometry': [3.2902172748436285, 0.0, 0.0, 0.0, -0.013891376748240494, 3.4205705829777084,
                           -1.1405612105552012, 1.1908317049446304, 2.696582489244557, 1.4031537734965702,
                           -0.05197880680684302, 2.1145619604125496, 0.0, 0.013891376748240494, -3.4205705829777084,
                           -1.1405612105552012, -1.1908317049446304, -2.696582489244557, 1.4031537734965702,
                           0.05197880680684302, -2.1145619604125496],
              'mass_numbers': [19, 16, 1, 1, 16, 1, 1],
              'masses': [18.99840316273, 15.99491461957, 1.00782503223, 1.00782503223, 15.99491461957, 1.00782503223,
                         1.00782503223],
              'molecular_charge': -1.0,
              'molecular_multiplicity': 1,
              'name': 'dimer',
              'provenance': {'creator': 'QCElemental',
                             'routine': 'qcelemental.molparse.from_string',
                             'version': '0.26.0'},
              'real': [True, False, False, False, False, False, False],
              'schema_name': 'qcschema_molecule',
              'schema_version': 2,
              'symbols': ['F', 'O', 'H', 'H', 'O', 'H', 'H'],
              'validated': True},
 'protocols': {'stdout': True},
 'provenance': {'creator': 'QCElemental', 'routine': 'qcelemental.models.results', 'version': '0.26.0'},
 'schema_name': 'qcschema_input',
 'schema_version': 1}
--------------------------------------------------------------------------

Scratch directory: /ddmfs1a/scratch/
   => Libint2 <=

    Primary   basis highest AM E, G, H:  5, 4, 3
    Auxiliary basis highest AM E, G, H:  6, 5, 4
    Onebody   basis highest AM E, G, H:  6, 5, 4
    Solid Harmonics ordering:            gaussian

*** tstart() called on ddmfs1
*** at Mon Jan 22 03:14:07 2024

   => Loading Basis Set <=

    Name: AUG-CC-PVTZ
    Role: ORBITAL
    Keyword: BASIS
    atoms 1        entry F          line   377 file /ddmfs1b/softs/psi4conda/share/psi4/basis/aug-cc-pvtz.gbs 
    atoms 2, 5     entry O          line   331 file /ddmfs1b/softs/psi4conda/share/psi4/basis/aug-cc-pvtz.gbs 
    atoms 3-4, 6-7 entry H          line    40 file /ddmfs1b/softs/psi4conda/share/psi4/basis/aug-cc-pvtz.gbs 


         ---------------------------------------------------------
                                   SCF
               by Justin Turney, Rob Parrish, Andy Simmonett
                          and Daniel G. A. Smith
                              RHF Reference
                       20 Threads,  57220 MiB Core
         ---------------------------------------------------------

  ==> Geometry <==

    Molecular point group: c1
    Full point group: C2

    Geometry (in Bohr), charge = -1, multiplicity = 1:

       Center              X                  Y                   Z               Mass       
    ------------   -----------------  -----------------  -----------------  -----------------
         F            3.290217274844     0.000000000000     0.000000000000    18.998403162730
      Gh(O)           0.000000000000    -0.013891376748     3.420570582978    15.994914619570
      Gh(H)          -1.140561210555     1.190831704945     2.696582489245     1.007825032230
      Gh(H)           1.403153773497    -0.051978806807     2.114561960413     1.007825032230
      Gh(O)           0.000000000000     0.013891376748    -3.420570582978    15.994914619570
      Gh(H)          -1.140561210555    -1.190831704945    -2.696582489245     1.007825032230
      Gh(H)           1.403153773497     0.051978806807    -2.114561960413     1.007825032230

  Running in c1 symmetry.

  Rotational constants: A =      0.27991  B =      0.15019  C =      0.09864 [cm^-1]
  Rotational constants: A =   8391.34598  B =   4502.50685  C =   2957.25716 [MHz]
  Nuclear repulsion =    0.000000000000000

  Charge       = -1
  Multiplicity = 1
  Electrons    = 10
  Nalpha       = 5
  Nbeta        = 5

  ==> Algorithm <==

  SCF Algorithm Type is DF.
  DIIS enabled.
  MOM disabled.
  Fractional occupation disabled.
  Guess Type is SAD.
  Energy threshold   = 1.00e-08
  Density threshold  = 1.00e-08
  Integral threshold = 1.00e-12

  ==> Primary Basis <==

  Basis Set: AUG-CC-PVTZ
    Blend: AUG-CC-PVTZ
    Number of shells: 78
    Number of basis functions: 230
    Number of Cartesian functions: 265
    Spherical Harmonics?: true
    Max angular momentum: 3

   => Loading Basis Set <=

    Name: (AUG-CC-PVTZ AUX)
    Role: JKFIT
    Keyword: DF_BASIS_SCF
    atoms 1        entry F          line   348 file /ddmfs1b/softs/psi4conda/share/psi4/basis/aug-cc-pvtz-jkfit.gbs 
    atoms 2, 5     entry O          line   286 file /ddmfs1b/softs/psi4conda/share/psi4/basis/aug-cc-pvtz-jkfit.gbs 
    atoms 3-4, 6-7 entry H          line    70 file /ddmfs1b/softs/psi4conda/share/psi4/basis/aug-cc-pvtz-jkfit.gbs 

  ==> Integral Setup <==

  DFHelper Memory: AOs need 0.213 GiB; user supplied 41.910 GiB. 
  Using in-core AOs.

  ==> MemDFJK: Density-Fitted J/K Matrices <==

    J tasked:                   Yes
    K tasked:                   Yes
    wK tasked:                   No
    OpenMP threads:              20
    Memory [MiB]:             42915
    Algorithm:                 Core
    Schwarz Cutoff:           1E-12
    Mask sparsity (%):       1.2892
    Fitting Condition:        1E-10

   => Auxiliary Basis Set <=

  Basis Set: (AUG-CC-PVTZ AUX)
    Blend: AUG-CC-PVTZ-JKFIT
    Number of shells: 146
    Number of basis functions: 496
    Number of Cartesian functions: 613
    Spherical Harmonics?: true
    Max angular momentum: 4

  Minimum eigenvalue in the overlap matrix is 2.4463770623E-04.
  Reciprocal condition number of the overlap matrix is 2.4069965683E-05.
    Using symmetric orthogonalization.

  ==> Pre-Iterations <==

  SCF Guess: Superposition of Atomic Densities via on-the-fly atomic UHF (no occupation information).

   -------------------------
    Irrep   Nso     Nmo    
   -------------------------
     A        230     230 
   -------------------------
    Total     230     230
   -------------------------

  ==> Iterations <==

                           Total Energy        Delta E     RMS |[F,P]|

   @DF-RHF iter SAD:   -98.82535141032518   -9.88254e+01   0.00000e+00 
   @DF-RHF iter   1:   -99.33788209763090   -5.12531e-01   2.37434e-03 DIIS/ADIIS
   @DF-RHF iter   2:   -99.37337516021734   -3.54931e-02   2.31559e-03 DIIS/ADIIS
   @DF-RHF iter   3:   -99.45091313748719   -7.75380e-02   7.81334e-05 DIIS
   @DF-RHF iter   4:   -99.45098370375808   -7.05663e-05   2.81516e-05 DIIS
   @DF-RHF iter   5:   -99.45099433259304   -1.06288e-05   1.92109e-06 DIIS
   @DF-RHF iter   6:   -99.45099444546477   -1.12872e-07   1.84788e-07 DIIS
   @DF-RHF iter   7:   -99.45099444686819   -1.40342e-09   2.78230e-08 DIIS
   @DF-RHF iter   8:   -99.45099444693392   -6.57252e-11   7.03106e-09 DIIS
  Energy and wave function converged.


  ==> Post-Iterations <==

    Orbital Energies [Eh]
    ---------------------

    Doubly Occupied:                                                      

       1A    -25.833754     2A     -1.075976     3A     -0.180981  
       4A     -0.180980     5A     -0.180900  

    Virtual:                                                              

       6A      0.139571     7A      0.151532     8A      0.176795  
       9A      0.192071    10A      0.262439    11A      0.274684  
      12A      0.276907    13A      0.277953    14A      0.295233  
      15A      0.316794    16A      0.326389    17A      0.343942  
      18A      0.395169    19A      0.400550    20A      0.432999  
      21A      0.447271    22A      0.455061    23A      0.464016  
      24A      0.489669    25A      0.490378    26A      0.521008  
      27A      0.535899    28A      0.546286    29A      0.565896  
      30A      0.596232    31A      0.601374    32A      0.608264  
      33A      0.654173    34A      0.661229    35A      0.699738  
      36A      0.745489    37A      0.751328    38A      0.869970  
      39A      0.887613    40A      0.906284    41A      0.914575  
      42A      0.942214    43A      0.957378    44A      0.962078  
      45A      0.975631    46A      0.995701    47A      1.019106  
      48A      1.025647    49A      1.034291    50A      1.053336  
      51A      1.055379    52A      1.063013    53A      1.087260  
      54A      1.097255    55A      1.135659    56A      1.136895  
      57A      1.153995    58A      1.166183    59A      1.191392  
      60A      1.236830    61A      1.245474    62A      1.268311  
      63A      1.299785    64A      1.311503    65A      1.359517  
      66A      1.366408    67A      1.396382    68A      1.407621  
      69A      1.434414    70A      1.479927    71A      1.506985  
      72A      1.514878    73A      1.546718    74A      1.558154  
      75A      1.628942    76A      1.633580    77A      1.636929  
      78A      1.655037    79A      1.695564    80A      1.696639  
      81A      1.852548    82A      1.872850    83A      1.880531  
      84A      1.920772    85A      1.949667    86A      1.951510  
      87A      1.994474    88A      1.998735    89A      2.031098  
      90A      2.035652    91A      2.073359    92A      2.085844  
      93A      2.094804    94A      2.112894    95A      2.184861  
      96A      2.234369    97A      2.373591    98A      2.396267  
      99A      2.483611   100A      2.636009   101A      2.652763  
     102A      2.678359   103A      2.683631   104A      2.721976  
     105A      2.737912   106A      2.785411   107A      2.844675  
     108A      2.853099   109A      2.857885   110A      2.870221  
     111A      2.895312   112A      2.913261   113A      2.931099  
     114A      2.991324   115A      3.125633   116A      3.134541  
     117A      3.149969   118A      3.178196   119A      3.319202  
     120A      3.344545   121A      3.358557   122A      3.363593  
     123A      3.408059   124A      3.413329   125A      3.430338  
     126A      3.437527   127A      3.473919   128A      3.596941  
     129A      3.630782   130A      3.641145   131A      3.647728  
     132A      3.702510   133A      3.749078   134A      3.802588  
     135A      3.809586   136A      3.820021   137A      3.878444  
     138A      3.899948   139A      3.956055   140A      4.024802  
     141A      4.042745   142A      4.106355   143A      4.429875  
     144A      4.448753   145A      4.628584   146A      4.637926  
     147A      4.672598   148A      4.695491   149A      4.783469  
     150A      4.836325   151A      4.892586   152A      4.907695  
     153A      4.980399   154A      5.048688   155A      5.056029  
     156A      5.075602   157A      5.188794   158A      5.208587  
     159A      5.350543   160A      5.358775   161A      5.437501  
     162A      5.533635   163A      5.559928   164A      5.574355  
     165A      5.830430   166A      5.832375   167A      5.879563  
     168A      5.932213   169A      5.952756   170A      5.985993  
     171A      5.993223   172A      6.033003   173A      6.176538  
     174A      6.199335   175A      6.298985   176A      6.613273  
     177A      6.618437   178A      6.760555   179A      6.770992  
     180A      6.952369   181A      6.968614   182A      7.231918  
     183A      7.269255   184A      7.947074   185A      7.949768  
     186A      8.066357   187A      8.104171   188A      8.234233  
     189A      8.336629   190A      8.355026   191A      8.375594  
     192A      8.501572   193A      8.508739   194A      8.950132  
     195A      8.962943   196A      9.004935   197A      9.052381  
     198A      9.439791   199A      9.495516   200A      9.628523  
     201A      9.656116   202A      9.776433   203A      9.808164  
     204A      9.869424   205A      9.926741   206A      9.938949  
     207A      9.945839   208A      9.954025   209A      9.971308  
     210A     10.091280   211A     10.100831   212A     10.106644  
     213A     10.288800   214A     10.299321   215A     10.430645  
     216A     10.582137   217A     10.598418   218A     11.472255  
     219A     11.576062   220A     11.974681   221A     12.000376  
     222A     12.339724   223A     12.449120   224A     13.722198  
     225A     13.831386   226A     14.149906   227A     14.150801  
     228A     16.023509   229A     65.460489   230A     65.603079  

    Final Occupation by Irrep:
              A 
    DOCC [     5 ]
    NA   [     5 ]
    NB   [     5 ]

  @DF-RHF Final Energy:   -99.45099444693392

   => Energetics <=

    Nuclear Repulsion Energy =              0.0000000000000000
    One-Electron Energy =                -143.9968079494472022
    Two-Electron Energy =                  44.5458135025132975
    Total Energy =                        -99.4509944469339047

Computation Completed


Properties will be evaluated at   0.000000,   0.000000,   0.000000 [a0]

Properties computed using the SCF density matrix


 Multipole Moments:

 ------------------------------------------------------------------------------------
     Multipole            Electronic (a.u.)      Nuclear  (a.u.)        Total (a.u.)
 ------------------------------------------------------------------------------------

 L = 1.  Multiply by 2.5417464519 to convert [e a0] to [Debye]
 Dipole X            :        -32.9019230           29.6119555           -3.2899675
 Dipole Y            :          0.0000000            0.0000000            0.0000000
 Dipole Z            :          0.0000000            0.0000000            0.0000000
 Magnitude           :                                                    3.2899675

 ------------------------------------------------------------------------------------

*** tstop() called on ddmfs1 at Mon Jan 22 03:14:08 2024
Module time:
	user time   =      18.29 seconds =       0.30 minutes
	system time =       0.81 seconds =       0.01 minutes
	total time  =          1 seconds =       0.02 minutes
Total time:
	user time   =      18.29 seconds =       0.30 minutes
	system time =       0.81 seconds =       0.01 minutes
	total time  =          1 seconds =       0.02 minutes

*** tstart() called on ddmfs1
*** at Mon Jan 22 03:14:08 2024


  //>>>>>>>>>>>>>>>>>>>>>>>>>>>>>>>>>>>//
  //               DFMP2               //
  //<<<<<<<<<<<<<<<<<<<<<<<<<<<<<<<<<<<//

   => Loading Basis Set <=

    Name: (AUG-CC-PVTZ AUX)
    Role: RIFIT
    Keyword: DF_BASIS_MP2
    atoms 1        entry F          line   322 file /ddmfs1b/softs/psi4conda/share/psi4/basis/aug-cc-pvtz-ri.gbs 
    atoms 2, 5     entry O          line   264 file /ddmfs1b/softs/psi4conda/share/psi4/basis/aug-cc-pvtz-ri.gbs 
    atoms 3-4, 6-7 entry H          line    30 file /ddmfs1b/softs/psi4conda/share/psi4/basis/aug-cc-pvtz-ri.gbs 

	 --------------------------------------------------------
	                          DF-MP2                         
	      2nd-Order Density-Fitted Moller-Plesset Theory     
	              RMP2 Wavefunction,  20 Threads             
	                                                         
	        Rob Parrish, Justin Turney, Andy Simmonett,      
	           Ed Hohenstein, and C. David Sherrill          
	 --------------------------------------------------------

   => Auxiliary Basis Set <=

  Basis Set: (AUG-CC-PVTZ AUX)
    Blend: AUG-CC-PVTZ-RI
    Number of shells: 140
    Number of basis functions: 502
    Number of Cartesian functions: 628
    Spherical Harmonics?: true
    Max angular momentum: 4

	 --------------------------------------------------------
	                 NBF =   230, NAUX =   502
	 --------------------------------------------------------
	   CLASS    FOCC     OCC    AOCC    AVIR     VIR    FVIR
	   PAIRS       0       5       5     225     225       0
	 --------------------------------------------------------

	-----------------------------------------------------------
	 ==================> DF-MP2 Energies <==================== 
	-----------------------------------------------------------
	 Reference Energy          =     -99.4509944469339189 [Eh]
	 Singles Energy            =      -0.0000000000000000 [Eh]
	 Same-Spin Energy          =      -0.0819002291086176 [Eh]
	 Opposite-Spin Energy      =      -0.2293659473403417 [Eh]
	 Correlation Energy        =      -0.3112661764489593 [Eh]
	 Total Energy              =     -99.7622606233828719 [Eh]
	-----------------------------------------------------------
	 ================> DF-SCS-MP2 Energies <================== 
	-----------------------------------------------------------
	 SCS Same-Spin Scale       =       0.3333333333333333 [-]
	 SCS Opposite-Spin Scale   =       1.2000000000000000 [-]
	 SCS Same-Spin Energy      =      -0.0273000763695392 [Eh]
	 SCS Opposite-Spin Energy  =      -0.2752391368084100 [Eh]
	 SCS Correlation Energy    =      -0.3025392131779492 [Eh]
	 SCS Total Energy          =     -99.7535336601118701 [Eh]
	-----------------------------------------------------------


*** tstop() called on ddmfs1 at Mon Jan 22 03:14:09 2024
Module time:
	user time   =       7.04 seconds =       0.12 minutes
	system time =       0.27 seconds =       0.00 minutes
	total time  =          1 seconds =       0.02 minutes
Total time:
	user time   =      25.34 seconds =       0.42 minutes
	system time =       1.08 seconds =       0.02 minutes
	total time  =          2 seconds =       0.03 minutes

    Psi4 stopped on: Monday, 22 January 2024 03:14AM
    Psi4 wall time for execution: 0:00:01.96


    -----------------------------------------------------------------------
          Psi4: An Open-Source Ab Initio Electronic Structure Package
                               Psi4 1.8.2 release

                         Git: Rev {} zzzzzzz 


    D. G. A. Smith, L. A. Burns, A. C. Simmonett, R. M. Parrish,
    M. C. Schieber, R. Galvelis, P. Kraus, H. Kruse, R. Di Remigio,
    A. Alenaizan, A. M. James, S. Lehtola, J. P. Misiewicz, M. Scheurer,
    R. A. Shaw, J. B. Schriber, Y. Xie, Z. L. Glick, D. A. Sirianni,
    J. S. O'Brien, J. M. Waldrop, A. Kumar, E. G. Hohenstein,
    B. P. Pritchard, B. R. Brooks, H. F. Schaefer III, A. Yu. Sokolov,
    K. Patkowski, A. E. DePrince III, U. Bozkaya, R. A. King,
    F. A. Evangelista, J. M. Turney, T. D. Crawford, C. D. Sherrill,
    J. Chem. Phys. 152(18) 184108 (2020). https://doi.org/10.1063/5.0006002

                            Additional Code Authors
    E. T. Seidl, C. L. Janssen, E. F. Valeev, M. L. Leininger,
    J. F. Gonthier, R. M. Richard, H. R. McAlexander, M. Saitow, X. Wang,
    P. Verma, M. H. Lechner, A. Jiang, S. Behnle, A. G. Heide,
    M. F. Herbst, and D. L. Poole

             Previous Authors, Complete List of Code Contributors,
                       and Citations for Specific Modules
    https://github.com/psi4/psi4/blob/master/codemeta.json
    https://github.com/psi4/psi4/graphs/contributors
    http://psicode.org/psi4manual/master/introduction.html#citing-psifour

    -----------------------------------------------------------------------


    Psi4 started on: Monday, 22 January 2024 03:14AM

    Process ID: 28960
    Host:       ddmfs1
    PSIDATADIR: /ddmfs1b/softs/psi4conda/share/psi4
    Memory:     55.9 GiB
    Threads:    20
    
  ==> Input QCSchema <==

--------------------------------------------------------------------------
{'driver': 'energy',
 'extras': {'psiapi': True, 'wfn_qcvars_only': True},
 'id': None,
 'keywords': {'SCF_TYPE': 'DF', 'function_kwargs': {}},
 'model': {'basis': 'aug-cc-pvtz', 'method': 'mp2'},
 'molecule': {'atom_labels': ['', '', '', '', '', '', ''],
              'atomic_numbers': [9, 8, 1, 1, 8, 1, 1],
              'extras': {},
              'fix_com': True,
              'fix_orientation': True,
              'fix_symmetry': 'c1',
              'fragment_charges': [0.0, 0.0, 0.0],
              'fragment_multiplicities': [1, 1, 1],
              'fragments': [[0], [1, 2, 3], [4, 5, 6]],
              'geometry': [3.2902172748436285, 0.0, 0.0, 0.0, -0.013891376748240494, 3.4205705829777084,
                           -1.1405612105552012, 1.1908317049446304, 2.696582489244557, 1.4031537734965702,
                           -0.05197880680684302, 2.1145619604125496, 0.0, 0.013891376748240494, -3.4205705829777084,
                           -1.1405612105552012, -1.1908317049446304, -2.696582489244557, 1.4031537734965702,
                           0.05197880680684302, -2.1145619604125496],
              'mass_numbers': [19, 16, 1, 1, 16, 1, 1],
              'masses': [18.99840316273, 15.99491461957, 1.00782503223, 1.00782503223, 15.99491461957, 1.00782503223,
                         1.00782503223],
              'molecular_charge': 0.0,
              'molecular_multiplicity': 1,
              'name': 'dimer',
              'provenance': {'creator': 'QCElemental',
                             'routine': 'qcelemental.molparse.from_string',
                             'version': '0.26.0'},
              'real': [False, True, True, True, False, False, False],
              'schema_name': 'qcschema_molecule',
              'schema_version': 2,
              'symbols': ['F', 'O', 'H', 'H', 'O', 'H', 'H'],
              'validated': True},
 'protocols': {'stdout': True},
 'provenance': {'creator': 'QCElemental', 'routine': 'qcelemental.models.results', 'version': '0.26.0'},
 'schema_name': 'qcschema_input',
 'schema_version': 1}
--------------------------------------------------------------------------

Scratch directory: /ddmfs1a/scratch/
   => Libint2 <=

    Primary   basis highest AM E, G, H:  5, 4, 3
    Auxiliary basis highest AM E, G, H:  6, 5, 4
    Onebody   basis highest AM E, G, H:  6, 5, 4
    Solid Harmonics ordering:            gaussian

*** tstart() called on ddmfs1
*** at Mon Jan 22 03:14:09 2024

   => Loading Basis Set <=

    Name: AUG-CC-PVTZ
    Role: ORBITAL
    Keyword: BASIS
    atoms 1        entry F          line   377 file /ddmfs1b/softs/psi4conda/share/psi4/basis/aug-cc-pvtz.gbs 
    atoms 2, 5     entry O          line   331 file /ddmfs1b/softs/psi4conda/share/psi4/basis/aug-cc-pvtz.gbs 
    atoms 3-4, 6-7 entry H          line    40 file /ddmfs1b/softs/psi4conda/share/psi4/basis/aug-cc-pvtz.gbs 


         ---------------------------------------------------------
                                   SCF
               by Justin Turney, Rob Parrish, Andy Simmonett
                          and Daniel G. A. Smith
                              RHF Reference
                       20 Threads,  57220 MiB Core
         ---------------------------------------------------------

  ==> Geometry <==

    Molecular point group: c1
    Full point group: C1

    Geometry (in Bohr), charge = 0, multiplicity = 1:

       Center              X                  Y                   Z               Mass       
    ------------   -----------------  -----------------  -----------------  -----------------
      Gh(F)           3.290217274844     0.000000000000     0.000000000000    18.998403162730
         O            0.000000000000    -0.013891376748     3.420570582978    15.994914619570
         H           -1.140561210555     1.190831704945     2.696582489245     1.007825032230
         H            1.403153773497    -0.051978806807     2.114561960413     1.007825032230
      Gh(O)           0.000000000000     0.013891376748    -3.420570582978    15.994914619570
      Gh(H)          -1.140561210555    -1.190831704945    -2.696582489245     1.007825032230
      Gh(H)           1.403153773497     0.051978806807    -2.114561960413     1.007825032230

  Running in c1 symmetry.

  Rotational constants: A =      0.27991  B =      0.15019  C =      0.09864 [cm^-1]
  Rotational constants: A =   8391.34598  B =   4502.50685  C =   2957.25716 [MHz]
  Nuclear repulsion =    8.938260071000268

  Charge       = 0
  Multiplicity = 1
  Electrons    = 10
  Nalpha       = 5
  Nbeta        = 5

  ==> Algorithm <==

  SCF Algorithm Type is DF.
  DIIS enabled.
  MOM disabled.
  Fractional occupation disabled.
  Guess Type is SAD.
  Energy threshold   = 1.00e-08
  Density threshold  = 1.00e-08
  Integral threshold = 1.00e-12

  ==> Primary Basis <==

  Basis Set: AUG-CC-PVTZ
    Blend: AUG-CC-PVTZ
    Number of shells: 78
    Number of basis functions: 230
    Number of Cartesian functions: 265
    Spherical Harmonics?: true
    Max angular momentum: 3

   => Loading Basis Set <=

    Name: (AUG-CC-PVTZ AUX)
    Role: JKFIT
    Keyword: DF_BASIS_SCF
    atoms 1        entry F          line   348 file /ddmfs1b/softs/psi4conda/share/psi4/basis/aug-cc-pvtz-jkfit.gbs 
    atoms 2, 5     entry O          line   286 file /ddmfs1b/softs/psi4conda/share/psi4/basis/aug-cc-pvtz-jkfit.gbs 
    atoms 3-4, 6-7 entry H          line    70 file /ddmfs1b/softs/psi4conda/share/psi4/basis/aug-cc-pvtz-jkfit.gbs 

  ==> Integral Setup <==

  DFHelper Memory: AOs need 0.213 GiB; user supplied 41.910 GiB. 
  Using in-core AOs.

  ==> MemDFJK: Density-Fitted J/K Matrices <==

    J tasked:                   Yes
    K tasked:                   Yes
    wK tasked:                   No
    OpenMP threads:              20
    Memory [MiB]:             42915
    Algorithm:                 Core
    Schwarz Cutoff:           1E-12
    Mask sparsity (%):       1.2892
    Fitting Condition:        1E-10

   => Auxiliary Basis Set <=

  Basis Set: (AUG-CC-PVTZ AUX)
    Blend: AUG-CC-PVTZ-JKFIT
    Number of shells: 146
    Number of basis functions: 496
    Number of Cartesian functions: 613
    Spherical Harmonics?: true
    Max angular momentum: 4

  Minimum eigenvalue in the overlap matrix is 2.4463770623E-04.
  Reciprocal condition number of the overlap matrix is 2.4069965683E-05.
    Using symmetric orthogonalization.

  ==> Pre-Iterations <==

  SCF Guess: Superposition of Atomic Densities via on-the-fly atomic UHF (no occupation information).

   -------------------------
    Irrep   Nso     Nmo    
   -------------------------
     A        230     230 
   -------------------------
    Total     230     230
   -------------------------

  ==> Iterations <==

                           Total Energy        Delta E     RMS |[F,P]|

   @DF-RHF iter SAD:   -75.44645631326175   -7.54465e+01   0.00000e+00 
   @DF-RHF iter   1:   -75.96928766910169   -5.22831e-01   2.03255e-03 DIIS/ADIIS
   @DF-RHF iter   2:   -76.02117769782797   -5.18900e-02   1.43367e-03 DIIS/ADIIS
   @DF-RHF iter   3:   -76.05518452830330   -3.40068e-02   9.79413e-05 DIIS
   @DF-RHF iter   4:   -76.05561828803405   -4.33760e-04   2.49652e-05 DIIS
   @DF-RHF iter   5:   -76.05565000860788   -3.17206e-05   5.93099e-06 DIIS
   @DF-RHF iter   6:   -76.05565278685870   -2.77825e-06   1.29409e-06 DIIS
   @DF-RHF iter   7:   -76.05565292837935   -1.41521e-07   2.19177e-07 DIIS
   @DF-RHF iter   8:   -76.05565293184148   -3.46213e-09   3.82010e-08 DIIS
   @DF-RHF iter   9:   -76.05565293192767   -8.61888e-11   9.95714e-09 DIIS
  Energy and wave function converged.


  ==> Post-Iterations <==

    Orbital Energies [Eh]
    ---------------------

    Doubly Occupied:                                                      

       1A    -20.573297     2A     -1.341783     3A     -0.697217  
       4A     -0.584537     5A     -0.508977  

    Virtual:                                                              

       6A      0.021262     7A      0.044879     8A      0.048354  
       9A      0.058110    10A      0.112675    11A      0.118164  
      12A      0.140001    13A      0.153924    14A      0.158625  
      15A      0.170089    16A      0.180235    17A      0.185924  
      18A      0.208450    19A      0.210721    20A      0.237087  
      21A      0.246682    22A      0.265003    23A      0.283537  
      24A      0.302572    25A      0.316550    26A      0.319388  
      27A      0.347712    28A      0.365512    29A      0.369339  
      30A      0.393765    31A      0.412063    32A      0.414632  
      33A      0.451383    34A      0.467139    35A      0.478572  
      36A      0.499562    37A      0.559378    38A      0.642463  
      39A      0.669155    40A      0.677126    41A      0.689544  
      42A      0.720933    43A      0.723349    44A      0.737997  
      45A      0.750824    46A      0.760914    47A      0.772356  
      48A      0.800562    49A      0.811715    50A      0.840927  
      51A      0.850286    52A      0.860972    53A      0.876749  
      54A      0.888390    55A      0.907596    56A      0.923814  
      57A      0.933252    58A      0.943675    59A      0.965098  
      60A      0.969317    61A      1.006673    62A      1.024075  
      63A      1.037717    64A      1.047555    65A      1.061348  
      66A      1.071918    67A      1.104499    68A      1.122179  
      69A      1.167394    70A      1.178661    71A      1.200494  
      72A      1.245836    73A      1.257620    74A      1.298410  
      75A      1.313562    76A      1.326191    77A      1.334111  
      78A      1.375191    79A      1.400606    80A      1.458339  
      81A      1.508960    82A      1.543421    83A      1.571967  
      84A      1.592417    85A      1.601171    86A      1.636721  
      87A      1.646571    88A      1.674214    89A      1.726466  
      90A      1.754701    91A      1.780843    92A      1.794133  
      93A      1.817697    94A      1.880169    95A      1.906370  
      96A      1.984899    97A      2.009456    98A      2.109539  
      99A      2.150252   100A      2.330875   101A      2.358437  
     102A      2.439681   103A      2.442501   104A      2.448051  
     105A      2.460395   106A      2.481497   107A      2.514022  
     108A      2.549310   109A      2.598356   110A      2.619820  
     111A      2.640714   112A      2.669442   113A      2.695691  
     114A      2.712968   115A      2.738846   116A      2.760766  
     117A      2.829513   118A      2.855088   119A      2.880108  
     120A      2.951456   121A      2.959389   122A      3.080665  
     123A      3.110212   124A      3.198213   125A      3.208941  
     126A      3.224815   127A      3.278787   128A      3.300878  
     129A      3.332902   130A      3.372868   131A      3.406752  
     132A      3.493991   133A      3.547474   134A      3.583368  
     135A      3.591371   136A      3.692891   137A      3.734441  
     138A      3.757218   139A      3.789695   140A      3.862424  
     141A      3.887699   142A      3.959005   143A      3.997207  
     144A      4.082475   145A      4.164873   146A      4.197132  
     147A      4.233764   148A      4.256116   149A      4.300215  
     150A      4.366037   151A      4.396051   152A      4.442608  
     153A      4.472983   154A      4.478536   155A      4.511131  
     156A      4.537772   157A      4.595180   158A      4.616239  
     159A      4.655387   160A      4.819693   161A      4.872732  
     162A      4.884490   163A      4.972289   164A      5.041031  
     165A      5.110494   166A      5.125663   167A      5.237467  
     168A      5.279762   169A      5.338754   170A      5.384332  
     171A      5.564368   172A      5.609151   173A      5.623823  
     174A      5.651299   175A      5.700681   176A      5.979171  
     177A      6.013545   178A      6.266107   179A      6.358990  
     180A      6.509973   181A      6.543263   182A      6.644127  
     183A      6.807347   184A      6.968792   185A      7.008725  
     186A      7.183173   187A      7.299558   188A      7.308746  
     189A      7.347089   190A      7.407309   191A      7.512934  
     192A      7.658227   193A      7.733773   194A      7.871153  
     195A      7.948253   196A      8.029039   197A      8.073253  
     198A      8.144589   199A      8.293698   200A      8.759923  
     201A      8.796252   202A      8.852173   203A      9.642304  
     204A      9.873326   205A     10.064266   206A     10.257604  
     207A     10.273324   208A     10.334325   209A     10.457058  
     210A     10.503090   211A     10.614965   212A     10.675639  
     213A     10.843382   214A     11.168599   215A     11.767439  
     216A     11.959531   217A     12.319807   218A     13.026492  
     219A     13.054671   220A     13.122791   221A     13.400927  
     222A     13.464600   223A     13.734422   224A     13.907620  
     225A     14.488154   226A     14.718020   227A     15.081077  
     228A     16.376778   229A     65.275054   230A     75.143586  

    Final Occupation by Irrep:
              A 
    DOCC [     5 ]
    NA   [     5 ]
    NB   [     5 ]

  @DF-RHF Final Energy:   -76.05565293192767

   => Energetics <=

    Nuclear Repulsion Energy =              8.9382600710002684
    One-Electron Energy =                -122.5761989060847270
    Two-Electron Energy =                  37.5822859031568015
    Total Energy =                        -76.0556529319276535

Computation Completed


Properties will be evaluated at   0.000000,   0.000000,   0.000000 [a0]

Properties computed using the SCF density matrix


 Multipole Moments:

 ------------------------------------------------------------------------------------
     Multipole            Electronic (a.u.)      Nuclear  (a.u.)        Total (a.u.)
 ------------------------------------------------------------------------------------

 L = 1.  Multiply by 2.5417464519 to convert [e a0] to [Debye]
 Dipole X            :         -0.1815333            0.2625926            0.0810593
 Dipole Y            :         -0.6228344            1.0277219            0.4048875
 Dipole Z            :        -32.8703308           32.1757091           -0.6946217
 Magnitude           :                                                    0.8080865

 ------------------------------------------------------------------------------------

*** tstop() called on ddmfs1 at Mon Jan 22 03:14:10 2024
Module time:
	user time   =      18.18 seconds =       0.30 minutes
	system time =       0.62 seconds =       0.01 minutes
	total time  =          1 seconds =       0.02 minutes
Total time:
	user time   =      44.72 seconds =       0.75 minutes
	system time =       1.72 seconds =       0.03 minutes
	total time  =          3 seconds =       0.05 minutes

*** tstart() called on ddmfs1
*** at Mon Jan 22 03:14:10 2024


  //>>>>>>>>>>>>>>>>>>>>>>>>>>>>>>>>>>>//
  //               DFMP2               //
  //<<<<<<<<<<<<<<<<<<<<<<<<<<<<<<<<<<<//

   => Loading Basis Set <=

    Name: (AUG-CC-PVTZ AUX)
    Role: RIFIT
    Keyword: DF_BASIS_MP2
    atoms 1        entry F          line   322 file /ddmfs1b/softs/psi4conda/share/psi4/basis/aug-cc-pvtz-ri.gbs 
    atoms 2, 5     entry O          line   264 file /ddmfs1b/softs/psi4conda/share/psi4/basis/aug-cc-pvtz-ri.gbs 
    atoms 3-4, 6-7 entry H          line    30 file /ddmfs1b/softs/psi4conda/share/psi4/basis/aug-cc-pvtz-ri.gbs 

	 --------------------------------------------------------
	                          DF-MP2                         
	      2nd-Order Density-Fitted Moller-Plesset Theory     
	              RMP2 Wavefunction,  20 Threads             
	                                                         
	        Rob Parrish, Justin Turney, Andy Simmonett,      
	           Ed Hohenstein, and C. David Sherrill          
	 --------------------------------------------------------

   => Auxiliary Basis Set <=

  Basis Set: (AUG-CC-PVTZ AUX)
    Blend: AUG-CC-PVTZ-RI
    Number of shells: 140
    Number of basis functions: 502
    Number of Cartesian functions: 628
    Spherical Harmonics?: true
    Max angular momentum: 4

	 --------------------------------------------------------
	                 NBF =   230, NAUX =   502
	 --------------------------------------------------------
	   CLASS    FOCC     OCC    AOCC    AVIR     VIR    FVIR
	   PAIRS       0       5       5     225     225       0
	 --------------------------------------------------------

	-----------------------------------------------------------
	 ==================> DF-MP2 Energies <==================== 
	-----------------------------------------------------------
	 Reference Energy          =     -76.0556529319276677 [Eh]
	 Singles Energy            =      -0.0000000000000000 [Eh]
	 Same-Spin Energy          =      -0.0689579142766303 [Eh]
	 Opposite-Spin Energy      =      -0.2176774315524999 [Eh]
	 Correlation Energy        =      -0.2866353458291301 [Eh]
	 Total Energy              =     -76.3422882777567935 [Eh]
	-----------------------------------------------------------
	 ================> DF-SCS-MP2 Energies <================== 
	-----------------------------------------------------------
	 SCS Same-Spin Scale       =       0.3333333333333333 [-]
	 SCS Opposite-Spin Scale   =       1.2000000000000000 [-]
	 SCS Same-Spin Energy      =      -0.0229859714255434 [Eh]
	 SCS Opposite-Spin Energy  =      -0.2612129178629998 [Eh]
	 SCS Correlation Energy    =      -0.2841988892885433 [Eh]
	 SCS Total Energy          =     -76.3398518212162145 [Eh]
	-----------------------------------------------------------


*** tstop() called on ddmfs1 at Mon Jan 22 03:14:11 2024
Module time:
	user time   =       6.90 seconds =       0.11 minutes
	system time =       0.28 seconds =       0.00 minutes
	total time  =          1 seconds =       0.02 minutes
Total time:
	user time   =      51.63 seconds =       0.86 minutes
	system time =       2.00 seconds =       0.03 minutes
	total time  =          4 seconds =       0.07 minutes

    Psi4 stopped on: Monday, 22 January 2024 03:14AM
    Psi4 wall time for execution: 0:00:01.78


    -----------------------------------------------------------------------
          Psi4: An Open-Source Ab Initio Electronic Structure Package
                               Psi4 1.8.2 release

                         Git: Rev {} zzzzzzz 


    D. G. A. Smith, L. A. Burns, A. C. Simmonett, R. M. Parrish,
    M. C. Schieber, R. Galvelis, P. Kraus, H. Kruse, R. Di Remigio,
    A. Alenaizan, A. M. James, S. Lehtola, J. P. Misiewicz, M. Scheurer,
    R. A. Shaw, J. B. Schriber, Y. Xie, Z. L. Glick, D. A. Sirianni,
    J. S. O'Brien, J. M. Waldrop, A. Kumar, E. G. Hohenstein,
    B. P. Pritchard, B. R. Brooks, H. F. Schaefer III, A. Yu. Sokolov,
    K. Patkowski, A. E. DePrince III, U. Bozkaya, R. A. King,
    F. A. Evangelista, J. M. Turney, T. D. Crawford, C. D. Sherrill,
    J. Chem. Phys. 152(18) 184108 (2020). https://doi.org/10.1063/5.0006002

                            Additional Code Authors
    E. T. Seidl, C. L. Janssen, E. F. Valeev, M. L. Leininger,
    J. F. Gonthier, R. M. Richard, H. R. McAlexander, M. Saitow, X. Wang,
    P. Verma, M. H. Lechner, A. Jiang, S. Behnle, A. G. Heide,
    M. F. Herbst, and D. L. Poole

             Previous Authors, Complete List of Code Contributors,
                       and Citations for Specific Modules
    https://github.com/psi4/psi4/blob/master/codemeta.json
    https://github.com/psi4/psi4/graphs/contributors
    http://psicode.org/psi4manual/master/introduction.html#citing-psifour

    -----------------------------------------------------------------------


    Psi4 started on: Monday, 22 January 2024 03:14AM

    Process ID: 28960
    Host:       ddmfs1
    PSIDATADIR: /ddmfs1b/softs/psi4conda/share/psi4
    Memory:     55.9 GiB
    Threads:    20
    
  ==> Input QCSchema <==

--------------------------------------------------------------------------
{'driver': 'energy',
 'extras': {'psiapi': True, 'wfn_qcvars_only': True},
 'id': None,
 'keywords': {'SCF_TYPE': 'DF', 'function_kwargs': {}},
 'model': {'basis': 'aug-cc-pvtz', 'method': 'mp2'},
 'molecule': {'atom_labels': ['', '', '', '', '', '', ''],
              'atomic_numbers': [9, 8, 1, 1, 8, 1, 1],
              'extras': {},
              'fix_com': True,
              'fix_orientation': True,
              'fix_symmetry': 'c1',
              'fragment_charges': [0.0, 0.0, 0.0],
              'fragment_multiplicities': [1, 1, 1],
              'fragments': [[0], [1, 2, 3], [4, 5, 6]],
              'geometry': [3.2902172748436285, 0.0, 0.0, 0.0, -0.013891376748240494, 3.4205705829777084,
                           -1.1405612105552012, 1.1908317049446304, 2.696582489244557, 1.4031537734965702,
                           -0.05197880680684302, 2.1145619604125496, 0.0, 0.013891376748240494, -3.4205705829777084,
                           -1.1405612105552012, -1.1908317049446304, -2.696582489244557, 1.4031537734965702,
                           0.05197880680684302, -2.1145619604125496],
              'mass_numbers': [19, 16, 1, 1, 16, 1, 1],
              'masses': [18.99840316273, 15.99491461957, 1.00782503223, 1.00782503223, 15.99491461957, 1.00782503223,
                         1.00782503223],
              'molecular_charge': 0.0,
              'molecular_multiplicity': 1,
              'name': 'dimer',
              'provenance': {'creator': 'QCElemental',
                             'routine': 'qcelemental.molparse.from_string',
                             'version': '0.26.0'},
              'real': [False, True, True, True, True, True, True],
              'schema_name': 'qcschema_molecule',
              'schema_version': 2,
              'symbols': ['F', 'O', 'H', 'H', 'O', 'H', 'H'],
              'validated': True},
 'protocols': {'stdout': True},
 'provenance': {'creator': 'QCElemental', 'routine': 'qcelemental.models.results', 'version': '0.26.0'},
 'schema_name': 'qcschema_input',
 'schema_version': 1}
--------------------------------------------------------------------------

Scratch directory: /ddmfs1a/scratch/
   => Libint2 <=

    Primary   basis highest AM E, G, H:  5, 4, 3
    Auxiliary basis highest AM E, G, H:  6, 5, 4
    Onebody   basis highest AM E, G, H:  6, 5, 4
    Solid Harmonics ordering:            gaussian

*** tstart() called on ddmfs1
*** at Mon Jan 22 03:14:11 2024

   => Loading Basis Set <=

    Name: AUG-CC-PVTZ
    Role: ORBITAL
    Keyword: BASIS
    atoms 1        entry F          line   377 file /ddmfs1b/softs/psi4conda/share/psi4/basis/aug-cc-pvtz.gbs 
    atoms 2, 5     entry O          line   331 file /ddmfs1b/softs/psi4conda/share/psi4/basis/aug-cc-pvtz.gbs 
    atoms 3-4, 6-7 entry H          line    40 file /ddmfs1b/softs/psi4conda/share/psi4/basis/aug-cc-pvtz.gbs 


         ---------------------------------------------------------
                                   SCF
               by Justin Turney, Rob Parrish, Andy Simmonett
                          and Daniel G. A. Smith
                              RHF Reference
                       20 Threads,  57220 MiB Core
         ---------------------------------------------------------

  ==> Geometry <==

    Molecular point group: c1
    Full point group: C2

    Geometry (in Bohr), charge = 0, multiplicity = 1:

       Center              X                  Y                   Z               Mass       
    ------------   -----------------  -----------------  -----------------  -----------------
      Gh(F)           3.290217274844     0.000000000000     0.000000000000    18.998403162730
         O            0.000000000000    -0.013891376748     3.420570582978    15.994914619570
         H           -1.140561210555     1.190831704945     2.696582489245     1.007825032230
         H            1.403153773497    -0.051978806807     2.114561960413     1.007825032230
         O            0.000000000000     0.013891376748    -3.420570582978    15.994914619570
         H           -1.140561210555    -1.190831704945    -2.696582489245     1.007825032230
         H            1.403153773497     0.051978806807    -2.114561960413     1.007825032230

  Running in c1 symmetry.

  Rotational constants: A =      0.27991  B =      0.15019  C =      0.09864 [cm^-1]
  Rotational constants: A =   8391.34598  B =   4502.50685  C =   2957.25716 [MHz]
  Nuclear repulsion =   33.325614019337735

  Charge       = 0
  Multiplicity = 1
  Electrons    = 20
  Nalpha       = 10
  Nbeta        = 10

  ==> Algorithm <==

  SCF Algorithm Type is DF.
  DIIS enabled.
  MOM disabled.
  Fractional occupation disabled.
  Guess Type is SAD.
  Energy threshold   = 1.00e-08
  Density threshold  = 1.00e-08
  Integral threshold = 1.00e-12

  ==> Primary Basis <==

  Basis Set: AUG-CC-PVTZ
    Blend: AUG-CC-PVTZ
    Number of shells: 78
    Number of basis functions: 230
    Number of Cartesian functions: 265
    Spherical Harmonics?: true
    Max angular momentum: 3

   => Loading Basis Set <=

    Name: (AUG-CC-PVTZ AUX)
    Role: JKFIT
    Keyword: DF_BASIS_SCF
    atoms 1        entry F          line   348 file /ddmfs1b/softs/psi4conda/share/psi4/basis/aug-cc-pvtz-jkfit.gbs 
    atoms 2, 5     entry O          line   286 file /ddmfs1b/softs/psi4conda/share/psi4/basis/aug-cc-pvtz-jkfit.gbs 
    atoms 3-4, 6-7 entry H          line    70 file /ddmfs1b/softs/psi4conda/share/psi4/basis/aug-cc-pvtz-jkfit.gbs 

  ==> Integral Setup <==

  DFHelper Memory: AOs need 0.213 GiB; user supplied 41.910 GiB. 
  Using in-core AOs.

  ==> MemDFJK: Density-Fitted J/K Matrices <==

    J tasked:                   Yes
    K tasked:                   Yes
    wK tasked:                   No
    OpenMP threads:              20
    Memory [MiB]:             42915
    Algorithm:                 Core
    Schwarz Cutoff:           1E-12
    Mask sparsity (%):       1.2892
    Fitting Condition:        1E-10

   => Auxiliary Basis Set <=

  Basis Set: (AUG-CC-PVTZ AUX)
    Blend: AUG-CC-PVTZ-JKFIT
    Number of shells: 146
    Number of basis functions: 496
    Number of Cartesian functions: 613
    Spherical Harmonics?: true
    Max angular momentum: 4

  Minimum eigenvalue in the overlap matrix is 2.4463770623E-04.
  Reciprocal condition number of the overlap matrix is 2.4069965683E-05.
    Using symmetric orthogonalization.

  ==> Pre-Iterations <==

  SCF Guess: Superposition of Atomic Densities via on-the-fly atomic UHF (no occupation information).

   -------------------------
    Irrep   Nso     Nmo    
   -------------------------
     A        230     230 
   -------------------------
    Total     230     230
   -------------------------

  ==> Iterations <==

                           Total Energy        Delta E     RMS |[F,P]|

   @DF-RHF iter SAD:  -150.93264295706183   -1.50933e+02   0.00000e+00 
   @DF-RHF iter   1:  -151.93731787594459   -1.00467e+00   2.85655e-03 DIIS/ADIIS
   @DF-RHF iter   2:  -152.04053548145794   -1.03218e-01   2.01072e-03 DIIS/ADIIS
   @DF-RHF iter   3:  -152.10776344455007   -6.72280e-02   1.40890e-04 DIIS/ADIIS
   @DF-RHF iter   4:  -152.10866556315415   -9.02119e-04   3.49371e-05 DIIS
   @DF-RHF iter   5:  -152.10872722494571   -6.16618e-05   8.39705e-06 DIIS
   @DF-RHF iter   6:  -152.10873264017070   -5.41522e-06   1.80529e-06 DIIS
   @DF-RHF iter   7:  -152.10873290998219   -2.69811e-07   3.25082e-07 DIIS
   @DF-RHF iter   8:  -152.10873291748084   -7.49864e-09   6.76803e-08 DIIS
   @DF-RHF iter   9:  -152.10873291777972   -2.98883e-10   2.00160e-08 DIIS
   @DF-RHF iter  10:  -152.10873291781223   -3.25144e-11   5.75450e-09 DIIS
  Energy and wave function converged.


  ==> Post-Iterations <==

    Orbital Energies [Eh]
    ---------------------

    Doubly Occupied:                                                      

       1A    -20.586575     2A    -20.586573     3A     -1.356291  
       4A     -1.353738     5A     -0.713310     6A     -0.707750  
       7A     -0.604561     8A     -0.590753     9A     -0.523659  
      10A     -0.520117  

    Virtual:                                                              

      11A      0.021888    12A      0.042093    13A      0.048884  
      14A      0.060144    15A      0.113746    16A      0.128471  
      17A      0.149088    18A      0.164558    19A      0.169213  
      20A      0.169876    21A      0.178727    22A      0.181346  
      23A      0.209587    24A      0.219220    25A      0.221941  
      26A      0.239281    27A      0.259676    28A      0.273561  
      29A      0.290255    30A      0.305061    31A      0.319993  
      32A      0.350864    33A      0.370284    34A      0.381524  
      35A      0.382490    36A      0.411020    37A      0.428979  
      38A      0.455773    39A      0.463539    40A      0.486579  
      41A      0.543819    42A      0.549462    43A      0.603752  
      44A      0.643318    45A      0.661583    46A      0.678043  
      47A      0.682189    48A      0.715214    49A      0.722308  
      50A      0.726677    51A      0.747715    52A      0.760344  
      53A      0.782170    54A      0.818545    55A      0.829322  
      56A      0.835548    57A      0.863133    58A      0.878343  
      59A      0.900683    60A      0.914946    61A      0.916907  
      62A      0.917095    63A      0.946165    64A      0.978073  
      65A      0.990965    66A      0.997497    67A      1.023245  
      68A      1.035655    69A      1.045285    70A      1.056294  
      71A      1.066149    72A      1.101715    73A      1.138088  
      74A      1.157335    75A      1.179966    76A      1.212698  
      77A      1.227530    78A      1.234552    79A      1.273972  
      80A      1.281740    81A      1.296594    82A      1.301252  
      83A      1.323869    84A      1.372456    85A      1.419876  
      86A      1.469977    87A      1.515711    88A      1.522324  
      89A      1.537484    90A      1.574006    91A      1.576683  
      92A      1.612116    93A      1.617010    94A      1.666704  
      95A      1.678102    96A      1.783449    97A      1.800851  
      98A      1.867241    99A      1.904152   100A      1.958586  
     101A      1.979472   102A      2.055964   103A      2.129587  
     104A      2.269835   105A      2.319927   106A      2.324406  
     107A      2.384660   108A      2.401107   109A      2.420170  
     110A      2.427275   111A      2.465977   112A      2.469431  
     113A      2.493715   114A      2.515044   115A      2.515724  
     116A      2.583177   117A      2.602319   118A      2.619412  
     119A      2.713301   120A      2.719351   121A      2.723607  
     122A      2.735462   123A      2.808047   124A      2.830215  
     125A      2.835002   126A      2.857407   127A      2.909091  
     128A      2.952949   129A      2.954057   130A      3.089539  
     131A      3.133985   132A      3.231652   133A      3.262672  
     134A      3.302999   135A      3.425597   136A      3.447972  
     137A      3.480714   138A      3.658541   139A      3.693157  
     140A      3.724790   141A      3.770960   142A      3.811199  
     143A      3.838586   144A      3.844754   145A      3.914686  
     146A      4.048119   147A      4.064827   148A      4.068347  
     149A      4.164417   150A      4.165007   151A      4.187004  
     152A      4.223592   153A      4.225727   154A      4.235808  
     155A      4.247090   156A      4.334211   157A      4.346281  
     158A      4.374373   159A      4.389038   160A      4.412551  
     161A      4.476189   162A      4.488441   163A      4.498678  
     164A      4.527040   165A      4.541892   166A      4.622546  
     167A      4.629264   168A      4.795348   169A      4.867301  
     170A      5.061684   171A      5.109653   172A      5.190104  
     173A      5.217604   174A      5.250871   175A      5.297391  
     176A      5.332241   177A      5.359410   178A      5.524963  
     179A      5.588519   180A      5.594497   181A      5.626306  
     182A      5.963676   183A      6.011733   184A      6.239608  
     185A      6.262315   186A      6.526654   187A      6.545982  
     188A      6.782813   189A      6.795652   190A      6.942622  
     191A      6.965445   192A      7.140458   193A      7.215693  
     194A      7.271052   195A      7.291430   196A      7.294022  
     197A      7.306976   198A      7.325361   199A      7.336736  
     200A      7.393534   201A      7.403034   202A      7.492288  
     203A      7.508405   204A      7.639621   205A      7.652713  
     206A      7.924739   207A      7.952718   208A      8.005678  
     209A      8.031074   210A      8.806300   211A      8.857639  
     212A     10.235628   213A     10.240694   214A     10.420229  
     215A     10.438092   216A     10.589029   217A     10.620498  
     218A     10.806770   219A     12.175139   220A     12.983339  
     221A     13.010919   222A     13.079829   223A     13.393798  
     224A     13.444561   225A     14.442582   226A     14.594463  
     227A     14.797349   228A     16.339234   229A     16.377899  
     230A     75.059025  

    Final Occupation by Irrep:
              A 
    DOCC [    10 ]
    NA   [    10 ]
    NB   [    10 ]

  @DF-RHF Final Energy:  -152.10873291781223

   => Energetics <=

    Nuclear Repulsion Energy =             33.3256140193377348
    One-Electron Energy =                -275.7820396793430291
    Two-Electron Energy =                  90.3476927421930611
    Total Energy =                       -152.1087329178122332

Computation Completed


Properties will be evaluated at   0.000000,   0.000000,   0.000000 [a0]

Properties computed using the SCF density matrix


 Multipole Moments:

 ------------------------------------------------------------------------------------
     Multipole            Electronic (a.u.)      Nuclear  (a.u.)        Total (a.u.)
 ------------------------------------------------------------------------------------

 L = 1.  Multiply by 2.5417464519 to convert [e a0] to [Debye]
 Dipole X            :         -0.4046493            0.5251851            0.1205358
 Dipole Y            :          0.0000000            0.0000000            0.0000000
 Dipole Z            :         -0.0000000            0.0000000           -0.0000000
 Magnitude           :                                                    0.1205358

 ------------------------------------------------------------------------------------

*** tstop() called on ddmfs1 at Mon Jan 22 03:14:12 2024
Module time:
	user time   =      18.83 seconds =       0.31 minutes
	system time =       0.70 seconds =       0.01 minutes
	total time  =          1 seconds =       0.02 minutes
Total time:
	user time   =      71.65 seconds =       1.19 minutes
	system time =       2.74 seconds =       0.05 minutes
	total time  =          5 seconds =       0.08 minutes

*** tstart() called on ddmfs1
*** at Mon Jan 22 03:14:12 2024


  //>>>>>>>>>>>>>>>>>>>>>>>>>>>>>>>>>>>//
  //               DFMP2               //
  //<<<<<<<<<<<<<<<<<<<<<<<<<<<<<<<<<<<//

   => Loading Basis Set <=

    Name: (AUG-CC-PVTZ AUX)
    Role: RIFIT
    Keyword: DF_BASIS_MP2
    atoms 1        entry F          line   322 file /ddmfs1b/softs/psi4conda/share/psi4/basis/aug-cc-pvtz-ri.gbs 
    atoms 2, 5     entry O          line   264 file /ddmfs1b/softs/psi4conda/share/psi4/basis/aug-cc-pvtz-ri.gbs 
    atoms 3-4, 6-7 entry H          line    30 file /ddmfs1b/softs/psi4conda/share/psi4/basis/aug-cc-pvtz-ri.gbs 

	 --------------------------------------------------------
	                          DF-MP2                         
	      2nd-Order Density-Fitted Moller-Plesset Theory     
	              RMP2 Wavefunction,  20 Threads             
	                                                         
	        Rob Parrish, Justin Turney, Andy Simmonett,      
	           Ed Hohenstein, and C. David Sherrill          
	 --------------------------------------------------------

   => Auxiliary Basis Set <=

  Basis Set: (AUG-CC-PVTZ AUX)
    Blend: AUG-CC-PVTZ-RI
    Number of shells: 140
    Number of basis functions: 502
    Number of Cartesian functions: 628
    Spherical Harmonics?: true
    Max angular momentum: 4

	 --------------------------------------------------------
	                 NBF =   230, NAUX =   502
	 --------------------------------------------------------
	   CLASS    FOCC     OCC    AOCC    AVIR     VIR    FVIR
	   PAIRS       0      10      10     220     220       0
	 --------------------------------------------------------

	-----------------------------------------------------------
	 ==================> DF-MP2 Energies <==================== 
	-----------------------------------------------------------
	 Reference Energy          =    -152.1087329178122332 [Eh]
	 Singles Energy            =      -0.0000000000000000 [Eh]
	 Same-Spin Energy          =      -0.1384248358998531 [Eh]
	 Opposite-Spin Energy      =      -0.4360370721819538 [Eh]
	 Correlation Energy        =      -0.5744619080818070 [Eh]
	 Total Energy              =    -152.6831948258940486 [Eh]
	-----------------------------------------------------------
	 ================> DF-SCS-MP2 Energies <================== 
	-----------------------------------------------------------
	 SCS Same-Spin Scale       =       0.3333333333333333 [-]
	 SCS Opposite-Spin Scale   =       1.2000000000000000 [-]
	 SCS Same-Spin Energy      =      -0.0461416119666177 [Eh]
	 SCS Opposite-Spin Energy  =      -0.5232444866183446 [Eh]
	 SCS Correlation Energy    =      -0.5693860985849623 [Eh]
	 SCS Total Energy          =    -152.6781190163972042 [Eh]
	-----------------------------------------------------------


*** tstop() called on ddmfs1 at Mon Jan 22 03:14:13 2024
Module time:
	user time   =       7.23 seconds =       0.12 minutes
	system time =       0.32 seconds =       0.01 minutes
	total time  =          1 seconds =       0.02 minutes
Total time:
	user time   =      78.90 seconds =       1.31 minutes
	system time =       3.06 seconds =       0.05 minutes
	total time  =          6 seconds =       0.10 minutes

    Psi4 stopped on: Monday, 22 January 2024 03:14AM
    Psi4 wall time for execution: 0:00:01.82


    -----------------------------------------------------------------------
          Psi4: An Open-Source Ab Initio Electronic Structure Package
                               Psi4 1.8.2 release

                         Git: Rev {} zzzzzzz 


    D. G. A. Smith, L. A. Burns, A. C. Simmonett, R. M. Parrish,
    M. C. Schieber, R. Galvelis, P. Kraus, H. Kruse, R. Di Remigio,
    A. Alenaizan, A. M. James, S. Lehtola, J. P. Misiewicz, M. Scheurer,
    R. A. Shaw, J. B. Schriber, Y. Xie, Z. L. Glick, D. A. Sirianni,
    J. S. O'Brien, J. M. Waldrop, A. Kumar, E. G. Hohenstein,
    B. P. Pritchard, B. R. Brooks, H. F. Schaefer III, A. Yu. Sokolov,
    K. Patkowski, A. E. DePrince III, U. Bozkaya, R. A. King,
    F. A. Evangelista, J. M. Turney, T. D. Crawford, C. D. Sherrill,
    J. Chem. Phys. 152(18) 184108 (2020). https://doi.org/10.1063/5.0006002

                            Additional Code Authors
    E. T. Seidl, C. L. Janssen, E. F. Valeev, M. L. Leininger,
    J. F. Gonthier, R. M. Richard, H. R. McAlexander, M. Saitow, X. Wang,
    P. Verma, M. H. Lechner, A. Jiang, S. Behnle, A. G. Heide,
    M. F. Herbst, and D. L. Poole

             Previous Authors, Complete List of Code Contributors,
                       and Citations for Specific Modules
    https://github.com/psi4/psi4/blob/master/codemeta.json
    https://github.com/psi4/psi4/graphs/contributors
    http://psicode.org/psi4manual/master/introduction.html#citing-psifour

    -----------------------------------------------------------------------


    Psi4 started on: Monday, 22 January 2024 03:14AM

    Process ID: 28960
    Host:       ddmfs1
    PSIDATADIR: /ddmfs1b/softs/psi4conda/share/psi4
    Memory:     55.9 GiB
    Threads:    20
    
  ==> Input QCSchema <==

--------------------------------------------------------------------------
{'driver': 'energy',
 'extras': {'psiapi': True, 'wfn_qcvars_only': True},
 'id': None,
 'keywords': {'SCF_TYPE': 'DF', 'function_kwargs': {}},
 'model': {'basis': 'aug-cc-pvtz', 'method': 'mp2'},
 'molecule': {'atom_labels': ['', '', '', '', '', '', ''],
              'atomic_numbers': [9, 8, 1, 1, 8, 1, 1],
              'extras': {},
              'fix_com': True,
              'fix_orientation': True,
              'fix_symmetry': 'c1',
              'fragment_charges': [-1.0, 0.0, 0.0],
              'fragment_multiplicities': [1, 1, 1],
              'fragments': [[0], [1, 2, 3], [4, 5, 6]],
              'geometry': [3.2902172748436285, 0.0, 0.0, 0.0, -0.013891376748240494, 3.4205705829777084,
                           -1.1405612105552012, 1.1908317049446304, 2.696582489244557, 1.4031537734965702,
                           -0.05197880680684302, 2.1145619604125496, 0.0, 0.013891376748240494, -3.4205705829777084,
                           -1.1405612105552012, -1.1908317049446304, -2.696582489244557, 1.4031537734965702,
                           0.05197880680684302, -2.1145619604125496],
              'mass_numbers': [19, 16, 1, 1, 16, 1, 1],
              'masses': [18.99840316273, 15.99491461957, 1.00782503223, 1.00782503223, 15.99491461957, 1.00782503223,
                         1.00782503223],
              'molecular_charge': -1.0,
              'molecular_multiplicity': 1,
              'name': 'dimer',
              'provenance': {'creator': 'QCElemental',
                             'routine': 'qcelemental.molparse.from_string',
                             'version': '0.26.0'},
              'real': [True, False, False, False, True, True, True],
              'schema_name': 'qcschema_molecule',
              'schema_version': 2,
              'symbols': ['F', 'O', 'H', 'H', 'O', 'H', 'H'],
              'validated': True},
 'protocols': {'stdout': True},
 'provenance': {'creator': 'QCElemental', 'routine': 'qcelemental.models.results', 'version': '0.26.0'},
 'schema_name': 'qcschema_input',
 'schema_version': 1}
--------------------------------------------------------------------------

Scratch directory: /ddmfs1a/scratch/
   => Libint2 <=

    Primary   basis highest AM E, G, H:  5, 4, 3
    Auxiliary basis highest AM E, G, H:  6, 5, 4
    Onebody   basis highest AM E, G, H:  6, 5, 4
    Solid Harmonics ordering:            gaussian

*** tstart() called on ddmfs1
*** at Mon Jan 22 03:14:13 2024

   => Loading Basis Set <=

    Name: AUG-CC-PVTZ
    Role: ORBITAL
    Keyword: BASIS
    atoms 1        entry F          line   377 file /ddmfs1b/softs/psi4conda/share/psi4/basis/aug-cc-pvtz.gbs 
    atoms 2, 5     entry O          line   331 file /ddmfs1b/softs/psi4conda/share/psi4/basis/aug-cc-pvtz.gbs 
    atoms 3-4, 6-7 entry H          line    40 file /ddmfs1b/softs/psi4conda/share/psi4/basis/aug-cc-pvtz.gbs 


         ---------------------------------------------------------
                                   SCF
               by Justin Turney, Rob Parrish, Andy Simmonett
                          and Daniel G. A. Smith
                              RHF Reference
                       20 Threads,  57220 MiB Core
         ---------------------------------------------------------

  ==> Geometry <==

    Molecular point group: c1
    Full point group: C1

    Geometry (in Bohr), charge = -1, multiplicity = 1:

       Center              X                  Y                   Z               Mass       
    ------------   -----------------  -----------------  -----------------  -----------------
         F            3.290217274844     0.000000000000     0.000000000000    18.998403162730
      Gh(O)           0.000000000000    -0.013891376748     3.420570582978    15.994914619570
      Gh(H)          -1.140561210555     1.190831704945     2.696582489245     1.007825032230
      Gh(H)           1.403153773497    -0.051978806807     2.114561960413     1.007825032230
         O            0.000000000000     0.013891376748    -3.420570582978    15.994914619570
         H           -1.140561210555    -1.190831704945    -2.696582489245     1.007825032230
         H            1.403153773497     0.051978806807    -2.114561960413     1.007825032230

  Running in c1 symmetry.

  Rotational constants: A =      0.27991  B =      0.15019  C =      0.09864 [cm^-1]
  Rotational constants: A =   8391.34598  B =   4502.50685  C =   2957.25716 [MHz]
  Nuclear repulsion =   28.974608747814685

  Charge       = -1
  Multiplicity = 1
  Electrons    = 20
  Nalpha       = 10
  Nbeta        = 10

  ==> Algorithm <==

  SCF Algorithm Type is DF.
  DIIS enabled.
  MOM disabled.
  Fractional occupation disabled.
  Guess Type is SAD.
  Energy threshold   = 1.00e-08
  Density threshold  = 1.00e-08
  Integral threshold = 1.00e-12

  ==> Primary Basis <==

  Basis Set: AUG-CC-PVTZ
    Blend: AUG-CC-PVTZ
    Number of shells: 78
    Number of basis functions: 230
    Number of Cartesian functions: 265
    Spherical Harmonics?: true
    Max angular momentum: 3

   => Loading Basis Set <=

    Name: (AUG-CC-PVTZ AUX)
    Role: JKFIT
    Keyword: DF_BASIS_SCF
    atoms 1        entry F          line   348 file /ddmfs1b/softs/psi4conda/share/psi4/basis/aug-cc-pvtz-jkfit.gbs 
    atoms 2, 5     entry O          line   286 file /ddmfs1b/softs/psi4conda/share/psi4/basis/aug-cc-pvtz-jkfit.gbs 
    atoms 3-4, 6-7 entry H          line    70 file /ddmfs1b/softs/psi4conda/share/psi4/basis/aug-cc-pvtz-jkfit.gbs 

  ==> Integral Setup <==

  DFHelper Memory: AOs need 0.213 GiB; user supplied 41.910 GiB. 
  Using in-core AOs.

  ==> MemDFJK: Density-Fitted J/K Matrices <==

    J tasked:                   Yes
    K tasked:                   Yes
    wK tasked:                   No
    OpenMP threads:              20
    Memory [MiB]:             42915
    Algorithm:                 Core
    Schwarz Cutoff:           1E-12
    Mask sparsity (%):       1.2892
    Fitting Condition:        1E-10

   => Auxiliary Basis Set <=

  Basis Set: (AUG-CC-PVTZ AUX)
    Blend: AUG-CC-PVTZ-JKFIT
    Number of shells: 146
    Number of basis functions: 496
    Number of Cartesian functions: 613
    Spherical Harmonics?: true
    Max angular momentum: 4

  Minimum eigenvalue in the overlap matrix is 2.4463770623E-04.
  Reciprocal condition number of the overlap matrix is 2.4069965683E-05.
    Using symmetric orthogonalization.

  ==> Pre-Iterations <==

  SCF Guess: Superposition of Atomic Densities via on-the-fly atomic UHF (no occupation information).

   -------------------------
    Irrep   Nso     Nmo    
   -------------------------
     A        230     230 
   -------------------------
    Total     230     230
   -------------------------

  ==> Iterations <==

                           Total Energy        Delta E     RMS |[F,P]|

   @DF-RHF iter SAD:  -174.41855319371388   -1.74419e+02   0.00000e+00 
   @DF-RHF iter   1:  -175.38365743732223   -9.65104e-01   2.90931e-03 DIIS/ADIIS
   @DF-RHF iter   2:  -175.47641748595845   -9.27600e-02   2.23149e-03 DIIS/ADIIS
   @DF-RHF iter   3:  -175.54876175516719   -7.23443e-02   1.23242e-04 DIIS/ADIIS
   @DF-RHF iter   4:  -175.54921376201918   -4.52007e-04   6.66608e-05 DIIS
   @DF-RHF iter   5:  -175.54930747775035   -9.37157e-05   1.59953e-05 DIIS
   @DF-RHF iter   6:  -175.54931664377489   -9.16602e-06   3.17501e-06 DIIS
   @DF-RHF iter   7:  -175.54931727199948   -6.28225e-07   8.09632e-07 DIIS
   @DF-RHF iter   8:  -175.54931732325321   -5.12537e-08   1.80309e-07 DIIS
   @DF-RHF iter   9:  -175.54931732584436   -2.59115e-09   3.84903e-08 DIIS
   @DF-RHF iter  10:  -175.54931732595173   -1.07377e-10   7.79567e-09 DIIS
  Energy and wave function converged.


  ==> Post-Iterations <==

    Orbital Energies [Eh]
    ---------------------

    Doubly Occupied:                                                      

       1A    -25.890239     2A    -20.326695     3A     -1.151615  
       4A     -1.101570     5A     -0.470624     6A     -0.367152  
       7A     -0.277594     8A     -0.244974     9A     -0.242139  
      10A     -0.235015  

    Virtual:                                                              

      11A      0.139894    12A      0.155054    13A      0.174456  
      14A      0.193398    15A      0.257192    16A      0.275550  
      17A      0.276895    18A      0.300805    19A      0.314286  
      20A      0.323534    21A      0.342712    22A      0.362203  
      23A      0.383179    24A      0.396362    25A      0.429928  
      26A      0.435849    27A      0.447482    28A      0.449753  
      29A      0.482360    30A      0.492773    31A      0.515764  
      32A      0.528530    33A      0.552421    34A      0.582442  
      35A      0.604758    36A      0.615151    37A      0.628623  
      38A      0.648956    39A      0.672985    40A      0.715166  
      41A      0.720666    42A      0.783991    43A      0.844575  
      44A      0.880391    45A      0.891579    46A      0.893430  
      47A      0.906050    48A      0.930561    49A      0.941742  
      50A      0.960488    51A      0.972279    52A      1.002349  
      53A      1.018951    54A      1.037943    55A      1.040907  
      56A      1.075040    57A      1.081160    58A      1.107087  
      59A      1.115921    60A      1.129506    61A      1.150145  
      62A      1.158748    63A      1.176352    64A      1.210116  
      65A      1.219778    66A      1.231918    67A      1.237166  
      68A      1.279082    69A      1.296850    70A      1.331261  
      71A      1.347438    72A      1.381569    73A      1.388817  
      74A      1.425235    75A      1.451037    76A      1.464824  
      77A      1.482769    78A      1.514315    79A      1.530120  
      80A      1.576460    81A      1.583346    82A      1.599886  
      83A      1.615656    84A      1.648150    85A      1.749647  
      86A      1.759860    87A      1.818896    88A      1.840262  
      89A      1.873645    90A      1.884458    91A      1.919774  
      92A      1.938050    93A      1.958974    94A      2.027699  
      95A      2.034689    96A      2.041604    97A      2.048010  
      98A      2.137206    99A      2.163588   100A      2.202309  
     101A      2.216004   102A      2.355064   103A      2.388492  
     104A      2.533627   105A      2.578759   106A      2.631862  
     107A      2.637974   108A      2.660626   109A      2.664681  
     110A      2.678283   111A      2.726533   112A      2.761427  
     113A      2.794657   114A      2.812279   115A      2.849476  
     116A      2.856059   117A      2.886191   118A      2.924309  
     119A      2.973521   120A      2.976345   121A      3.029454  
     122A      3.079564   123A      3.111927   124A      3.129633  
     125A      3.160632   126A      3.182031   127A      3.289757  
     128A      3.304464   129A      3.349440   130A      3.390572  
     131A      3.410107   132A      3.433846   133A      3.556412  
     134A      3.585768   135A      3.602724   136A      3.673530  
     137A      3.738446   138A      3.760090   139A      3.790932  
     140A      3.849101   141A      3.886739   142A      3.932017  
     143A      4.000719   144A      4.024048   145A      4.149623  
     146A      4.309104   147A      4.389865   148A      4.431498  
     149A      4.457857   150A      4.486127   151A      4.529085  
     152A      4.564806   153A      4.614948   154A      4.658188  
     155A      4.668789   156A      4.729763   157A      4.767963  
     158A      4.804173   159A      4.845509   160A      4.871077  
     161A      5.007005   162A      5.049930   163A      5.055978  
     164A      5.183755   165A      5.305520   166A      5.324438  
     167A      5.377704   168A      5.467490   169A      5.511483  
     170A      5.562676   171A      5.623772   172A      5.737117  
     173A      5.810841   174A      5.833754   175A      5.865126  
     176A      5.903046   177A      5.926397   178A      5.951061  
     179A      6.126762   180A      6.196147   181A      6.447094  
     182A      6.498864   183A      6.587386   184A      6.736609  
     185A      6.790373   186A      6.919923   187A      7.043497  
     188A      7.197669   189A      7.222779   190A      7.409159  
     191A      7.532364   192A      7.538109   193A      7.574534  
     194A      7.646887   195A      7.748075   196A      7.888402  
     197A      7.935122   198A      8.065951   199A      8.176340  
     200A      8.255891   201A      8.267034   202A      8.342747  
     203A      8.480025   204A      8.927045   205A      8.994528  
     206A      9.058771   207A      9.375831   208A      9.443645  
     209A      9.576450   210A      9.599415   211A      9.720138  
     212A      9.773438   213A      9.861918   214A      9.879870  
     215A      9.893769   216A      9.905953   217A      9.931806  
     218A     10.053005   219A     10.077890   220A     10.270819  
     221A     10.459735   222A     10.569125   223A     11.503435  
     224A     11.963325   225A     12.367314   226A     13.749645  
     227A     14.126492   228A     15.703575   229A     16.573209  
     230A     65.508618  

    Final Occupation by Irrep:
              A 
    DOCC [    10 ]
    NA   [    10 ]
    NB   [    10 ]

  @DF-RHF Final Energy:  -175.54931732595173

   => Energetics <=

    Nuclear Repulsion Energy =             28.9746087478146848
    One-Electron Energy =                -308.4326121253661199
    Two-Electron Energy =                 103.9086860515997159
    Total Energy =                       -175.5493173259517334

Computation Completed


Properties will be evaluated at   0.000000,   0.000000,   0.000000 [a0]

Properties computed using the SCF density matrix


 Multipole Moments:

 ------------------------------------------------------------------------------------
     Multipole            Electronic (a.u.)      Nuclear  (a.u.)        Total (a.u.)
 ------------------------------------------------------------------------------------

 L = 1.  Multiply by 2.5417464519 to convert [e a0] to [Debye]
 Dipole X            :        -32.5204344           29.8745480           -2.6458863
 Dipole Y            :          0.6694540           -1.0277219           -0.3582679
 Dipole Z            :         33.3838838          -32.1757091            1.2081746
 Magnitude           :                                                    2.9306580

 ------------------------------------------------------------------------------------

*** tstop() called on ddmfs1 at Mon Jan 22 03:14:14 2024
Module time:
	user time   =      19.65 seconds =       0.33 minutes
	system time =       0.66 seconds =       0.01 minutes
	total time  =          1 seconds =       0.02 minutes
Total time:
	user time   =      99.73 seconds =       1.66 minutes
	system time =       3.76 seconds =       0.06 minutes
	total time  =          7 seconds =       0.12 minutes

*** tstart() called on ddmfs1
*** at Mon Jan 22 03:14:14 2024


  //>>>>>>>>>>>>>>>>>>>>>>>>>>>>>>>>>>>//
  //               DFMP2               //
  //<<<<<<<<<<<<<<<<<<<<<<<<<<<<<<<<<<<//

   => Loading Basis Set <=

    Name: (AUG-CC-PVTZ AUX)
    Role: RIFIT
    Keyword: DF_BASIS_MP2
    atoms 1        entry F          line   322 file /ddmfs1b/softs/psi4conda/share/psi4/basis/aug-cc-pvtz-ri.gbs 
[...]
    M. F. Herbst, and D. L. Poole

             Previous Authors, Complete List of Code Contributors,
                       and Citations for Specific Modules
    https://github.com/psi4/psi4/blob/master/codemeta.json
    https://github.com/psi4/psi4/graphs/contributors
    http://psicode.org/psi4manual/master/introduction.html#citing-psifour

    -----------------------------------------------------------------------


    Psi4 started on: Monday, 22 January 2024 03:14AM

    Process ID: 28960
    Host:       ddmfs1
    PSIDATADIR: /ddmfs1b/softs/psi4conda/share/psi4
    Memory:     55.9 GiB
    Threads:    20
    
  ==> Input QCSchema <==

--------------------------------------------------------------------------
{'driver': 'energy',
 'extras': {'psiapi': True, 'wfn_qcvars_only': True},
 'id': None,
 'keywords': {'SCF_TYPE': 'DF', 'function_kwargs': {}},
 'model': {'basis': 'aug-cc-pvtz', 'method': 'mp2'},
 'molecule': {'atom_labels': ['', '', '', '', '', '', ''],
              'atomic_numbers': [9, 8, 1, 1, 8, 1, 1],
              'extras': {},
              'fix_com': True,
              'fix_orientation': True,
              'fix_symmetry': 'c1',
              'fragment_charges': [-1.0, 0.0, 0.0],
              'fragment_multiplicities': [1, 1, 1],
              'fragments': [[0], [1, 2, 3], [4, 5, 6]],
              'geometry': [3.2902172748436285, 0.0, 0.0, 0.0, -0.013891376748240494, 3.4205705829777084,
                           -1.1405612105552012, 1.1908317049446304, 2.696582489244557, 1.4031537734965702,
                           -0.05197880680684302, 2.1145619604125496, 0.0, 0.013891376748240494, -3.4205705829777084,
                           -1.1405612105552012, -1.1908317049446304, -2.696582489244557, 1.4031537734965702,
                           0.05197880680684302, -2.1145619604125496],
              'mass_numbers': [19, 16, 1, 1, 16, 1, 1],
              'masses': [18.99840316273, 15.99491461957, 1.00782503223, 1.00782503223, 15.99491461957, 1.00782503223,
                         1.00782503223],
              'molecular_charge': -1.0,
              'molecular_multiplicity': 1,
              'name': 'dimer',
              'provenance': {'creator': 'QCElemental',
                             'routine': 'qcelemental.molparse.from_string',
                             'version': '0.26.0'},
              'real': [True, True, True, True, True, True, True],
              'schema_name': 'qcschema_molecule',
              'schema_version': 2,
              'symbols': ['F', 'O', 'H', 'H', 'O', 'H', 'H'],
              'validated': True},
 'protocols': {'stdout': True},
 'provenance': {'creator': 'QCElemental', 'routine': 'qcelemental.models.results', 'version': '0.26.0'},
 'schema_name': 'qcschema_input',
 'schema_version': 1}
--------------------------------------------------------------------------

Scratch directory: /ddmfs1a/scratch/
   => Libint2 <=

    Primary   basis highest AM E, G, H:  5, 4, 3
    Auxiliary basis highest AM E, G, H:  6, 5, 4
    Onebody   basis highest AM E, G, H:  6, 5, 4
    Solid Harmonics ordering:            gaussian

*** tstart() called on ddmfs1
*** at Mon Jan 22 03:14:18 2024

   => Loading Basis Set <=

    Name: AUG-CC-PVTZ
    Role: ORBITAL
    Keyword: BASIS
    atoms 1        entry F          line   377 file /ddmfs1b/softs/psi4conda/share/psi4/basis/aug-cc-pvtz.gbs 
    atoms 2, 5     entry O          line   331 file /ddmfs1b/softs/psi4conda/share/psi4/basis/aug-cc-pvtz.gbs 
    atoms 3-4, 6-7 entry H          line    40 file /ddmfs1b/softs/psi4conda/share/psi4/basis/aug-cc-pvtz.gbs 


         ---------------------------------------------------------
                                   SCF
               by Justin Turney, Rob Parrish, Andy Simmonett
                          and Daniel G. A. Smith
                              RHF Reference
                       20 Threads,  57220 MiB Core
         ---------------------------------------------------------

  ==> Geometry <==

    Molecular point group: c1
    Full point group: C2

    Geometry (in Bohr), charge = -1, multiplicity = 1:

       Center              X                  Y                   Z               Mass       
    ------------   -----------------  -----------------  -----------------  -----------------
         F            3.290217274844     0.000000000000     0.000000000000    18.998403162730
         O            0.000000000000    -0.013891376748     3.420570582978    15.994914619570
         H           -1.140561210555     1.190831704945     2.696582489245     1.007825032230
         H            1.403153773497    -0.051978806807     2.114561960413     1.007825032230
         O            0.000000000000     0.013891376748    -3.420570582978    15.994914619570
         H           -1.140561210555    -1.190831704945    -2.696582489245     1.007825032230
         H            1.403153773497     0.051978806807    -2.114561960413     1.007825032230

  Running in c1 symmetry.

  Rotational constants: A =      0.27991  B =      0.15019  C =      0.09864 [cm^-1]
  Rotational constants: A =   8391.34598  B =   4502.50685  C =   2957.25716 [MHz]
  Nuclear repulsion =   73.398311372966589

  Charge       = -1
  Multiplicity = 1
  Electrons    = 30
  Nalpha       = 15
  Nbeta        = 15

  ==> Algorithm <==

  SCF Algorithm Type is DF.
  DIIS enabled.
  MOM disabled.
  Fractional occupation disabled.
  Guess Type is SAD.
  Energy threshold   = 1.00e-08
  Density threshold  = 1.00e-08
  Integral threshold = 1.00e-12

  ==> Primary Basis <==

  Basis Set: AUG-CC-PVTZ
    Blend: AUG-CC-PVTZ
    Number of shells: 78
    Number of basis functions: 230
    Number of Cartesian functions: 265
    Spherical Harmonics?: true
    Max angular momentum: 3

   => Loading Basis Set <=

    Name: (AUG-CC-PVTZ AUX)
    Role: JKFIT
    Keyword: DF_BASIS_SCF
    atoms 1        entry F          line   348 file /ddmfs1b/softs/psi4conda/share/psi4/basis/aug-cc-pvtz-jkfit.gbs 
    atoms 2, 5     entry O          line   286 file /ddmfs1b/softs/psi4conda/share/psi4/basis/aug-cc-pvtz-jkfit.gbs 
    atoms 3-4, 6-7 entry H          line    70 file /ddmfs1b/softs/psi4conda/share/psi4/basis/aug-cc-pvtz-jkfit.gbs 

  ==> Integral Setup <==

  DFHelper Memory: AOs need 0.213 GiB; user supplied 41.910 GiB. 
  Using in-core AOs.

  ==> MemDFJK: Density-Fitted J/K Matrices <==

    J tasked:                   Yes
    K tasked:                   Yes
    wK tasked:                   No
    OpenMP threads:              20
    Memory [MiB]:             42915
    Algorithm:                 Core
    Schwarz Cutoff:           1E-12
    Mask sparsity (%):       1.2892
    Fitting Condition:        1E-10

   => Auxiliary Basis Set <=

  Basis Set: (AUG-CC-PVTZ AUX)
    Blend: AUG-CC-PVTZ-JKFIT
    Number of shells: 146
    Number of basis functions: 496
    Number of Cartesian functions: 613
    Spherical Harmonics?: true
    Max angular momentum: 4

  Minimum eigenvalue in the overlap matrix is 2.4463770623E-04.
  Reciprocal condition number of the overlap matrix is 2.4069965683E-05.
    Using symmetric orthogonalization.

  ==> Pre-Iterations <==

  SCF Guess: Superposition of Atomic Densities via on-the-fly atomic UHF (no occupation information).

   -------------------------
    Irrep   Nso     Nmo    
   -------------------------
     A        230     230 
   -------------------------
    Total     230     230
   -------------------------

  ==> Iterations <==

                           Total Energy        Delta E     RMS |[F,P]|

   @DF-RHF iter SAD:  -250.05148530769557   -2.50051e+02   0.00000e+00 
   @DF-RHF iter   1:  -251.41482084296976   -1.36334e+00   3.38648e-03 DIIS/ADIIS
   @DF-RHF iter   2:  -251.55223669042036   -1.37416e-01   2.36686e-03 DIIS/ADIIS
   @DF-RHF iter   3:  -251.63734360339123   -8.51069e-02   1.30616e-04 DIIS/ADIIS
   @DF-RHF iter   4:  -251.63813803891722   -7.94436e-04   2.86269e-05 DIIS
   @DF-RHF iter   5:  -251.63818191299234   -4.38741e-05   7.26405e-06 DIIS
   @DF-RHF iter   6:  -251.63818510905813   -3.19607e-06   2.54152e-06 DIIS
   @DF-RHF iter   7:  -251.63818539859537   -2.89537e-07   1.21879e-06 DIIS
   @DF-RHF iter   8:  -251.63818544876904   -5.01737e-08   2.09145e-07 DIIS
   @DF-RHF iter   9:  -251.63818545203060   -3.26156e-09   4.45651e-08 DIIS
   @DF-RHF iter  10:  -251.63818545215545   -1.24857e-10   9.34814e-09 DIIS
  Energy and wave function converged.


  ==> Post-Iterations <==

    Orbital Energies [Eh]
    ---------------------

    Doubly Occupied:                                                      

       1A    -25.945326     2A    -20.348533     3A    -20.348532  
       4A     -1.219288     5A     -1.128068     6A     -1.124507  
       7A     -0.500347     8A     -0.492047     9A     -0.397757  
      10A     -0.389514    11A     -0.311811    12A     -0.300160  
      13A     -0.291876    14A     -0.285954    15A     -0.284618  

    Virtual:                                                              

      16A      0.144798    17A      0.155735    18A      0.180693  
      19A      0.185176    20A      0.280783    21A      0.284562  
      22A      0.302277    23A      0.310769    24A      0.317952  
      25A      0.339716    26A      0.343616    27A      0.354779  
      28A      0.370136    29A      0.398542    30A      0.422639  
      31A      0.425569    32A      0.432250    33A      0.442638  
      34A      0.475646    35A      0.490612    36A      0.516460  
      37A      0.548319    38A      0.581648    39A      0.602170  
      40A      0.609934    41A      0.617033    42A      0.620592  
      43A      0.650007    44A      0.683377    45A      0.707711  
      46A      0.747062    47A      0.764302    48A      0.815079  
      49A      0.845219    50A      0.874583    51A      0.881648  
      52A      0.887999    53A      0.916842    54A      0.921212  
      55A      0.942077    56A      0.951227    57A      0.989642  
      58A      1.033920    59A      1.044403    60A      1.067951  
      61A      1.086545    62A      1.098387    63A      1.105553  
      64A      1.108327    65A      1.131974    66A      1.134567  
      67A      1.178087    68A      1.182582    69A      1.189105  
      70A      1.212832    71A      1.222173    72A      1.224855  
      73A      1.259768    74A      1.278174    75A      1.301769  
      76A      1.340531    77A      1.362926    78A      1.384786  
      79A      1.398349    80A      1.428953    81A      1.436950  
      82A      1.451325    83A      1.477685    84A      1.507191  
      85A      1.513030    86A      1.539043    87A      1.564471  
      88A      1.584432    89A      1.655940    90A      1.714736  
      91A      1.733286    92A      1.786588    93A      1.812421  
      94A      1.828940    95A      1.831823    96A      1.834893  
      97A      1.870869    98A      1.907459    99A      1.996435  
     100A      2.005551   101A      2.082783   102A      2.117678  
     103A      2.153751   104A      2.163588   105A      2.181940  
     106A      2.202074   107A      2.350351   108A      2.430546  
     109A      2.505540   110A      2.539125   111A      2.608208  
     112A      2.612978   113A      2.636294   114A      2.637383  
     115A      2.672759   116A      2.684987   117A      2.696443  
     118A      2.716622   119A      2.732232   120A      2.784263  
     121A      2.820719   122A      2.833599   123A      2.912174  
     124A      2.936829   125A      2.947503   126A      2.958218  
     127A      3.012555   128A      3.019856   129A      3.054928  
     130A      3.100272   131A      3.103182   132A      3.109779  
     133A      3.158787   134A      3.167993   135A      3.266421  
     136A      3.329337   137A      3.402849   138A      3.491815  
     139A      3.522947   140A      3.599170   141A      3.702392  
     142A      3.791738   143A      3.799280   144A      3.837584  
     145A      3.962585   146A      3.996791   147A      4.088556  
     148A      4.111012   149A      4.280993   150A      4.283840  
     151A      4.373135   152A      4.374857   153A      4.406473  
     154A      4.435533   155A      4.457537   156A      4.460311  
     157A      4.512151   158A      4.555800   159A      4.557308  
     160A      4.580151   161A      4.587978   162A      4.602146  
     163A      4.715769   164A      4.722086   165A      4.751998  
     166A      4.755109   167A      4.832163   168A      4.842829  
     169A      5.012809   170A      5.085333   171A      5.279741  
     172A      5.297888   173A      5.407634   174A      5.434069  
     175A      5.473054   176A      5.512174   177A      5.555325  
     178A      5.569511   179A      5.698137   180A      5.725854  
     181A      5.807629   182A      5.813364   183A      5.851988  
     184A      5.890166   185A      5.978162   186A      6.392319  
     187A      6.404261   188A      6.467295   189A      6.485158  
     190A      6.755094   191A      6.779611   192A      7.006151  
     193A      7.024050   194A      7.164027   195A      7.185260  
     196A      7.356953   197A      7.433934   198A      7.494726  
     199A      7.516518   200A      7.516881   201A      7.528227  
     202A      7.547100   203A      7.552671   204A      7.621949  
     205A      7.632359   206A      7.720313   207A      7.732758  
     208A      7.864151   209A      7.875843   210A      8.147641  
     211A      8.161586   212A      8.222573   213A      8.249337  
     214A      9.012748   215A      9.027716   216A      9.314176  
     217A      9.392537   218A      9.522852   219A      9.544777  
     220A      9.657693   221A      9.748130   222A      9.805182  
     223A      9.840818   224A      9.866870   225A      9.874086  
     226A     10.023008   227A     10.496484   228A     15.451282  
     229A     16.393831   230A     16.630494  

    Final Occupation by Irrep:
              A 
    DOCC [    15 ]
    NA   [    15 ]
    NB   [    15 ]

  @DF-RHF Final Energy:  -251.63818545215545

   => Energetics <=

    Nuclear Repulsion Energy =             73.3983113729665888
    One-Electron Energy =                -503.3363120891012272
    Two-Electron Energy =                 178.2998152639791840
    Total Energy =                       -251.6381854521554544

Computation Completed


Properties will be evaluated at   0.000000,   0.000000,   0.000000 [a0]

Properties computed using the SCF density matrix


 Multipole Moments:

 ------------------------------------------------------------------------------------
     Multipole            Electronic (a.u.)      Nuclear  (a.u.)        Total (a.u.)
 ------------------------------------------------------------------------------------

 L = 1.  Multiply by 2.5417464519 to convert [e a0] to [Debye]
 Dipole X            :        -32.2543917           30.1371406           -2.1172511
 Dipole Y            :          0.0000000            0.0000000            0.0000000
 Dipole Z            :         -0.0000000            0.0000000           -0.0000000
 Magnitude           :                                                    2.1172511

 ------------------------------------------------------------------------------------

*** tstop() called on ddmfs1 at Mon Jan 22 03:14:19 2024
Module time:
	user time   =      19.95 seconds =       0.33 minutes
	system time =       0.75 seconds =       0.01 minutes
	total time  =          1 seconds =       0.02 minutes
Total time:
	user time   =     181.70 seconds =       3.03 minutes
	system time =       6.87 seconds =       0.11 minutes
	total time  =         12 seconds =       0.20 minutes

*** tstart() called on ddmfs1
*** at Mon Jan 22 03:14:19 2024


  //>>>>>>>>>>>>>>>>>>>>>>>>>>>>>>>>>>>//
  //               DFMP2               //
  //<<<<<<<<<<<<<<<<<<<<<<<<<<<<<<<<<<<//

   => Loading Basis Set <=

    Name: (AUG-CC-PVTZ AUX)
    Role: RIFIT
    Keyword: DF_BASIS_MP2
    atoms 1        entry F          line   322 file /ddmfs1b/softs/psi4conda/share/psi4/basis/aug-cc-pvtz-ri.gbs 
    atoms 2, 5     entry O          line   264 file /ddmfs1b/softs/psi4conda/share/psi4/basis/aug-cc-pvtz-ri.gbs 
    atoms 3-4, 6-7 entry H          line    30 file /ddmfs1b/softs/psi4conda/share/psi4/basis/aug-cc-pvtz-ri.gbs 

	 --------------------------------------------------------
	                          DF-MP2                         
	      2nd-Order Density-Fitted Moller-Plesset Theory     
	              RMP2 Wavefunction,  20 Threads             
	                                                         
	        Rob Parrish, Justin Turney, Andy Simmonett,      
	           Ed Hohenstein, and C. David Sherrill          
	 --------------------------------------------------------

   => Auxiliary Basis Set <=

  Basis Set: (AUG-CC-PVTZ AUX)
    Blend: AUG-CC-PVTZ-RI
    Number of shells: 140
    Number of basis functions: 502
    Number of Cartesian functions: 628
    Spherical Harmonics?: true
    Max angular momentum: 4

	 --------------------------------------------------------
	                 NBF =   230, NAUX =   502
	 --------------------------------------------------------
	   CLASS    FOCC     OCC    AOCC    AVIR     VIR    FVIR
	   PAIRS       0      15      15     215     215       0
	 --------------------------------------------------------

	-----------------------------------------------------------
	 ==================> DF-MP2 Energies <==================== 
	-----------------------------------------------------------
	 Reference Energy          =    -251.6381854521554544 [Eh]
	 Singles Energy            =      -0.0000000000000000 [Eh]
	 Same-Spin Energy          =      -0.2245535387597012 [Eh]
	 Opposite-Spin Energy      =      -0.6639459998104843 [Eh]
	 Correlation Energy        =      -0.8884995385701855 [Eh]
	 Total Energy              =    -252.5266849907256415 [Eh]
	-----------------------------------------------------------
	 ================> DF-SCS-MP2 Energies <================== 
	-----------------------------------------------------------
	 SCS Same-Spin Scale       =       0.3333333333333333 [-]
	 SCS Opposite-Spin Scale   =       1.2000000000000000 [-]
	 SCS Same-Spin Energy      =      -0.0748511795865671 [Eh]
	 SCS Opposite-Spin Energy  =      -0.7967351997725811 [Eh]
	 SCS Correlation Energy    =      -0.8715863793591482 [Eh]
	 SCS Total Energy          =    -252.5097718315145983 [Eh]
	-----------------------------------------------------------


*** tstop() called on ddmfs1 at Mon Jan 22 03:14:20 2024
Module time:
	user time   =       7.68 seconds =       0.13 minutes
	system time =       0.28 seconds =       0.00 minutes
	total time  =          1 seconds =       0.02 minutes
Total time:
	user time   =     189.40 seconds =       3.16 minutes
	system time =       7.15 seconds =       0.12 minutes
	total time  =         13 seconds =       0.22 minutes

    Psi4 stopped on: Monday, 22 January 2024 03:14AM
    Psi4 wall time for execution: 0:00:01.90


  //>>>>>>>>>>>>>>>>>>>>>>>>>>>>>>>>>>>//
  //          ManyBody Results         //
  //<<<<<<<<<<<<<<<<<<<<<<<<<<<<<<<<<<<//


   ==> N-Body: Counterpoise Corrected (CP) energies <==

        n-Body     Total Energy            Interaction Energy                          N-body Contribution to Interaction Energy
                   [Eh]                    [Eh]                  [kcal/mol]            [Eh]                  [kcal/mol]
             1  N/A                         0.000000000000        0.000000000000        0.000000000000        0.000000000000
             2  N/A                        -0.086645112261      -54.370628800445       -0.086645112261      -54.370628800445
  FULL/RTN   3  N/A                        -0.079847811853      -50.105258398449        0.006797300408        4.265370401996


    Psi4 stopped on: Monday, 22 January 2024 03:14AM
    Psi4 wall time for execution: 0:00:15.68

*** Psi4 exiting successfully. Buy a developer a beer!
