
    -----------------------------------------------------------------------
          Psi4: An Open-Source Ab Initio Electronic Structure Package
                               Psi4 1.9 release

                         Git: Rev {} zzzzzzz 


    D. G. A. Smith, L. A. Burns, A. C. Simmonett, R. M. Parrish,
    M. C. Schieber, R. Galvelis, P. Kraus, H. Kruse, R. Di Remigio,
    A. Alenaizan, A. M. James, S. Lehtola, J. P. Misiewicz, M. Scheurer,
    R. A. Shaw, J. B. Schriber, Y. Xie, Z. L. Glick, D. A. Sirianni,
    J. S. O'Brien, J. M. Waldrop, A. Kumar, E. G. Hohenstein,
    B. P. Pritchard, B. R. Brooks, H. F. Schaefer III, A. Yu. Sokolov,
    K. Patkowski, A. E. DePrince III, U. Bozkaya, R. A. King,
    F. A. Evangelista, J. M. Turney, T. D. Crawford, C. D. Sherrill,
    J. Chem. Phys. 152(18) 184108 (2020). https://doi.org/10.1063/5.0006002

                            Additional Code Authors
    E. T. Seidl, C. L. Janssen, E. F. Valeev, M. L. Leininger,
    J. F. Gonthier, R. M. Richard, H. R. McAlexander, M. Saitow, X. Wang,
    P. Verma, M. H. Lechner, A. Jiang, S. Behnle, A. G. Heide,
    M. F. Herbst, and D. L. Poole

             Previous Authors, Complete List of Code Contributors,
                       and Citations for Specific Modules
    https://github.com/psi4/psi4/blob/master/codemeta.json
    https://github.com/psi4/psi4/graphs/contributors
    http://psicode.org/psi4manual/master/introduction.html#citing-psifour

    -----------------------------------------------------------------------


    Psi4 started on: Saturday, 30 December 2023 04:54PM

    Process ID: 211020
    Host:       moses-razer
    PSIDATADIR: /home/kchung25/anaconda3/envs/psi4_19/share/psi4
    Memory:     500.0 MiB
    Threads:    6
    
  ==> Input File <==

--------------------------------------------------------------------------
MEMORY 60 GB

molecule dimer {
-1 1
F      3.482216     0.000000     0.000000
--
0 1
O      0.000000    -0.007351     1.810088
H     -0.603559     0.630161     1.426970
H      0.742517    -0.027506     1.118978
O      0.000000     0.007351    -1.810088
H     -0.603559    -0.630161    -1.426970
H      0.742517     0.027506    -1.118978

units ang
no_reorient
no_com
symmetry c1
}

set {
basis        aug-cc-pVTZ
scf_type     df
}

energy("mp2", bsse_type="cp")
--------------------------------------------------------------------------

  Memory set to  55.879 GiB by Python driver.

Scratch directory: /scratch/

  //>>>>>>>>>>>>>>>>>>>>>>>>>>>>>>>>>>>>>//
  // ManyBody Setup: N-Body Levels [1, 2]//
  //<<<<<<<<<<<<<<<<<<<<<<<<<<<<<<<<<<<<<//

        Number of 1-body computations:     2
        Number of 2-body computations:     1

    -----------------------------------------------------------------------
          Psi4: An Open-Source Ab Initio Electronic Structure Package
                               Psi4 1.9 release

                         Git: Rev {} zzzzzzz 


    D. G. A. Smith, L. A. Burns, A. C. Simmonett, R. M. Parrish,
    M. C. Schieber, R. Galvelis, P. Kraus, H. Kruse, R. Di Remigio,
    A. Alenaizan, A. M. James, S. Lehtola, J. P. Misiewicz, M. Scheurer,
    R. A. Shaw, J. B. Schriber, Y. Xie, Z. L. Glick, D. A. Sirianni,
    J. S. O'Brien, J. M. Waldrop, A. Kumar, E. G. Hohenstein,
    B. P. Pritchard, B. R. Brooks, H. F. Schaefer III, A. Yu. Sokolov,
    K. Patkowski, A. E. DePrince III, U. Bozkaya, R. A. King,
    F. A. Evangelista, J. M. Turney, T. D. Crawford, C. D. Sherrill,
    J. Chem. Phys. 152(18) 184108 (2020). https://doi.org/10.1063/5.0006002

                            Additional Code Authors
    E. T. Seidl, C. L. Janssen, E. F. Valeev, M. L. Leininger,
    J. F. Gonthier, R. M. Richard, H. R. McAlexander, M. Saitow, X. Wang,
    P. Verma, M. H. Lechner, A. Jiang, S. Behnle, A. G. Heide,
    M. F. Herbst, and D. L. Poole

             Previous Authors, Complete List of Code Contributors,
                       and Citations for Specific Modules
    https://github.com/psi4/psi4/blob/master/codemeta.json
    https://github.com/psi4/psi4/graphs/contributors
    http://psicode.org/psi4manual/master/introduction.html#citing-psifour

    -----------------------------------------------------------------------


    Psi4 started on: Saturday, 30 December 2023 04:54PM

    Process ID: 211020
    Host:       moses-razer
    PSIDATADIR: /home/kchung25/anaconda3/envs/psi4_19/share/psi4
    Memory:     55.9 GiB
    Threads:    6
    
  ==> Input QCSchema <==

--------------------------------------------------------------------------
{'driver': 'energy',
 'extras': {'psiapi': True, 'wfn_qcvars_only': True},
 'id': None,
 'keywords': {'SCF_TYPE': 'DF', 'function_kwargs': {}},
 'model': {'basis': 'aug-cc-pvtz', 'method': 'mp2'},
 'molecule': {'atom_labels': ['', '', '', '', '', '', ''],
              'atomic_numbers': [9, 8, 1, 1, 8, 1, 1],
              'extras': {},
              'fix_com': True,
              'fix_orientation': True,
              'fix_symmetry': 'c1',
              'fragment_charges': [0.0, 0.0],
              'fragment_multiplicities': [1, 1],
              'fragments': [[0], [1, 2, 3, 4, 5, 6]],
              'geometry': [6.580434549687257, 0.0, 0.0, 0.0, -0.013891376748240494, 3.4205705829777084,
                           -1.1405612105552012, 1.1908317049446304, 2.696582489244557, 1.4031537734965702,
                           -0.05197880680684302, 2.1145619604125496, 0.0, 0.013891376748240494, -3.4205705829777084,
                           -1.1405612105552012, -1.1908317049446304, -2.696582489244557, 1.4031537734965702,
                           0.05197880680684302, -2.1145619604125496],
              'mass_numbers': [19, 16, 1, 1, 16, 1, 1],
              'masses': [18.99840316273, 15.99491461957, 1.00782503223, 1.00782503223, 15.99491461957, 1.00782503223,
                         1.00782503223],
              'molecular_charge': 0.0,
              'molecular_multiplicity': 1,
              'name': 'dimer',
              'provenance': {'creator': 'QCElemental',
                             'routine': 'qcelemental.molparse.from_string',
                             'version': '0.27.1'},
              'real': [False, True, True, True, True, True, True],
              'schema_name': 'qcschema_molecule',
              'schema_version': 2,
              'symbols': ['F', 'O', 'H', 'H', 'O', 'H', 'H'],
              'validated': True},
 'protocols': {'stdout': True},
 'provenance': {'creator': 'QCElemental', 'routine': 'qcelemental.models.results', 'version': '0.27.1'},
 'schema_name': 'qcschema_input',
 'schema_version': 1}
--------------------------------------------------------------------------

Scratch directory: /scratch/
   => Libint2 <=

    Primary   basis highest AM E, G, H:  5, 4, 3
    Auxiliary basis highest AM E, G, H:  6, 5, 4
    Onebody   basis highest AM E, G, H:  6, 5, 4
    Solid Harmonics ordering:            gaussian

*** tstart() called on moses-razer
*** at Sat Dec 30 16:54:57 2023

   => Loading Basis Set <=

    Name: AUG-CC-PVTZ
    Role: ORBITAL
    Keyword: BASIS
    atoms 1        entry F          line   377 file /home/kchung25/anaconda3/envs/p415env/share/psi4/basis/aug-cc-pvtz.gbs 
    atoms 2, 5     entry O          line   331 file /home/kchung25/anaconda3/envs/p415env/share/psi4/basis/aug-cc-pvtz.gbs 
    atoms 3-4, 6-7 entry H          line    40 file /home/kchung25/anaconda3/envs/p415env/share/psi4/basis/aug-cc-pvtz.gbs 


         ---------------------------------------------------------
                                   SCF
               by Justin Turney, Rob Parrish, Andy Simmonett
                          and Daniel G. A. Smith
                              RHF Reference
                        6 Threads,  57220 MiB Core
         ---------------------------------------------------------

  ==> Geometry <==

    Molecular point group: c1
    Full point group: C2

    Geometry (in Bohr), charge = 0, multiplicity = 1:

       Center              X                  Y                   Z               Mass       
    ------------   -----------------  -----------------  -----------------  -----------------
      Gh(F)           6.580434549687     0.000000000000     0.000000000000    18.998403162730
         O            0.000000000000    -0.013891376748     3.420570582978    15.994914619570
         H           -1.140561210555     1.190831704945     2.696582489245     1.007825032230
         H            1.403153773497    -0.051978806807     2.114561960413     1.007825032230
         O            0.000000000000     0.013891376748    -3.420570582978    15.994914619570
         H           -1.140561210555    -1.190831704945    -2.696582489245     1.007825032230
         H            1.403153773497     0.051978806807    -2.114561960413     1.007825032230

  Running in c1 symmetry.

  Rotational constants: A =      0.15019  B =      0.07235  C =      0.04905 [cm^-1]
  Rotational constants: A =   4502.50685  B =   2168.96444  C =   1470.52271 [MHz]
  Nuclear repulsion =   33.325614019337735

  Charge       = 0
  Multiplicity = 1
  Electrons    = 20
  Nalpha       = 10
  Nbeta        = 10

  ==> Algorithm <==

  SCF Algorithm Type is DF.
  DIIS enabled.
  MOM disabled.
  Fractional occupation disabled.
  Guess Type is SAD.
  Energy threshold   = 1.00e-08
  Density threshold  = 1.00e-08
  Integral threshold = 1.00e-12

  ==> Primary Basis <==

  Basis Set: AUG-CC-PVTZ
    Blend: AUG-CC-PVTZ
    Number of shells: 78
    Number of basis functions: 230
    Number of Cartesian functions: 265
    Spherical Harmonics?: true
    Max angular momentum: 3

   => Loading Basis Set <=

    Name: (AUG-CC-PVTZ AUX)
    Role: JKFIT
    Keyword: DF_BASIS_SCF
    atoms 1        entry F          line   348 file /home/kchung25/anaconda3/envs/p415env/share/psi4/basis/aug-cc-pvtz-jkfit.gbs 
    atoms 2, 5     entry O          line   286 file /home/kchung25/anaconda3/envs/p415env/share/psi4/basis/aug-cc-pvtz-jkfit.gbs 
    atoms 3-4, 6-7 entry H          line    70 file /home/kchung25/anaconda3/envs/p415env/share/psi4/basis/aug-cc-pvtz-jkfit.gbs 

  ==> Integral Setup <==

  DFHelper Memory: AOs need 0.198 GiB; user supplied 41.910 GiB. 
  Using in-core AOs.

  ==> MemDFJK: Density-Fitted J/K Matrices <==

    J tasked:                   Yes
    K tasked:                   Yes
    wK tasked:                   No
    OpenMP threads:               6
    Memory [MiB]:             42915
    Algorithm:                 Core
    Schwarz Cutoff:           1E-12
    Mask sparsity (%):       6.0529
    Fitting Condition:        1E-10

   => Auxiliary Basis Set <=

  Basis Set: (AUG-CC-PVTZ AUX)
    Blend: AUG-CC-PVTZ-JKFIT
    Number of shells: 146
    Number of basis functions: 496
    Number of Cartesian functions: 613
    Spherical Harmonics?: true
    Max angular momentum: 4

  Minimum eigenvalue in the overlap matrix is 2.9384976257E-04.
  Reciprocal condition number of the overlap matrix is 3.1820158175E-05.
    Using symmetric orthogonalization.

  ==> Pre-Iterations <==

  SCF Guess: Superposition of Atomic Densities via on-the-fly atomic UHF (no occupation information).

   -------------------------
    Irrep   Nso     Nmo    
   -------------------------
     A        230     230 
   -------------------------
    Total     230     230
   -------------------------

  ==> Iterations <==

                           Total Energy        Delta E     RMS |[F,P]|

   @DF-RHF iter SAD:  -150.93264286696859   -1.50933e+02   0.00000e+00 
   @DF-RHF iter   1:  -151.93726390485429   -1.00462e+00   2.85639e-03 DIIS/ADIIS
   @DF-RHF iter   2:  -152.04047133614205   -1.03207e-01   2.01054e-03 DIIS/ADIIS
   @DF-RHF iter   3:  -152.10769784564749   -6.72265e-02   1.40877e-04 DIIS/ADIIS
   @DF-RHF iter   4:  -152.10859996234976   -9.02117e-04   3.49296e-05 DIIS
   @DF-RHF iter   5:  -152.10866158139720   -6.16190e-05   8.39402e-06 DIIS
   @DF-RHF iter   6:  -152.10866699317467   -5.41178e-06   1.80402e-06 DIIS
   @DF-RHF iter   7:  -152.10866726245868   -2.69284e-07   3.24521e-07 DIIS
   @DF-RHF iter   8:  -152.10866726992984   -7.47116e-09   6.75975e-08 DIIS
   @DF-RHF iter   9:  -152.10866727022790   -2.98058e-10   1.99912e-08 DIIS
   @DF-RHF iter  10:  -152.10866727026001   -3.21165e-11   5.74434e-09 DIIS
  Energy and wave function converged.


  ==> Post-Iterations <==

    Orbital Energies [Eh]
    ---------------------

    Doubly Occupied:                                                      

       1A    -20.586598     2A    -20.586596     3A     -1.356317  
       4A     -1.353763     5A     -0.713328     6A     -0.707767  
       7A     -0.604579     8A     -0.590771     9A     -0.523672  
      10A     -0.520134  

    Virtual:                                                              

      11A      0.021693    12A      0.041958    13A      0.048736  
      14A      0.060275    15A      0.114129    16A      0.129424  
      17A      0.139535    18A      0.156624    19A      0.161109  
      20A      0.165843    21A      0.178398    22A      0.179869  
      23A      0.197216    24A      0.214918    25A      0.229422  
      26A      0.229774    27A      0.239930    28A      0.252453  
      29A      0.263019    30A      0.278458    31A      0.299863  
      32A      0.322631    33A      0.335691    34A      0.356715  
      35A      0.378865    36A      0.402889    37A      0.429241  
      38A      0.450218    39A      0.458536    40A      0.476601  
      41A      0.516309    42A      0.549145    43A      0.598775  
      44A      0.601192    45A      0.634649    46A      0.675831  
      47A      0.682111    48A      0.699407    49A      0.714379  
      50A      0.729557    51A      0.741254    52A      0.743072  
      53A      0.778217    54A      0.783700    55A      0.786053  
      56A      0.826493    57A      0.841076    58A      0.854912  
      59A      0.868063    60A      0.894263    61A      0.898261  
      62A      0.908805    63A      0.915923    64A      0.919619  
      65A      0.934903    66A      0.939283    67A      0.962786  
      68A      0.970995    69A      0.977816    70A      0.996454  
      71A      1.005660    72A      1.005750    73A      1.033698  
      74A      1.038396    75A      1.053254    76A      1.058247  
      77A      1.095330    78A      1.130072    79A      1.145397  
      80A      1.198537    81A      1.203980    82A      1.231118  
      83A      1.233455    84A      1.263122    85A      1.263890  
      86A      1.320950    87A      1.325042    88A      1.334344  
      89A      1.337993    90A      1.353661    91A      1.505150  
      92A      1.524397    93A      1.553302    94A      1.588901  
      95A      1.595595    96A      1.649653    97A      1.673532  
      98A      1.817348    99A      1.828604   100A      1.874852  
     101A      1.877527   102A      1.996272   103A      2.031641  
     104A      2.140018   105A      2.222027   106A      2.267294  
     107A      2.334021   108A      2.347991   109A      2.356319  
     110A      2.357670   111A      2.381633   112A      2.426880  
     113A      2.445921   114A      2.487546   115A      2.497940  
     116A      2.550958   117A      2.572309   118A      2.592066  
     119A      2.695437   120A      2.723424   121A      2.727358  
     122A      2.742258   123A      2.754051   124A      2.788229  
     125A      2.806950   126A      2.846286   127A      2.878252  
     128A      2.888768   129A      2.897677   130A      3.006804  
     131A      3.046076   132A      3.062844   133A      3.067221  
     134A      3.067482   135A      3.081758   136A      3.085116  
     137A      3.100966   138A      3.139960   139A      3.222925  
     140A      3.226640   141A      3.539564   142A      3.548006  
     143A      3.577285   144A      3.616034   145A      3.705969  
     146A      3.710439   147A      3.748302   148A      3.768486  
     149A      3.818723   150A      4.040493   151A      4.047649  
     152A      4.134612   153A      4.151513   154A      4.172238  
     155A      4.180711   156A      4.231817   157A      4.260951  
     158A      4.265421   159A      4.296841   160A      4.365826  
     161A      4.376164   162A      4.379762   163A      4.386903  
     164A      4.419941   165A      4.459004   166A      4.507103  
     167A      4.585613   168A      4.733397   169A      4.771041  
     170A      4.822069   171A      4.841493   172A      5.059938  
     173A      5.067715   174A      5.087796   175A      5.159899  
     176A      5.201525   177A      5.263327   178A      5.291341  
     179A      5.298344   180A      5.474965   181A      5.477634  
     182A      5.586822   183A      5.629209   184A      6.208228  
     185A      6.227556   186A      6.522602   187A      6.524267  
     188A      6.773066   189A      6.776335   190A      6.894261  
     191A      6.913823   192A      7.071855   193A      7.129158  
     194A      7.211268   195A      7.260047   196A      7.268253  
     197A      7.272279   198A      7.294861   199A      7.301178  
     200A      7.358654   201A      7.366111   202A      7.385879  
     203A      7.389389   204A      7.497217   205A      7.558707  
     206A      7.838870   207A      7.870506   208A      7.905584  
     209A      7.937762   210A      8.666909   211A      8.693617  
     212A      9.376143   213A     10.132860   214A     10.134383  
     215A     10.138759   216A     10.140518   217A     10.140600  
     218A     10.174750   219A     10.202063   220A     12.927824  
     221A     12.931652   222A     12.949506   223A     13.022042  
     224A     13.038011   225A     14.193014   226A     14.247669  
     227A     14.315426   228A     15.027477   229A     15.460532  
     230A     67.081294  

    Final Occupation by Irrep:
              A 
    DOCC [    10 ]
    NA   [    10 ]
    NB   [    10 ]

  @DF-RHF Final Energy:  -152.10866727026001

   => Energetics <=

    Nuclear Repulsion Energy =             33.3256140193377348
    One-Electron Energy =                -275.7815129198411910
    Two-Electron Energy =                  90.3472316302434422
    Total Energy =                       -152.1086672702600140

Computation Completed


Properties will be evaluated at   0.000000,   0.000000,   0.000000 [a0]

Properties computed using the SCF density matrix


 Multipole Moments:

 ------------------------------------------------------------------------------------
     Multipole            Electronic (a.u.)      Nuclear  (a.u.)        Total (a.u.)
 ------------------------------------------------------------------------------------

 L = 1.  Multiply by 2.5417464519 to convert [e a0] to [Debye]
 Dipole X            :         -0.4048472            0.5251851            0.1203380
 Dipole Y            :         -0.0000000            0.0000000           -0.0000000
 Dipole Z            :          0.0000000            0.0000000            0.0000000
 Magnitude           :                                                    0.1203380

 ------------------------------------------------------------------------------------

*** tstop() called on moses-razer at Sat Dec 30 16:54:58 2023
Module time:
	user time   =       6.44 seconds =       0.11 minutes
	system time =       0.33 seconds =       0.01 minutes
	total time  =          1 seconds =       0.02 minutes
Total time:
	user time   =       6.44 seconds =       0.11 minutes
	system time =       0.33 seconds =       0.01 minutes
	total time  =          1 seconds =       0.02 minutes

*** tstart() called on moses-razer
*** at Sat Dec 30 16:54:58 2023


  //>>>>>>>>>>>>>>>>>>>>>>>>>>>>>>>>>>>//
  //               DFMP2               //
  //<<<<<<<<<<<<<<<<<<<<<<<<<<<<<<<<<<<//

   => Loading Basis Set <=

    Name: (AUG-CC-PVTZ AUX)
    Role: RIFIT
    Keyword: DF_BASIS_MP2
    atoms 1        entry F          line   322 file /home/kchung25/anaconda3/envs/p415env/share/psi4/basis/aug-cc-pvtz-ri.gbs 
    atoms 2, 5     entry O          line   264 file /home/kchung25/anaconda3/envs/p415env/share/psi4/basis/aug-cc-pvtz-ri.gbs 
    atoms 3-4, 6-7 entry H          line    30 file /home/kchung25/anaconda3/envs/p415env/share/psi4/basis/aug-cc-pvtz-ri.gbs 

	 --------------------------------------------------------
	                          DF-MP2                         
	      2nd-Order Density-Fitted Moller-Plesset Theory     
	              RMP2 Wavefunction,   6 Threads             
	                                                         
	        Rob Parrish, Justin Turney, Andy Simmonett,      
	           Ed Hohenstein, and C. David Sherrill          
	 --------------------------------------------------------

   => Auxiliary Basis Set <=

  Basis Set: (AUG-CC-PVTZ AUX)
    Blend: AUG-CC-PVTZ-RI
    Number of shells: 140
    Number of basis functions: 502
    Number of Cartesian functions: 628
    Spherical Harmonics?: true
    Max angular momentum: 4

	 --------------------------------------------------------
	                 NBF =   230, NAUX =   502
	 --------------------------------------------------------
	   CLASS    FOCC     OCC    AOCC    AVIR     VIR    FVIR
	   PAIRS       0      10      10     220     220       0
	 --------------------------------------------------------

	-----------------------------------------------------------
	 ==================> DF-MP2 Energies <==================== 
	-----------------------------------------------------------
	 Reference Energy          =    -152.1086672702600140 [Eh]
	 Singles Energy            =      -0.0000000000000000 [Eh]
	 Same-Spin Energy          =      -0.1383517222142855 [Eh]
	 Opposite-Spin Energy      =      -0.4350031914203997 [Eh]
	 Correlation Energy        =      -0.5733549136346852 [Eh]
	 Total Energy              =    -152.6820221838947020 [Eh]
	-----------------------------------------------------------
	 ================> DF-SCS-MP2 Energies <================== 
	-----------------------------------------------------------
	 SCS Same-Spin Scale       =       0.3333333333333333 [-]
	 SCS Opposite-Spin Scale   =       1.2000000000000000 [-]
	 SCS Same-Spin Energy      =      -0.0461172407380952 [Eh]
	 SCS Opposite-Spin Energy  =      -0.5220038297044796 [Eh]
	 SCS Correlation Energy    =      -0.5681210704425748 [Eh]
	 SCS Total Energy          =    -152.6767883407025863 [Eh]
	-----------------------------------------------------------


*** tstop() called on moses-razer at Sat Dec 30 16:54:59 2023
Module time:
	user time   =       2.53 seconds =       0.04 minutes
	system time =       0.14 seconds =       0.00 minutes
	total time  =          1 seconds =       0.02 minutes
Total time:
	user time   =       8.97 seconds =       0.15 minutes
	system time =       0.47 seconds =       0.01 minutes
	total time  =          2 seconds =       0.03 minutes

    Psi4 stopped on: Saturday, 30 December 2023 04:54PM
    Psi4 wall time for execution: 0:00:01.71


    -----------------------------------------------------------------------
          Psi4: An Open-Source Ab Initio Electronic Structure Package
                               Psi4 1.9 release

                         Git: Rev {} zzzzzzz 


    D. G. A. Smith, L. A. Burns, A. C. Simmonett, R. M. Parrish,
    M. C. Schieber, R. Galvelis, P. Kraus, H. Kruse, R. Di Remigio,
    A. Alenaizan, A. M. James, S. Lehtola, J. P. Misiewicz, M. Scheurer,
    R. A. Shaw, J. B. Schriber, Y. Xie, Z. L. Glick, D. A. Sirianni,
    J. S. O'Brien, J. M. Waldrop, A. Kumar, E. G. Hohenstein,
    B. P. Pritchard, B. R. Brooks, H. F. Schaefer III, A. Yu. Sokolov,
    K. Patkowski, A. E. DePrince III, U. Bozkaya, R. A. King,
    F. A. Evangelista, J. M. Turney, T. D. Crawford, C. D. Sherrill,
    J. Chem. Phys. 152(18) 184108 (2020). https://doi.org/10.1063/5.0006002

                            Additional Code Authors
    E. T. Seidl, C. L. Janssen, E. F. Valeev, M. L. Leininger,
    J. F. Gonthier, R. M. Richard, H. R. McAlexander, M. Saitow, X. Wang,
    P. Verma, M. H. Lechner, A. Jiang, S. Behnle, A. G. Heide,
    M. F. Herbst, and D. L. Poole

             Previous Authors, Complete List of Code Contributors,
                       and Citations for Specific Modules
    https://github.com/psi4/psi4/blob/master/codemeta.json
    https://github.com/psi4/psi4/graphs/contributors
    http://psicode.org/psi4manual/master/introduction.html#citing-psifour

    -----------------------------------------------------------------------


    Psi4 started on: Saturday, 30 December 2023 04:54PM

    Process ID: 211020
    Host:       moses-razer
    PSIDATADIR: /home/kchung25/anaconda3/envs/psi4_19/share/psi4
    Memory:     55.9 GiB
    Threads:    6
    
  ==> Input QCSchema <==

--------------------------------------------------------------------------
{'driver': 'energy',
 'extras': {'psiapi': True, 'wfn_qcvars_only': True},
 'id': None,
 'keywords': {'SCF_TYPE': 'DF', 'function_kwargs': {}},
 'model': {'basis': 'aug-cc-pvtz', 'method': 'mp2'},
 'molecule': {'atom_labels': ['', '', '', '', '', '', ''],
              'atomic_numbers': [9, 8, 1, 1, 8, 1, 1],
              'extras': {},
              'fix_com': True,
              'fix_orientation': True,
              'fix_symmetry': 'c1',
              'fragment_charges': [-1.0, 0.0],
              'fragment_multiplicities': [1, 1],
              'fragments': [[0], [1, 2, 3, 4, 5, 6]],
              'geometry': [6.580434549687257, 0.0, 0.0, 0.0, -0.013891376748240494, 3.4205705829777084,
                           -1.1405612105552012, 1.1908317049446304, 2.696582489244557, 1.4031537734965702,
                           -0.05197880680684302, 2.1145619604125496, 0.0, 0.013891376748240494, -3.4205705829777084,
                           -1.1405612105552012, -1.1908317049446304, -2.696582489244557, 1.4031537734965702,
                           0.05197880680684302, -2.1145619604125496],
              'mass_numbers': [19, 16, 1, 1, 16, 1, 1],
              'masses': [18.99840316273, 15.99491461957, 1.00782503223, 1.00782503223, 15.99491461957, 1.00782503223,
                         1.00782503223],
              'molecular_charge': -1.0,
              'molecular_multiplicity': 1,
              'name': 'dimer',
              'provenance': {'creator': 'QCElemental',
                             'routine': 'qcelemental.molparse.from_string',
                             'version': '0.27.1'},
              'real': [True, False, False, False, False, False, False],
              'schema_name': 'qcschema_molecule',
              'schema_version': 2,
              'symbols': ['F', 'O', 'H', 'H', 'O', 'H', 'H'],
              'validated': True},
 'protocols': {'stdout': True},
 'provenance': {'creator': 'QCElemental', 'routine': 'qcelemental.models.results', 'version': '0.27.1'},
 'schema_name': 'qcschema_input',
 'schema_version': 1}
--------------------------------------------------------------------------

Scratch directory: /scratch/
   => Libint2 <=

    Primary   basis highest AM E, G, H:  5, 4, 3
    Auxiliary basis highest AM E, G, H:  6, 5, 4
    Onebody   basis highest AM E, G, H:  6, 5, 4
    Solid Harmonics ordering:            gaussian

*** tstart() called on moses-razer
*** at Sat Dec 30 16:54:59 2023

   => Loading Basis Set <=

    Name: AUG-CC-PVTZ
    Role: ORBITAL
    Keyword: BASIS
    atoms 1        entry F          line   377 file /home/kchung25/anaconda3/envs/p415env/share/psi4/basis/aug-cc-pvtz.gbs 
    atoms 2, 5     entry O          line   331 file /home/kchung25/anaconda3/envs/p415env/share/psi4/basis/aug-cc-pvtz.gbs 
    atoms 3-4, 6-7 entry H          line    40 file /home/kchung25/anaconda3/envs/p415env/share/psi4/basis/aug-cc-pvtz.gbs 


         ---------------------------------------------------------
                                   SCF
               by Justin Turney, Rob Parrish, Andy Simmonett
                          and Daniel G. A. Smith
                              RHF Reference
                        6 Threads,  57220 MiB Core
         ---------------------------------------------------------

  ==> Geometry <==

    Molecular point group: c1
    Full point group: C2

    Geometry (in Bohr), charge = -1, multiplicity = 1:

       Center              X                  Y                   Z               Mass       
    ------------   -----------------  -----------------  -----------------  -----------------
         F            6.580434549687     0.000000000000     0.000000000000    18.998403162730
      Gh(O)           0.000000000000    -0.013891376748     3.420570582978    15.994914619570
      Gh(H)          -1.140561210555     1.190831704945     2.696582489245     1.007825032230
      Gh(H)           1.403153773497    -0.051978806807     2.114561960413     1.007825032230
      Gh(O)           0.000000000000     0.013891376748    -3.420570582978    15.994914619570
      Gh(H)          -1.140561210555    -1.190831704945    -2.696582489245     1.007825032230
      Gh(H)           1.403153773497     0.051978806807    -2.114561960413     1.007825032230

  Running in c1 symmetry.

  Rotational constants: A =      0.15019  B =      0.07235  C =      0.04905 [cm^-1]
  Rotational constants: A =   4502.50685  B =   2168.96444  C =   1470.52271 [MHz]
  Nuclear repulsion =    0.000000000000000

  Charge       = -1
  Multiplicity = 1
  Electrons    = 10
  Nalpha       = 5
  Nbeta        = 5

  ==> Algorithm <==

  SCF Algorithm Type is DF.
  DIIS enabled.
  MOM disabled.
  Fractional occupation disabled.
  Guess Type is SAD.
  Energy threshold   = 1.00e-08
  Density threshold  = 1.00e-08
  Integral threshold = 1.00e-12

  ==> Primary Basis <==

  Basis Set: AUG-CC-PVTZ
    Blend: AUG-CC-PVTZ
    Number of shells: 78
    Number of basis functions: 230
    Number of Cartesian functions: 265
    Spherical Harmonics?: true
    Max angular momentum: 3

   => Loading Basis Set <=

    Name: (AUG-CC-PVTZ AUX)
    Role: JKFIT
    Keyword: DF_BASIS_SCF
    atoms 1        entry F          line   348 file /home/kchung25/anaconda3/envs/p415env/share/psi4/basis/aug-cc-pvtz-jkfit.gbs 
    atoms 2, 5     entry O          line   286 file /home/kchung25/anaconda3/envs/p415env/share/psi4/basis/aug-cc-pvtz-jkfit.gbs 
    atoms 3-4, 6-7 entry H          line    70 file /home/kchung25/anaconda3/envs/p415env/share/psi4/basis/aug-cc-pvtz-jkfit.gbs 

  ==> Integral Setup <==

  DFHelper Memory: AOs need 0.198 GiB; user supplied 41.910 GiB. 
  Using in-core AOs.

  ==> MemDFJK: Density-Fitted J/K Matrices <==

    J tasked:                   Yes
    K tasked:                   Yes
    wK tasked:                   No
    OpenMP threads:               6
    Memory [MiB]:             42915
    Algorithm:                 Core
    Schwarz Cutoff:           1E-12
    Mask sparsity (%):       6.0529
    Fitting Condition:        1E-10

   => Auxiliary Basis Set <=

  Basis Set: (AUG-CC-PVTZ AUX)
    Blend: AUG-CC-PVTZ-JKFIT
    Number of shells: 146
    Number of basis functions: 496
    Number of Cartesian functions: 613
    Spherical Harmonics?: true
    Max angular momentum: 4

  Minimum eigenvalue in the overlap matrix is 2.9384976257E-04.
  Reciprocal condition number of the overlap matrix is 3.1820158175E-05.
    Using symmetric orthogonalization.

  ==> Pre-Iterations <==

  SCF Guess: Superposition of Atomic Densities via on-the-fly atomic UHF (no occupation information).

   -------------------------
    Irrep   Nso     Nmo    
   -------------------------
     A        230     230 
   -------------------------
    Total     230     230
   -------------------------

  ==> Iterations <==

                           Total Energy        Delta E     RMS |[F,P]|

   @DF-RHF iter SAD:   -98.82535130167099   -9.88254e+01   0.00000e+00 
   @DF-RHF iter   1:   -99.33788520881035   -5.12534e-01   2.37466e-03 DIIS/ADIIS
   @DF-RHF iter   2:   -99.37399155974697   -3.61064e-02   2.30677e-03 DIIS/ADIIS
   @DF-RHF iter   3:   -99.45075567448983   -7.67641e-02   7.82326e-05 DIIS
   @DF-RHF iter   4:   -99.45082522180421   -6.95473e-05   2.77584e-05 DIIS
   @DF-RHF iter   5:   -99.45083577057075   -1.05488e-05   2.15850e-06 DIIS
   @DF-RHF iter   6:   -99.45083591283753   -1.42267e-07   1.59334e-07 DIIS
   @DF-RHF iter   7:   -99.45083591397116   -1.13363e-09   2.89640e-08 DIIS
   @DF-RHF iter   8:   -99.45083591405968   -8.85194e-11   7.46308e-09 DIIS
  Energy and wave function converged.


  ==> Post-Iterations <==

    Orbital Energies [Eh]
    ---------------------

    Doubly Occupied:                                                      

       1A    -25.833776     2A     -1.076049     3A     -0.180994  
       4A     -0.180983     5A     -0.180972  

    Virtual:                                                              

       6A      0.117653     7A      0.134463     8A      0.165345  
       9A      0.190701    10A      0.231781    11A      0.243801  
      12A      0.252469    13A      0.258198    14A      0.265063  
      15A      0.296537    16A      0.303139    17A      0.314954  
      18A      0.367991    19A      0.385814    20A      0.409521  
      21A      0.410889    22A      0.429466    23A      0.444590  
      24A      0.449343    25A      0.461596    26A      0.471996  
      27A      0.494508    28A      0.500515    29A      0.504208  
      30A      0.520052    31A      0.537960    32A      0.542572  
      33A      0.606672    34A      0.615850    35A      0.628563  
      36A      0.667458    37A      0.691228    38A      0.782746  
      39A      0.805885    40A      0.821945    41A      0.867247  
      42A      0.879906    43A      0.901618    44A      0.903255  
      45A      0.927790    46A      0.939990    47A      0.964241  
      48A      0.966793    49A      0.976302    50A      0.989482  
      51A      0.997713    52A      1.000944    53A      1.033129  
      54A      1.046053    55A      1.062590    56A      1.079030  
      57A      1.091962    58A      1.106328    59A      1.129235  
      60A      1.131951    61A      1.158382    62A      1.160319  
      63A      1.195119    64A      1.218456    65A      1.225296  
      66A      1.239080    67A      1.245312    68A      1.255971  
      69A      1.305571    70A      1.306674    71A      1.354018  
      72A      1.378781    73A      1.383921    74A      1.420829  
      75A      1.422128    76A      1.487946    77A      1.492657  
      78A      1.512705    79A      1.538582    80A      1.538845  
      81A      1.609174    82A      1.615688    83A      1.623390  
      84A      1.638309    85A      1.757263    86A      1.780291  
      87A      1.847107    88A      1.859647    89A      1.864605  
      90A      1.867426    91A      1.893714    92A      1.912330  
      93A      1.973066    94A      1.992640    95A      1.998058  
      96A      2.062482    97A      2.095457    98A      2.222381  
      99A      2.238079   100A      2.316813   101A      2.533390  
     102A      2.573744   103A      2.578003   104A      2.585899  
     105A      2.654903   106A      2.677057   107A      2.677808  
     108A      2.702553   109A      2.708317   110A      2.751988  
     111A      2.767851   112A      2.776991   113A      2.820220  
     114A      2.855475   115A      2.900562   116A      2.986079  
     117A      3.028224   118A      3.068487   119A      3.256050  
     120A      3.271918   121A      3.295672   122A      3.299436  
     123A      3.303355   124A      3.308852   125A      3.313353  
     126A      3.318148   127A      3.329162   128A      3.333916  
     129A      3.337102   130A      3.343694   131A      3.362578  
     132A      3.366765   133A      3.388822   134A      3.409024  
     135A      3.440562   136A      3.473105   137A      3.496004  
     138A      3.506184   139A      3.611350   140A      3.663177  
     141A      3.668465   142A      3.748265   143A      3.899995  
     144A      3.933622   145A      4.524132   146A      4.532482  
     147A      4.546891   148A      4.599180   149A      4.618361  
     150A      4.641055   151A      4.717268   152A      4.723833  
     153A      4.798088   154A      4.822568   155A      4.832807  
     156A      4.967919   157A      5.003662   158A      5.007028  
     159A      5.032961   160A      5.108076   161A      5.111564  
     162A      5.164999   163A      5.358191   164A      5.411913  
     165A      5.621632   166A      5.633438   167A      5.649101  
     168A      5.667318   169A      5.689287   170A      5.743775  
     171A      5.766690   172A      5.769002   173A      5.821039  
     174A      5.961612   175A      5.983245   176A      6.266048  
     177A      6.266873   178A      6.476460   179A      6.501257  
     180A      6.608184   181A      6.663141   182A      7.111570  
     183A      7.133923   184A      7.854346   185A      7.868788  
     186A      7.960033   187A      7.992784   188A      8.128008  
     189A      8.207169   190A      8.238855   191A      8.260378  
     192A      8.378615   193A      8.391266   194A      8.731258  
     195A      8.805557   196A      8.880440   197A      8.917949  
     198A      9.275777   199A      9.277093   200A      9.281468  
     201A      9.283664   202A      9.283729   203A      9.314880  
     204A      9.347008   205A      9.733897   206A      9.752237  
     207A      9.765873   208A      9.775149   209A      9.794432  
     210A      9.875802   211A      9.885211   212A     10.000462  
     213A     10.020626   214A     10.144767   215A     10.157385  
     216A     10.395392   217A     10.411233   218A     11.150601  
     219A     11.179351   220A     11.432043   221A     11.756046  
     222A     11.769143   223A     12.017399   224A     12.067551  
     225A     13.501031   226A     13.616210   227A     13.972201  
     228A     14.011519   229A     63.307937   230A     64.306702  

    Final Occupation by Irrep:
              A 
    DOCC [     5 ]
    NA   [     5 ]
    NB   [     5 ]

  @DF-RHF Final Energy:   -99.45083591405968

   => Energetics <=

    Nuclear Repulsion Energy =              0.0000000000000000
    One-Electron Energy =                -143.9961234786456714
    Two-Electron Energy =                  44.5452875645859905
    Total Energy =                        -99.4508359140596809

Computation Completed


Properties will be evaluated at   0.000000,   0.000000,   0.000000 [a0]

Properties computed using the SCF density matrix


 Multipole Moments:

 ------------------------------------------------------------------------------------
     Multipole            Electronic (a.u.)      Nuclear  (a.u.)        Total (a.u.)
 ------------------------------------------------------------------------------------

 L = 1.  Multiply by 2.5417464519 to convert [e a0] to [Debye]
 Dipole X            :        -65.8031486           59.2239109           -6.5792376
 Dipole Y            :          0.0000000            0.0000000            0.0000000
 Dipole Z            :          0.0000000            0.0000000            0.0000000
 Magnitude           :                                                    6.5792376

 ------------------------------------------------------------------------------------

*** tstop() called on moses-razer at Sat Dec 30 16:55:00 2023
Module time:
	user time   =       5.65 seconds =       0.09 minutes
	system time =       0.20 seconds =       0.00 minutes
	total time  =          1 seconds =       0.02 minutes
Total time:
	user time   =      14.95 seconds =       0.25 minutes
	system time =       0.68 seconds =       0.01 minutes
	total time  =          3 seconds =       0.05 minutes

*** tstart() called on moses-razer
*** at Sat Dec 30 16:55:00 2023


  //>>>>>>>>>>>>>>>>>>>>>>>>>>>>>>>>>>>//
  //               DFMP2               //
  //<<<<<<<<<<<<<<<<<<<<<<<<<<<<<<<<<<<//

   => Loading Basis Set <=

    Name: (AUG-CC-PVTZ AUX)
    Role: RIFIT
    Keyword: DF_BASIS_MP2
    atoms 1        entry F          line   322 file /home/kchung25/anaconda3/envs/p415env/share/psi4/basis/aug-cc-pvtz-ri.gbs 
    atoms 2, 5     entry O          line   264 file /home/kchung25/anaconda3/envs/p415env/share/psi4/basis/aug-cc-pvtz-ri.gbs 
    atoms 3-4, 6-7 entry H          line    30 file /home/kchung25/anaconda3/envs/p415env/share/psi4/basis/aug-cc-pvtz-ri.gbs 

	 --------------------------------------------------------
	                          DF-MP2                         
	      2nd-Order Density-Fitted Moller-Plesset Theory     
	              RMP2 Wavefunction,   6 Threads             
	                                                         
	        Rob Parrish, Justin Turney, Andy Simmonett,      
	           Ed Hohenstein, and C. David Sherrill          
	 --------------------------------------------------------

   => Auxiliary Basis Set <=

  Basis Set: (AUG-CC-PVTZ AUX)
    Blend: AUG-CC-PVTZ-RI
    Number of shells: 140
    Number of basis functions: 502
    Number of Cartesian functions: 628
    Spherical Harmonics?: true
    Max angular momentum: 4

	 --------------------------------------------------------
	                 NBF =   230, NAUX =   502
	 --------------------------------------------------------
	   CLASS    FOCC     OCC    AOCC    AVIR     VIR    FVIR
	   PAIRS       0       5       5     225     225       0
	 --------------------------------------------------------

	-----------------------------------------------------------
	 ==================> DF-MP2 Energies <==================== 
	-----------------------------------------------------------
	 Reference Energy          =     -99.4508359140596809 [Eh]
	 Singles Energy            =      -0.0000000000000000 [Eh]
	 Same-Spin Energy          =      -0.0816115499125739 [Eh]
	 Opposite-Spin Energy      =      -0.2265245395348459 [Eh]
	 Correlation Energy        =      -0.3081360894474199 [Eh]
	 Total Energy              =     -99.7589720035070968 [Eh]
	-----------------------------------------------------------
	 ================> DF-SCS-MP2 Energies <================== 
	-----------------------------------------------------------
	 SCS Same-Spin Scale       =       0.3333333333333333 [-]
	 SCS Opposite-Spin Scale   =       1.2000000000000000 [-]
	 SCS Same-Spin Energy      =      -0.0272038499708580 [Eh]
	 SCS Opposite-Spin Energy  =      -0.2718294474418151 [Eh]
	 SCS Correlation Energy    =      -0.2990332974126731 [Eh]
	 SCS Total Energy          =     -99.7498692114723582 [Eh]
	-----------------------------------------------------------


*** tstop() called on moses-razer at Sat Dec 30 16:55:00 2023
Module time:
	user time   =       2.41 seconds =       0.04 minutes
	system time =       0.09 seconds =       0.00 minutes
	total time  =          0 seconds =       0.00 minutes
Total time:
	user time   =      17.36 seconds =       0.29 minutes
	system time =       0.77 seconds =       0.01 minutes
	total time  =          3 seconds =       0.05 minutes

    Psi4 stopped on: Saturday, 30 December 2023 04:55PM
    Psi4 wall time for execution: 0:00:01.51


    -----------------------------------------------------------------------
          Psi4: An Open-Source Ab Initio Electronic Structure Package
                               Psi4 1.9 release

                         Git: Rev {} zzzzzzz 


    D. G. A. Smith, L. A. Burns, A. C. Simmonett, R. M. Parrish,
    M. C. Schieber, R. Galvelis, P. Kraus, H. Kruse, R. Di Remigio,
    A. Alenaizan, A. M. James, S. Lehtola, J. P. Misiewicz, M. Scheurer,
    R. A. Shaw, J. B. Schriber, Y. Xie, Z. L. Glick, D. A. Sirianni,
    J. S. O'Brien, J. M. Waldrop, A. Kumar, E. G. Hohenstein,
    B. P. Pritchard, B. R. Brooks, H. F. Schaefer III, A. Yu. Sokolov,
    K. Patkowski, A. E. DePrince III, U. Bozkaya, R. A. King,
    F. A. Evangelista, J. M. Turney, T. D. Crawford, C. D. Sherrill,
    J. Chem. Phys. 152(18) 184108 (2020). https://doi.org/10.1063/5.0006002

                            Additional Code Authors
    E. T. Seidl, C. L. Janssen, E. F. Valeev, M. L. Leininger,
    J. F. Gonthier, R. M. Richard, H. R. McAlexander, M. Saitow, X. Wang,
    P. Verma, M. H. Lechner, A. Jiang, S. Behnle, A. G. Heide,
    M. F. Herbst, and D. L. Poole

             Previous Authors, Complete List of Code Contributors,
                       and Citations for Specific Modules
    https://github.com/psi4/psi4/blob/master/codemeta.json
    https://github.com/psi4/psi4/graphs/contributors
    http://psicode.org/psi4manual/master/introduction.html#citing-psifour

    -----------------------------------------------------------------------


    Psi4 started on: Saturday, 30 December 2023 04:54PM

    Process ID: 211020
    Host:       moses-razer
    PSIDATADIR: /home/kchung25/anaconda3/envs/psi4_19/share/psi4
    Memory:     55.9 GiB
    Threads:    6
    
  ==> Input QCSchema <==

--------------------------------------------------------------------------
{'driver': 'energy',
 'extras': {'psiapi': True, 'wfn_qcvars_only': True},
 'id': None,
 'keywords': {'SCF_TYPE': 'DF', 'function_kwargs': {}},
 'model': {'basis': 'aug-cc-pvtz', 'method': 'mp2'},
 'molecule': {'atom_labels': ['', '', '', '', '', '', ''],
              'atomic_numbers': [9, 8, 1, 1, 8, 1, 1],
              'extras': {},
              'fix_com': True,
              'fix_orientation': True,
              'fix_symmetry': 'c1',
              'fragment_charges': [-1.0, 0.0],
              'fragment_multiplicities': [1, 1],
              'fragments': [[0], [1, 2, 3, 4, 5, 6]],
              'geometry': [6.580434549687257, 0.0, 0.0, 0.0, -0.013891376748240494, 3.4205705829777084,
                           -1.1405612105552012, 1.1908317049446304, 2.696582489244557, 1.4031537734965702,
                           -0.05197880680684302, 2.1145619604125496, 0.0, 0.013891376748240494, -3.4205705829777084,
                           -1.1405612105552012, -1.1908317049446304, -2.696582489244557, 1.4031537734965702,
                           0.05197880680684302, -2.1145619604125496],
              'mass_numbers': [19, 16, 1, 1, 16, 1, 1],
              'masses': [18.99840316273, 15.99491461957, 1.00782503223, 1.00782503223, 15.99491461957, 1.00782503223,
                         1.00782503223],
              'molecular_charge': -1.0,
              'molecular_multiplicity': 1,
              'name': 'dimer',
              'provenance': {'creator': 'QCElemental',
                             'routine': 'qcelemental.molparse.from_string',
                             'version': '0.27.1'},
              'real': [True, True, True, True, True, True, True],
              'schema_name': 'qcschema_molecule',
              'schema_version': 2,
              'symbols': ['F', 'O', 'H', 'H', 'O', 'H', 'H'],
              'validated': True},
 'protocols': {'stdout': True},
 'provenance': {'creator': 'QCElemental', 'routine': 'qcelemental.models.results', 'version': '0.27.1'},
 'schema_name': 'qcschema_input',
 'schema_version': 1}
--------------------------------------------------------------------------

Scratch directory: /scratch/
   => Libint2 <=

    Primary   basis highest AM E, G, H:  5, 4, 3
    Auxiliary basis highest AM E, G, H:  6, 5, 4
    Onebody   basis highest AM E, G, H:  6, 5, 4
    Solid Harmonics ordering:            gaussian

*** tstart() called on moses-razer
*** at Sat Dec 30 16:55:00 2023

   => Loading Basis Set <=

    Name: AUG-CC-PVTZ
    Role: ORBITAL
    Keyword: BASIS
    atoms 1        entry F          line   377 file /home/kchung25/anaconda3/envs/p415env/share/psi4/basis/aug-cc-pvtz.gbs 
    atoms 2, 5     entry O          line   331 file /home/kchung25/anaconda3/envs/p415env/share/psi4/basis/aug-cc-pvtz.gbs 
    atoms 3-4, 6-7 entry H          line    40 file /home/kchung25/anaconda3/envs/p415env/share/psi4/basis/aug-cc-pvtz.gbs 


         ---------------------------------------------------------
                                   SCF
               by Justin Turney, Rob Parrish, Andy Simmonett
                          and Daniel G. A. Smith
                              RHF Reference
                        6 Threads,  57220 MiB Core
         ---------------------------------------------------------

  ==> Geometry <==

    Molecular point group: c1
    Full point group: C2

    Geometry (in Bohr), charge = -1, multiplicity = 1:

       Center              X                  Y                   Z               Mass       
    ------------   -----------------  -----------------  -----------------  -----------------
         F            6.580434549687     0.000000000000     0.000000000000    18.998403162730
         O            0.000000000000    -0.013891376748     3.420570582978    15.994914619570
         H           -1.140561210555     1.190831704945     2.696582489245     1.007825032230
         H            1.403153773497    -0.051978806807     2.114561960413     1.007825032230
         O            0.000000000000     0.013891376748    -3.420570582978    15.994914619570
         H           -1.140561210555    -1.190831704945    -2.696582489245     1.007825032230
         H            1.403153773497     0.051978806807    -2.114561960413     1.007825032230

  Running in c1 symmetry.

  Rotational constants: A =      0.15019  B =      0.07235  C =      0.04905 [cm^-1]
  Rotational constants: A =   4502.50685  B =   2168.96444  C =   1470.52271 [MHz]
  Nuclear repulsion =   58.138555888903326

  Charge       = -1
  Multiplicity = 1
  Electrons    = 30
  Nalpha       = 15
  Nbeta        = 15

  ==> Algorithm <==

  SCF Algorithm Type is DF.
  DIIS enabled.
  MOM disabled.
  Fractional occupation disabled.
  Guess Type is SAD.
  Energy threshold   = 1.00e-08
  Density threshold  = 1.00e-08
  Integral threshold = 1.00e-12

  ==> Primary Basis <==

  Basis Set: AUG-CC-PVTZ
    Blend: AUG-CC-PVTZ
    Number of shells: 78
    Number of basis functions: 230
    Number of Cartesian functions: 265
    Spherical Harmonics?: true
    Max angular momentum: 3

   => Loading Basis Set <=

    Name: (AUG-CC-PVTZ AUX)
    Role: JKFIT
    Keyword: DF_BASIS_SCF
    atoms 1        entry F          line   348 file /home/kchung25/anaconda3/envs/p415env/share/psi4/basis/aug-cc-pvtz-jkfit.gbs 
    atoms 2, 5     entry O          line   286 file /home/kchung25/anaconda3/envs/p415env/share/psi4/basis/aug-cc-pvtz-jkfit.gbs 
    atoms 3-4, 6-7 entry H          line    70 file /home/kchung25/anaconda3/envs/p415env/share/psi4/basis/aug-cc-pvtz-jkfit.gbs 

  ==> Integral Setup <==

  DFHelper Memory: AOs need 0.198 GiB; user supplied 41.910 GiB. 
  Using in-core AOs.

  ==> MemDFJK: Density-Fitted J/K Matrices <==

    J tasked:                   Yes
    K tasked:                   Yes
    wK tasked:                   No
    OpenMP threads:               6
    Memory [MiB]:             42915
    Algorithm:                 Core
    Schwarz Cutoff:           1E-12
    Mask sparsity (%):       6.0529
    Fitting Condition:        1E-10

   => Auxiliary Basis Set <=

  Basis Set: (AUG-CC-PVTZ AUX)
    Blend: AUG-CC-PVTZ-JKFIT
    Number of shells: 146
    Number of basis functions: 496
    Number of Cartesian functions: 613
    Spherical Harmonics?: true
    Max angular momentum: 4

  Minimum eigenvalue in the overlap matrix is 2.9384976257E-04.
  Reciprocal condition number of the overlap matrix is 3.1820158175E-05.
    Using symmetric orthogonalization.

  ==> Pre-Iterations <==

  SCF Guess: Superposition of Atomic Densities via on-the-fly atomic UHF (no occupation information).

   -------------------------
    Irrep   Nso     Nmo    
   -------------------------
     A        230     230 
   -------------------------
    Total     230     230
   -------------------------

  ==> Iterations <==

                           Total Energy        Delta E     RMS |[F,P]|

   @DF-RHF iter SAD:  -249.76450135078994   -2.49765e+02   0.00000e+00 
   @DF-RHF iter   1:  -251.31424430899139   -1.54974e+00   3.66564e-03 DIIS/ADIIS
   @DF-RHF iter   2:  -251.44893151903588   -1.34687e-01   2.98848e-03 DIIS/ADIIS
   @DF-RHF iter   3:  -251.58500197462550   -1.36070e-01   2.18411e-04 DIIS/ADIIS
   @DF-RHF iter   4:  -251.58606253188441   -1.06056e-03   1.23318e-04 DIIS/ADIIS
   @DF-RHF iter   5:  -251.58636731685843   -3.04785e-04   1.93465e-05 DIIS
   @DF-RHF iter   6:  -251.58638371611210   -1.63993e-05   4.81373e-06 DIIS
   @DF-RHF iter   7:  -251.58638511635297   -1.40024e-06   1.10103e-06 DIIS
   @DF-RHF iter   8:  -251.58638520950936   -9.31564e-08   2.56726e-07 DIIS
   @DF-RHF iter   9:  -251.58638521321666   -3.70730e-09   4.55498e-08 DIIS
   @DF-RHF iter  10:  -251.58638521333000   -1.13346e-10   9.09707e-09 DIIS
  Energy and wave function converged.


  ==> Post-Iterations <==

    Orbital Energies [Eh]
    ---------------------

    Doubly Occupied:                                                      

       1A    -25.864258     2A    -20.445633     3A    -20.445632  
       4A     -1.216705     5A     -1.214276     6A     -1.106704  
       7A     -0.572028     8A     -0.567420     9A     -0.466566  
      10A     -0.454046    11A     -0.384946    12A     -0.381183  
      13A     -0.211784    14A     -0.211670    15A     -0.211450  

    Virtual:                                                              

      16A      0.119136    17A      0.135818    18A      0.174592  
      19A      0.193199    20A      0.241801    21A      0.260528  
      22A      0.274328    23A      0.282215    24A      0.283690  
      25A      0.318569    26A      0.324223    27A      0.327554  
      28A      0.362371    29A      0.368230    30A      0.372303  
      31A      0.382680    32A      0.407186    33A      0.425220  
      34A      0.432962    35A      0.455709    36A      0.458020  
      37A      0.485954    38A      0.520585    39A      0.523599  
      40A      0.535989    41A      0.560312    42A      0.568802  
      43A      0.577672    44A      0.629516    45A      0.660514  
      46A      0.681155    47A      0.691796    48A      0.736945  
      49A      0.789184    50A      0.811884    51A      0.814146  
      52A      0.835769    53A      0.838120    54A      0.855887  
      55A      0.875215    56A      0.878694    57A      0.917221  
      58A      0.938383    59A      0.993785    60A      0.994761  
      61A      1.022911    62A      1.029958    63A      1.045872  
      64A      1.046820    65A      1.055993    66A      1.086078  
      67A      1.087584    68A      1.117869    69A      1.130775  
      70A      1.144909    71A      1.150064    72A      1.155218  
      73A      1.168282    74A      1.170476    75A      1.194593  
      76A      1.222852    77A      1.235858    78A      1.248946  
      79A      1.294149    80A      1.319596    81A      1.345225  
      82A      1.361098    83A      1.367561    84A      1.375127  
      85A      1.393463    86A      1.407851    87A      1.446226  
      88A      1.457217    89A      1.478655    90A      1.496952  
      91A      1.502007    92A      1.516551    93A      1.590986  
      94A      1.650874    95A      1.662406    96A      1.671423  
      97A      1.699585    98A      1.733230    99A      1.748969  
     100A      1.818782   101A      1.818898   102A      1.956029  
     103A      1.978074   104A      2.018023   105A      2.031338  
     106A      2.149393   107A      2.172133   108A      2.236495  
     109A      2.322577   110A      2.392305   111A      2.413364  
     112A      2.468561   113A      2.484637   114A      2.497755  
     115A      2.498203   116A      2.516269   117A      2.566867  
     118A      2.587532   119A      2.621705   120A      2.634502  
     121A      2.691728   122A      2.713624   123A      2.738345  
     124A      2.832257   125A      2.860213   126A      2.866304  
     127A      2.884280   128A      2.896211   129A      2.935240  
     130A      2.946415   131A      2.982541   132A      3.035793  
     133A      3.042996   134A      3.062323   135A      3.268308  
     136A      3.270749   137A      3.284282   138A      3.304126  
     139A      3.307349   140A      3.316548   141A      3.324023  
     142A      3.331036   143A      3.337092   144A      3.348674  
     145A      3.519272   146A      3.534711   147A      3.763940  
     148A      3.854567   149A      3.882132   150A      3.966002  
     151A      4.182913   152A      4.183140   153A      4.283460  
     154A      4.298924   155A      4.312396   156A      4.322002  
     157A      4.372633   158A      4.400440   159A      4.406581  
     160A      4.439420   161A      4.499300   162A      4.514745  
     163A      4.527191   164A      4.531015   165A      4.566609  
     166A      4.605768   167A      4.648623   168A      4.727839  
     169A      4.867215   170A      4.913480   171A      4.952856  
     172A      4.982821   173A      5.205833   174A      5.215040  
     175A      5.236236   176A      5.311280   177A      5.341309  
     178A      5.396104   179A      5.426536   180A      5.438351  
     181A      5.613731   182A      5.616330   183A      5.655757  
     184A      5.717140   185A      5.728002   186A      5.769260  
     187A      5.813948   188A      6.347972   189A      6.367471  
     190A      6.662120   191A      6.663794   192A      6.912592  
     193A      6.914403   194A      7.034470   195A      7.053409  
     196A      7.212147   197A      7.270834   198A      7.351786  
     199A      7.400396   200A      7.408888   201A      7.411006  
     202A      7.431500   203A      7.437818   204A      7.497654  
     205A      7.505010   206A      7.525141   207A      7.530764  
     208A      7.638676   209A      7.699079   210A      7.980238  
     211A      8.010633   212A      8.044128   213A      8.077243  
     214A      8.809052   215A      8.834874   216A      9.246480  
     217A      9.248048   218A      9.251909   219A      9.253155  
     220A      9.253610   221A      9.284629   222A      9.311368  
     223A      9.736871   224A      9.741137   225A      9.760065  
     226A      9.843563   227A      9.857240   228A     11.403628  
     229A     15.159517   230A     15.597792  

    Final Occupation by Irrep:
              A 
    DOCC [    15 ]
    NA   [    15 ]
    NB   [    15 ]

  @DF-RHF Final Energy:  -251.58638521333000

   => Energetics <=

    Nuclear Repulsion Energy =             58.1385558889033263
    One-Electron Energy =                -471.9412773437697410
    Two-Electron Energy =                 162.2163362415363963
    Total Energy =                       -251.5863852133300043

Computation Completed


Properties will be evaluated at   0.000000,   0.000000,   0.000000 [a0]

Properties computed using the SCF density matrix


 Multipole Moments:

 ------------------------------------------------------------------------------------
     Multipole            Electronic (a.u.)      Nuclear  (a.u.)        Total (a.u.)
 ------------------------------------------------------------------------------------

 L = 1.  Multiply by 2.5417464519 to convert [e a0] to [Debye]
 Dipole X            :        -65.7716469           59.7490961           -6.0225509
 Dipole Y            :         -0.0000000            0.0000000           -0.0000000
 Dipole Z            :         -0.0000000            0.0000000           -0.0000000
 Magnitude           :                                                    6.0225509

 ------------------------------------------------------------------------------------

*** tstop() called on moses-razer at Sat Dec 30 16:55:02 2023
Module time:
	user time   =       6.67 seconds =       0.11 minutes
	system time =       0.27 seconds =       0.00 minutes
	total time  =          2 seconds =       0.03 minutes
Total time:
	user time   =      24.34 seconds =       0.41 minutes
	system time =       1.04 seconds =       0.02 minutes
	total time  =          5 seconds =       0.08 minutes

*** tstart() called on moses-razer
*** at Sat Dec 30 16:55:02 2023


  //>>>>>>>>>>>>>>>>>>>>>>>>>>>>>>>>>>>//
  //               DFMP2               //
  //<<<<<<<<<<<<<<<<<<<<<<<<<<<<<<<<<<<//

   => Loading Basis Set <=

    Name: (AUG-CC-PVTZ AUX)
    Role: RIFIT
    Keyword: DF_BASIS_MP2
    atoms 1        entry F          line   322 file /home/kchung25/anaconda3/envs/p415env/share/psi4/basis/aug-cc-pvtz-ri.gbs 
    atoms 2, 5     entry O          line   264 file /home/kchung25/anaconda3/envs/p415env/share/psi4/basis/aug-cc-pvtz-ri.gbs 
    atoms 3-4, 6-7 entry H          line    30 file /home/kchung25/anaconda3/envs/p415env/share/psi4/basis/aug-cc-pvtz-ri.gbs 

	 --------------------------------------------------------
	                          DF-MP2                         
	      2nd-Order Density-Fitted Moller-Plesset Theory     
	              RMP2 Wavefunction,   6 Threads             
	                                                         
	        Rob Parrish, Justin Turney, Andy Simmonett,      
	           Ed Hohenstein, and C. David Sherrill          
	 --------------------------------------------------------

   => Auxiliary Basis Set <=

  Basis Set: (AUG-CC-PVTZ AUX)
    Blend: AUG-CC-PVTZ-RI
    Number of shells: 140
    Number of basis functions: 502
    Number of Cartesian functions: 628
    Spherical Harmonics?: true
    Max angular momentum: 4

	 --------------------------------------------------------
	                 NBF =   230, NAUX =   502
	 --------------------------------------------------------
	   CLASS    FOCC     OCC    AOCC    AVIR     VIR    FVIR
	   PAIRS       0      15      15     215     215       0
	 --------------------------------------------------------

	-----------------------------------------------------------
	 ==================> DF-MP2 Energies <==================== 
	-----------------------------------------------------------
	 Reference Energy          =    -251.5863852133300043 [Eh]
	 Singles Energy            =      -0.0000000000000000 [Eh]
	 Same-Spin Energy          =      -0.2205288620844479 [Eh]
	 Opposite-Spin Energy      =      -0.6613424323908925 [Eh]
	 Correlation Energy        =      -0.8818712944753404 [Eh]
	 Total Energy              =    -252.4682565078053358 [Eh]
	-----------------------------------------------------------
	 ================> DF-SCS-MP2 Energies <================== 
	-----------------------------------------------------------
	 SCS Same-Spin Scale       =       0.3333333333333333 [-]
	 SCS Opposite-Spin Scale   =       1.2000000000000000 [-]
	 SCS Same-Spin Energy      =      -0.0735096206948160 [Eh]
	 SCS Opposite-Spin Energy  =      -0.7936109188690710 [Eh]
	 SCS Correlation Energy    =      -0.8671205395638869 [Eh]
	 SCS Total Energy          =    -252.4535057528939035 [Eh]
	-----------------------------------------------------------


*** tstop() called on moses-razer at Sat Dec 30 16:55:02 2023
Module time:
	user time   =       2.82 seconds =       0.05 minutes
	system time =       0.13 seconds =       0.00 minutes
	total time  =          0 seconds =       0.00 minutes
Total time:
	user time   =      27.16 seconds =       0.45 minutes
	system time =       1.17 seconds =       0.02 minutes
	total time  =          5 seconds =       0.08 minutes

    Psi4 stopped on: Saturday, 30 December 2023 04:55PM
    Psi4 wall time for execution: 0:00:01.75


  //>>>>>>>>>>>>>>>>>>>>>>>>>>>>>>>>>>>//
  //          ManyBody Results         //
  //<<<<<<<<<<<<<<<<<<<<<<<<<<<<<<<<<<<//


   ==> N-Body: Counterpoise Corrected (CP) energies <==

        n-Body     Total Energy            Interaction Energy                          N-body Contribution to Interaction Energy
                   [Eh]                    [Eh]                  [kcal/mol]            [Eh]                  [kcal/mol]
             1  N/A                         0.000000000000        0.000000000000        0.000000000000        0.000000000000
  FULL/RTN   2  N/A                        -0.027262320404      -17.107364330378       -0.027262320404      -17.107364330378


    Psi4 stopped on: Saturday, 30 December 2023 04:55PM
    Psi4 wall time for execution: 0:00:06.64

*** Psi4 exiting successfully. Buy a developer a beer!
