
    -----------------------------------------------------------------------
          Psi4: An Open-Source Ab Initio Electronic Structure Package
                               Psi4 1.8.2 release

                         Git: Rev {} zzzzzzz 


    D. G. A. Smith, L. A. Burns, A. C. Simmonett, R. M. Parrish,
    M. C. Schieber, R. Galvelis, P. Kraus, H. Kruse, R. Di Remigio,
    A. Alenaizan, A. M. James, S. Lehtola, J. P. Misiewicz, M. Scheurer,
    R. A. Shaw, J. B. Schriber, Y. Xie, Z. L. Glick, D. A. Sirianni,
    J. S. O'Brien, J. M. Waldrop, A. Kumar, E. G. Hohenstein,
    B. P. Pritchard, B. R. Brooks, H. F. Schaefer III, A. Yu. Sokolov,
    K. Patkowski, A. E. DePrince III, U. Bozkaya, R. A. King,
    F. A. Evangelista, J. M. Turney, T. D. Crawford, C. D. Sherrill,
    J. Chem. Phys. 152(18) 184108 (2020). https://doi.org/10.1063/5.0006002

                            Additional Code Authors
    E. T. Seidl, C. L. Janssen, E. F. Valeev, M. L. Leininger,
    J. F. Gonthier, R. M. Richard, H. R. McAlexander, M. Saitow, X. Wang,
    P. Verma, M. H. Lechner, A. Jiang, S. Behnle, A. G. Heide,
    M. F. Herbst, and D. L. Poole

             Previous Authors, Complete List of Code Contributors,
                       and Citations for Specific Modules
    https://github.com/psi4/psi4/blob/master/codemeta.json
    https://github.com/psi4/psi4/graphs/contributors
    http://psicode.org/psi4manual/master/introduction.html#citing-psifour

    -----------------------------------------------------------------------


    Psi4 started on: Monday, 22 January 2024 11:18AM

    Process ID: 38643
    Host:       ddmfs1
    PSIDATADIR: /ddmfs1b/softs/psi4conda/share/psi4
    Memory:     500.0 MiB
    Threads:    20
    
  ==> Input File <==

--------------------------------------------------------------------------
MEMORY 60 GB

molecule dimer {
0 1
Gh(F)      2.611662     0.000000     0.000000
O          0.000000    -0.007351     1.810088
H         -0.603559     0.630161     1.426970
H          0.742517    -0.027506     1.118978
Gh(O)      0.000000     0.007351    -1.810088
Gh(H)     -0.603559    -0.630161    -1.426970
Gh(H)      0.742517     0.027506    -1.118978

units ang
no_reorient
no_com
symmetry c1
}

set {
basis        aug-cc-pVTZ
scf_type     df
}

energy("mp2")
--------------------------------------------------------------------------

  Memory set to  55.879 GiB by Python driver.

Scratch directory: /ddmfs1a/scratch/
   => Libint2 <=

    Primary   basis highest AM E, G, H:  5, 4, 3
    Auxiliary basis highest AM E, G, H:  6, 5, 4
    Onebody   basis highest AM E, G, H:  6, 5, 4
    Solid Harmonics ordering:            gaussian

*** tstart() called on ddmfs1
*** at Mon Jan 22 11:18:32 2024

   => Loading Basis Set <=

    Name: AUG-CC-PVTZ
    Role: ORBITAL
    Keyword: BASIS
    atoms 1        entry F          line   377 file /ddmfs1b/softs/psi4conda/share/psi4/basis/aug-cc-pvtz.gbs 
    atoms 2, 5     entry O          line   331 file /ddmfs1b/softs/psi4conda/share/psi4/basis/aug-cc-pvtz.gbs 
    atoms 3-4, 6-7 entry H          line    40 file /ddmfs1b/softs/psi4conda/share/psi4/basis/aug-cc-pvtz.gbs 


         ---------------------------------------------------------
                                   SCF
               by Justin Turney, Rob Parrish, Andy Simmonett
                          and Daniel G. A. Smith
                              RHF Reference
                       20 Threads,  57220 MiB Core
         ---------------------------------------------------------

  ==> Geometry <==

    Molecular point group: c1
    Full point group: C1

    Geometry (in Angstrom), charge = 0, multiplicity = 1:

       Center              X                  Y                   Z               Mass       
    ------------   -----------------  -----------------  -----------------  -----------------
      Gh(F)           2.611662000000     0.000000000000     0.000000000000    18.998403162730
         O            0.000000000000    -0.007351000000     1.810088000000    15.994914619570
         H           -0.603559000000     0.630161000000     1.426970000000     1.007825032230
         H            0.742517000000    -0.027506000000     1.118978000000     1.007825032230
      Gh(O)           0.000000000000     0.007351000000    -1.810088000000    15.994914619570
      Gh(H)          -0.603559000000    -0.630161000000    -1.426970000000     1.007825032230
      Gh(H)           0.742517000000     0.027506000000    -1.118978000000     1.007825032230

  Running in c1 symmetry.

  Rotational constants: A =      0.15019  B =      0.12750  C =      0.06941 [cm^-1]
  Rotational constants: A =   4502.50685  B =   3822.33736  C =   2080.72889 [MHz]
  Nuclear repulsion =    8.938260071000265

  Charge       = 0
  Multiplicity = 1
  Electrons    = 10
  Nalpha       = 5
  Nbeta        = 5

  ==> Algorithm <==

  SCF Algorithm Type is DF.
  DIIS enabled.
  MOM disabled.
  Fractional occupation disabled.
  Guess Type is SAD.
  Energy threshold   = 1.00e-08
  Density threshold  = 1.00e-08
  Integral threshold = 1.00e-12

  ==> Primary Basis <==

  Basis Set: AUG-CC-PVTZ
    Blend: AUG-CC-PVTZ
    Number of shells: 78
    Number of basis functions: 230
    Number of Cartesian functions: 265
    Spherical Harmonics?: true
    Max angular momentum: 3

   => Loading Basis Set <=

    Name: (AUG-CC-PVTZ AUX)
    Role: JKFIT
    Keyword: DF_BASIS_SCF
    atoms 1        entry F          line   348 file /ddmfs1b/softs/psi4conda/share/psi4/basis/aug-cc-pvtz-jkfit.gbs 
    atoms 2, 5     entry O          line   286 file /ddmfs1b/softs/psi4conda/share/psi4/basis/aug-cc-pvtz-jkfit.gbs 
    atoms 3-4, 6-7 entry H          line    70 file /ddmfs1b/softs/psi4conda/share/psi4/basis/aug-cc-pvtz-jkfit.gbs 

  ==> Integral Setup <==

  DFHelper Memory: AOs need 0.209 GiB; user supplied 41.910 GiB. 
  Using in-core AOs.

  ==> MemDFJK: Density-Fitted J/K Matrices <==

    J tasked:                   Yes
    K tasked:                   Yes
    wK tasked:                   No
    OpenMP threads:              20
    Memory [MiB]:             42915
    Algorithm:                 Core
    Schwarz Cutoff:           1E-12
    Mask sparsity (%):       3.5803
    Fitting Condition:        1E-10

   => Auxiliary Basis Set <=

  Basis Set: (AUG-CC-PVTZ AUX)
    Blend: AUG-CC-PVTZ-JKFIT
    Number of shells: 146
    Number of basis functions: 496
    Number of Cartesian functions: 613
    Spherical Harmonics?: true
    Max angular momentum: 4

  Minimum eigenvalue in the overlap matrix is 2.7245101097E-04.
  Reciprocal condition number of the overlap matrix is 2.8424860248E-05.
    Using symmetric orthogonalization.

  ==> Pre-Iterations <==

  SCF Guess: Superposition of Atomic Densities via on-the-fly atomic UHF (no occupation information).

   -------------------------
    Irrep   Nso     Nmo    
   -------------------------
     A        230     230 
   -------------------------
    Total     230     230
   -------------------------

  ==> Iterations <==

                           Total Energy        Delta E     RMS |[F,P]|

   @DF-RHF iter SAD:   -75.44645632818839   -7.54465e+01   0.00000e+00 
   @DF-RHF iter   1:   -75.96926247536888   -5.22806e-01   2.03249e-03 DIIS/ADIIS
   @DF-RHF iter   2:   -76.02114955243677   -5.18871e-02   1.43364e-03 DIIS/ADIIS
   @DF-RHF iter   3:   -76.05515813503638   -3.40086e-02   9.79392e-05 DIIS
   @DF-RHF iter   4:   -76.05559196289467   -4.33828e-04   2.49640e-05 DIIS
   @DF-RHF iter   5:   -76.05562367964617   -3.17168e-05   5.93065e-06 DIIS
   @DF-RHF iter   6:   -76.05562645781785   -2.77817e-06   1.29395e-06 DIIS
   @DF-RHF iter   7:   -76.05562659926525   -1.41447e-07   2.19008e-07 DIIS
   @DF-RHF iter   8:   -76.05562660272057   -3.45531e-09   3.81708e-08 DIIS
   @DF-RHF iter   9:   -76.05562660280653   -8.59615e-11   9.95365e-09 DIIS
  Energy and wave function converged.


  ==> Post-Iterations <==

    Orbital Energies [Eh]
    ---------------------

    Doubly Occupied:                                                      

       1A    -20.573329     2A     -1.341803     3A     -0.697229  
       4A     -0.584550     5A     -0.508991  

    Virtual:                                                              

       6A      0.021228     7A      0.044997     8A      0.048356  
       9A      0.058017    10A      0.113112    11A      0.119148  
      12A      0.136349    13A      0.154765    14A      0.158621  
      15A      0.163763    16A      0.175133    17A      0.183002  
      18A      0.202897    19A      0.208205    20A      0.236996  
      21A      0.239091    22A      0.265787    23A      0.273186  
      24A      0.287729    25A      0.299891    26A      0.316838  
      27A      0.342587    28A      0.350178    29A      0.366862  
      30A      0.381085    31A      0.397498    32A      0.412778  
      33A      0.446298    34A      0.463484    35A      0.472388  
      36A      0.504582    37A      0.571377    38A      0.607538  
      39A      0.655590    40A      0.674722    41A      0.685891  
      42A      0.706464    43A      0.715944    44A      0.729527  
      45A      0.756389    46A      0.763422    47A      0.782899  
      48A      0.785555    49A      0.804126    50A      0.820284  
      51A      0.829764    52A      0.845807    53A      0.858516  
      54A      0.874225    55A      0.885822    56A      0.908907  
      57A      0.922624    58A      0.927290    59A      0.944598  
      60A      0.959727    61A      0.962760    62A      0.993977  
      63A      1.015897    64A      1.021422    65A      1.040814  
      66A      1.043797    67A      1.050872    68A      1.072756  
      69A      1.081401    70A      1.095862    71A      1.128893  
      72A      1.158044    73A      1.178366    74A      1.231993  
      75A      1.241817    76A      1.280208    77A      1.281722  
      78A      1.296695    79A      1.333999    80A      1.369784  
      81A      1.382411    82A      1.412463    83A      1.469860  
      84A      1.493765    85A      1.545761    86A      1.562591  
      87A      1.601679    88A      1.633853    89A      1.662069  
      90A      1.708177    91A      1.753563    92A      1.756497  
      93A      1.782740    94A      1.843531    95A      1.883021  
      96A      1.894733    97A      1.913477    98A      2.041823  
      99A      2.103381   100A      2.313420   101A      2.333207  
     102A      2.382249   103A      2.412116   104A      2.425415  
     105A      2.444031   106A      2.463744   107A      2.488829  
     108A      2.527053   109A      2.567582   110A      2.585620  
     111A      2.625171   112A      2.628636   113A      2.656046  
     114A      2.708245   115A      2.735093   116A      2.759832  
     117A      2.791817   118A      2.839840   119A      2.864971  
     120A      2.915846   121A      2.949718   122A      3.023222  
     123A      3.088622   124A      3.102681   125A      3.126290  
     126A      3.128305   127A      3.151655   128A      3.171486  
     129A      3.202422   130A      3.243423   131A      3.263043  
     132A      3.319859   133A      3.350072   134A      3.456339  
     135A      3.503133   136A      3.536253   137A      3.601086  
     138A      3.636951   139A      3.666131   140A      3.699111  
     141A      3.738141   142A      3.753120   143A      3.765146  
     144A      3.866541   145A      3.987488   146A      4.076147  
     147A      4.077196   148A      4.176058   149A      4.232886  
     150A      4.271894   151A      4.292964   152A      4.379300  
     153A      4.390250   154A      4.404121   155A      4.454972  
     156A      4.472521   157A      4.478165   158A      4.577677  
     159A      4.583082   160A      4.688371   161A      4.756901  
     162A      4.821234   163A      4.868389   164A      4.915597  
     165A      4.929858   166A      4.958737   167A      5.086934  
     168A      5.156388   169A      5.246038   170A      5.315095  
     171A      5.321432   172A      5.463839   173A      5.486270  
     174A      5.495911   175A      5.626012   176A      5.639579  
     177A      5.825217   178A      6.117521   179A      6.248035  
     180A      6.342914   181A      6.518868   182A      6.541305  
     183A      6.798582   184A      6.928215   185A      6.985080  
     186A      7.121061   187A      7.262137   188A      7.281662  
     189A      7.311703   190A      7.382076   191A      7.442574  
     192A      7.594780   193A      7.723645   194A      7.837866  
     195A      7.902893   196A      7.939800   197A      8.032472  
     198A      8.112107   199A      8.238355   200A      8.678375  
     201A      8.703303   202A      8.785837   203A      9.612104  
     204A      9.853929   205A      9.951245   206A     10.038869  
     207A     10.143497   208A     10.162699   209A     10.210637  
     210A     10.256041   211A     10.295845   212A     10.331250  
     213A     10.387659   214A     10.460514   215A     11.048886  
     216A     11.638556   217A     11.960380   218A     12.972242  
     219A     12.983881   220A     13.021468   221A     13.058412  
     222A     13.097014   223A     13.463507   224A     13.906218  
     225A     14.260825   226A     14.563574   227A     14.671580  
     228A     15.697570   229A     64.393897   230A     69.147451  

    Final Occupation by Irrep:
              A 
    DOCC [     5 ]
    NA   [     5 ]
    NB   [     5 ]

  @DF-RHF Final Energy:   -76.05562660280653

   => Energetics <=

    Nuclear Repulsion Energy =              8.9382600710002649
    One-Electron Energy =                -122.5759648012276983
    Two-Electron Energy =                  37.5820781274208997
    Total Energy =                        -76.0556266028065266

Computation Completed


Properties will be evaluated at   0.000000,   0.000000,   0.000000 [a0]

Properties computed using the SCF density matrix


 Multipole Moments:

 ------------------------------------------------------------------------------------
     Multipole            Electronic (a.u.)      Nuclear  (a.u.)        Total (a.u.)
 ------------------------------------------------------------------------------------

 L = 1.  Multiply by 2.5417464519 to convert [e a0] to [Debye]
 Dipole X            :         -0.1816306            0.2625926            0.0809619
 Dipole Y            :         -0.6228613            1.0277219            0.4048606
 Dipole Z            :        -32.8703383           32.1757091           -0.6946292
 Magnitude           :                                                    0.8080697

 ------------------------------------------------------------------------------------

*** tstop() called on ddmfs1 at Mon Jan 22 11:18:34 2024
Module time:
	user time   =      18.49 seconds =       0.31 minutes
	system time =       0.89 seconds =       0.01 minutes
	total time  =          2 seconds =       0.03 minutes
Total time:
	user time   =      18.49 seconds =       0.31 minutes
	system time =       0.89 seconds =       0.01 minutes
	total time  =          2 seconds =       0.03 minutes

*** tstart() called on ddmfs1
*** at Mon Jan 22 11:18:34 2024


  //>>>>>>>>>>>>>>>>>>>>>>>>>>>>>>>>>>>//
  //               DFMP2               //
  //<<<<<<<<<<<<<<<<<<<<<<<<<<<<<<<<<<<//

   => Loading Basis Set <=

    Name: (AUG-CC-PVTZ AUX)
    Role: RIFIT
    Keyword: DF_BASIS_MP2
    atoms 1        entry F          line   322 file /ddmfs1b/softs/psi4conda/share/psi4/basis/aug-cc-pvtz-ri.gbs 
    atoms 2, 5     entry O          line   264 file /ddmfs1b/softs/psi4conda/share/psi4/basis/aug-cc-pvtz-ri.gbs 
    atoms 3-4, 6-7 entry H          line    30 file /ddmfs1b/softs/psi4conda/share/psi4/basis/aug-cc-pvtz-ri.gbs 

	 --------------------------------------------------------
	                          DF-MP2                         
	      2nd-Order Density-Fitted Moller-Plesset Theory     
	              RMP2 Wavefunction,  20 Threads             
	                                                         
	        Rob Parrish, Justin Turney, Andy Simmonett,      
	           Ed Hohenstein, and C. David Sherrill          
	 --------------------------------------------------------

   => Auxiliary Basis Set <=

  Basis Set: (AUG-CC-PVTZ AUX)
    Blend: AUG-CC-PVTZ-RI
    Number of shells: 140
    Number of basis functions: 502
    Number of Cartesian functions: 628
    Spherical Harmonics?: true
    Max angular momentum: 4

	 --------------------------------------------------------
	                 NBF =   230, NAUX =   502
	 --------------------------------------------------------
	   CLASS    FOCC     OCC    AOCC    AVIR     VIR    FVIR
	   PAIRS       0       5       5     225     225       0
	 --------------------------------------------------------

	-----------------------------------------------------------
	 ==================> DF-MP2 Energies <==================== 
	-----------------------------------------------------------
	 Reference Energy          =     -76.0556266028065266 [Eh]
	 Singles Energy            =      -0.0000000000000000 [Eh]
	 Same-Spin Energy          =      -0.0689372808917496 [Eh]
	 Opposite-Spin Energy      =      -0.2174049911406450 [Eh]
	 Correlation Energy        =      -0.2863422720323946 [Eh]
	 Total Energy              =     -76.3419688748389262 [Eh]
	-----------------------------------------------------------
	 ================> DF-SCS-MP2 Energies <================== 
	-----------------------------------------------------------
	 SCS Same-Spin Scale       =       0.3333333333333333 [-]
	 SCS Opposite-Spin Scale   =       1.2000000000000000 [-]
	 SCS Same-Spin Energy      =      -0.0229790936305832 [Eh]
	 SCS Opposite-Spin Energy  =      -0.2608859893687741 [Eh]
	 SCS Correlation Energy    =      -0.2838650829993573 [Eh]
	 SCS Total Energy          =     -76.3394916858058821 [Eh]
	-----------------------------------------------------------


*** tstop() called on ddmfs1 at Mon Jan 22 11:18:34 2024
Module time:
	user time   =       7.02 seconds =       0.12 minutes
	system time =       0.32 seconds =       0.01 minutes
	total time  =          0 seconds =       0.00 minutes
Total time:
	user time   =      25.53 seconds =       0.43 minutes
	system time =       1.21 seconds =       0.02 minutes
	total time  =          2 seconds =       0.03 minutes

    Psi4 stopped on: Monday, 22 January 2024 11:18AM
    Psi4 wall time for execution: 0:00:02.00

*** Psi4 exiting successfully. Buy a developer a beer!
