
    -----------------------------------------------------------------------
          Psi4: An Open-Source Ab Initio Electronic Structure Package
                               Psi4 1.8.2 release

                         Git: Rev {} zzzzzzz 


    D. G. A. Smith, L. A. Burns, A. C. Simmonett, R. M. Parrish,
    M. C. Schieber, R. Galvelis, P. Kraus, H. Kruse, R. Di Remigio,
    A. Alenaizan, A. M. James, S. Lehtola, J. P. Misiewicz, M. Scheurer,
    R. A. Shaw, J. B. Schriber, Y. Xie, Z. L. Glick, D. A. Sirianni,
    J. S. O'Brien, J. M. Waldrop, A. Kumar, E. G. Hohenstein,
    B. P. Pritchard, B. R. Brooks, H. F. Schaefer III, A. Yu. Sokolov,
    K. Patkowski, A. E. DePrince III, U. Bozkaya, R. A. King,
    F. A. Evangelista, J. M. Turney, T. D. Crawford, C. D. Sherrill,
    J. Chem. Phys. 152(18) 184108 (2020). https://doi.org/10.1063/5.0006002

                            Additional Code Authors
    E. T. Seidl, C. L. Janssen, E. F. Valeev, M. L. Leininger,
    J. F. Gonthier, R. M. Richard, H. R. McAlexander, M. Saitow, X. Wang,
    P. Verma, M. H. Lechner, A. Jiang, S. Behnle, A. G. Heide,
    M. F. Herbst, and D. L. Poole

             Previous Authors, Complete List of Code Contributors,
                       and Citations for Specific Modules
    https://github.com/psi4/psi4/blob/master/codemeta.json
    https://github.com/psi4/psi4/graphs/contributors
    http://psicode.org/psi4manual/master/introduction.html#citing-psifour

    -----------------------------------------------------------------------


    Psi4 started on: Monday, 22 January 2024 03:14AM

    Process ID: 29069
    Host:       ddmfs1
    PSIDATADIR: /ddmfs1b/softs/psi4conda/share/psi4
    Memory:     500.0 MiB
    Threads:    20
    
  ==> Input File <==

--------------------------------------------------------------------------
MEMORY 60 GB

molecule dimer {
-1 1
F      2.089330     0.000000     0.000000
--
0 1
O      0.000000    -0.007351     1.810088
H     -0.603559     0.630161     1.426970
H      0.742517    -0.027506     1.118978
--
0 1
O      0.000000     0.007351    -1.810088
H     -0.603559    -0.630161    -1.426970
H      0.742517     0.027506    -1.118978

units ang
no_reorient
no_com
symmetry c1
}

set {
basis        aug-cc-pVTZ
scf_type     df
}

energy("mp2", bsse_type="cp")
--------------------------------------------------------------------------

  Memory set to  55.879 GiB by Python driver.

Scratch directory: /ddmfs1a/scratch/

  //>>>>>>>>>>>>>>>>>>>>>>>>>>>>>>>>>>>>>>>>//
  // ManyBody Setup: N-Body Levels [1, 2, 3]//
  //<<<<<<<<<<<<<<<<<<<<<<<<<<<<<<<<<<<<<<<<//

        Number of 1-body computations:     3
        Number of 2-body computations:     3
        Number of 3-body computations:     1

    -----------------------------------------------------------------------
          Psi4: An Open-Source Ab Initio Electronic Structure Package
                               Psi4 1.8.2 release

                         Git: Rev {} zzzzzzz 


    D. G. A. Smith, L. A. Burns, A. C. Simmonett, R. M. Parrish,
    M. C. Schieber, R. Galvelis, P. Kraus, H. Kruse, R. Di Remigio,
    A. Alenaizan, A. M. James, S. Lehtola, J. P. Misiewicz, M. Scheurer,
    R. A. Shaw, J. B. Schriber, Y. Xie, Z. L. Glick, D. A. Sirianni,
    J. S. O'Brien, J. M. Waldrop, A. Kumar, E. G. Hohenstein,
    B. P. Pritchard, B. R. Brooks, H. F. Schaefer III, A. Yu. Sokolov,
    K. Patkowski, A. E. DePrince III, U. Bozkaya, R. A. King,
    F. A. Evangelista, J. M. Turney, T. D. Crawford, C. D. Sherrill,
    J. Chem. Phys. 152(18) 184108 (2020). https://doi.org/10.1063/5.0006002

                            Additional Code Authors
    E. T. Seidl, C. L. Janssen, E. F. Valeev, M. L. Leininger,
    J. F. Gonthier, R. M. Richard, H. R. McAlexander, M. Saitow, X. Wang,
    P. Verma, M. H. Lechner, A. Jiang, S. Behnle, A. G. Heide,
    M. F. Herbst, and D. L. Poole

             Previous Authors, Complete List of Code Contributors,
                       and Citations for Specific Modules
    https://github.com/psi4/psi4/blob/master/codemeta.json
    https://github.com/psi4/psi4/graphs/contributors
    http://psicode.org/psi4manual/master/introduction.html#citing-psifour

    -----------------------------------------------------------------------


    Psi4 started on: Monday, 22 January 2024 03:14AM

    Process ID: 29069
    Host:       ddmfs1
    PSIDATADIR: /ddmfs1b/softs/psi4conda/share/psi4
    Memory:     55.9 GiB
    Threads:    20
    
  ==> Input QCSchema <==

--------------------------------------------------------------------------
{'driver': 'energy',
 'extras': {'psiapi': True, 'wfn_qcvars_only': True},
 'id': None,
 'keywords': {'SCF_TYPE': 'DF', 'function_kwargs': {}},
 'model': {'basis': 'aug-cc-pvtz', 'method': 'mp2'},
 'molecule': {'atom_labels': ['', '', '', '', '', '', ''],
              'atomic_numbers': [9, 8, 1, 1, 8, 1, 1],
              'extras': {},
              'fix_com': True,
              'fix_orientation': True,
              'fix_symmetry': 'c1',
              'fragment_charges': [-1.0, 0.0, 0.0],
              'fragment_multiplicities': [1, 1, 1],
              'fragments': [[0], [1, 2, 3], [4, 5, 6]],
              'geometry': [3.9482614857028038, 0.0, 0.0, 0.0, -0.013891376748240494, 3.4205705829777084,
                           -1.1405612105552012, 1.1908317049446304, 2.696582489244557, 1.4031537734965702,
                           -0.05197880680684302, 2.1145619604125496, 0.0, 0.013891376748240494, -3.4205705829777084,
                           -1.1405612105552012, -1.1908317049446304, -2.696582489244557, 1.4031537734965702,
                           0.05197880680684302, -2.1145619604125496],
              'mass_numbers': [19, 16, 1, 1, 16, 1, 1],
              'masses': [18.99840316273, 15.99491461957, 1.00782503223, 1.00782503223, 15.99491461957, 1.00782503223,
                         1.00782503223],
              'molecular_charge': -1.0,
              'molecular_multiplicity': 1,
              'name': 'dimer',
              'provenance': {'creator': 'QCElemental',
                             'routine': 'qcelemental.molparse.from_string',
                             'version': '0.26.0'},
              'real': [True, False, False, False, False, False, False],
              'schema_name': 'qcschema_molecule',
              'schema_version': 2,
              'symbols': ['F', 'O', 'H', 'H', 'O', 'H', 'H'],
              'validated': True},
 'protocols': {'stdout': True},
 'provenance': {'creator': 'QCElemental', 'routine': 'qcelemental.models.results', 'version': '0.26.0'},
 'schema_name': 'qcschema_input',
 'schema_version': 1}
--------------------------------------------------------------------------

Scratch directory: /ddmfs1a/scratch/
   => Libint2 <=

    Primary   basis highest AM E, G, H:  5, 4, 3
    Auxiliary basis highest AM E, G, H:  6, 5, 4
    Onebody   basis highest AM E, G, H:  6, 5, 4
    Solid Harmonics ordering:            gaussian

*** tstart() called on ddmfs1
*** at Mon Jan 22 03:14:57 2024

   => Loading Basis Set <=

    Name: AUG-CC-PVTZ
    Role: ORBITAL
    Keyword: BASIS
    atoms 1        entry F          line   377 file /ddmfs1b/softs/psi4conda/share/psi4/basis/aug-cc-pvtz.gbs 
    atoms 2, 5     entry O          line   331 file /ddmfs1b/softs/psi4conda/share/psi4/basis/aug-cc-pvtz.gbs 
    atoms 3-4, 6-7 entry H          line    40 file /ddmfs1b/softs/psi4conda/share/psi4/basis/aug-cc-pvtz.gbs 


         ---------------------------------------------------------
                                   SCF
               by Justin Turney, Rob Parrish, Andy Simmonett
                          and Daniel G. A. Smith
                              RHF Reference
                       20 Threads,  57220 MiB Core
         ---------------------------------------------------------

  ==> Geometry <==

    Molecular point group: c1
    Full point group: C2

    Geometry (in Bohr), charge = -1, multiplicity = 1:

       Center              X                  Y                   Z               Mass       
    ------------   -----------------  -----------------  -----------------  -----------------
         F            3.948261485703     0.000000000000     0.000000000000    18.998403162730
      Gh(O)           0.000000000000    -0.013891376748     3.420570582978    15.994914619570
      Gh(H)          -1.140561210555     1.190831704945     2.696582489245     1.007825032230
      Gh(H)           1.403153773497    -0.051978806807     2.114561960413     1.007825032230
      Gh(O)           0.000000000000     0.013891376748    -3.420570582978    15.994914619570
      Gh(H)          -1.140561210555    -1.190831704945    -2.696582489245     1.007825032230
      Gh(H)           1.403153773497     0.051978806807    -2.114561960413     1.007825032230

  Running in c1 symmetry.

  Rotational constants: A =      0.19701  B =      0.15019  C =      0.08591 [cm^-1]
  Rotational constants: A =   5906.23055  B =   4502.50685  C =   2575.37137 [MHz]
  Nuclear repulsion =    0.000000000000000

  Charge       = -1
  Multiplicity = 1
  Electrons    = 10
  Nalpha       = 5
  Nbeta        = 5

  ==> Algorithm <==

  SCF Algorithm Type is DF.
  DIIS enabled.
  MOM disabled.
  Fractional occupation disabled.
  Guess Type is SAD.
  Energy threshold   = 1.00e-08
  Density threshold  = 1.00e-08
  Integral threshold = 1.00e-12

  ==> Primary Basis <==

  Basis Set: AUG-CC-PVTZ
    Blend: AUG-CC-PVTZ
    Number of shells: 78
    Number of basis functions: 230
    Number of Cartesian functions: 265
    Spherical Harmonics?: true
    Max angular momentum: 3

   => Loading Basis Set <=

    Name: (AUG-CC-PVTZ AUX)
    Role: JKFIT
    Keyword: DF_BASIS_SCF
    atoms 1        entry F          line   348 file /ddmfs1b/softs/psi4conda/share/psi4/basis/aug-cc-pvtz-jkfit.gbs 
    atoms 2, 5     entry O          line   286 file /ddmfs1b/softs/psi4conda/share/psi4/basis/aug-cc-pvtz-jkfit.gbs 
    atoms 3-4, 6-7 entry H          line    70 file /ddmfs1b/softs/psi4conda/share/psi4/basis/aug-cc-pvtz-jkfit.gbs 

  ==> Integral Setup <==

  DFHelper Memory: AOs need 0.212 GiB; user supplied 41.910 GiB. 
  Using in-core AOs.

  ==> MemDFJK: Density-Fitted J/K Matrices <==

    J tasked:                   Yes
    K tasked:                   Yes
    wK tasked:                   No
    OpenMP threads:              20
    Memory [MiB]:             42915
    Algorithm:                 Core
    Schwarz Cutoff:           1E-12
    Mask sparsity (%):       2.0302
    Fitting Condition:        1E-10

   => Auxiliary Basis Set <=

  Basis Set: (AUG-CC-PVTZ AUX)
    Blend: AUG-CC-PVTZ-JKFIT
    Number of shells: 146
    Number of basis functions: 496
    Number of Cartesian functions: 613
    Spherical Harmonics?: true
    Max angular momentum: 4

  Minimum eigenvalue in the overlap matrix is 2.4813944712E-04.
  Reciprocal condition number of the overlap matrix is 2.5020020446E-05.
    Using symmetric orthogonalization.

  ==> Pre-Iterations <==

  SCF Guess: Superposition of Atomic Densities via on-the-fly atomic UHF (no occupation information).

   -------------------------
    Irrep   Nso     Nmo    
   -------------------------
     A        230     230 
   -------------------------
    Total     230     230
   -------------------------

  ==> Iterations <==

                           Total Energy        Delta E     RMS |[F,P]|

   @DF-RHF iter SAD:   -98.82535135110984   -9.88254e+01   0.00000e+00 
   @DF-RHF iter   1:   -99.33784751837773   -5.12496e-01   2.37439e-03 DIIS/ADIIS
   @DF-RHF iter   2:   -99.37344231991673   -3.55948e-02   2.31415e-03 DIIS/ADIIS
   @DF-RHF iter   3:   -99.45085951222924   -7.74172e-02   7.81405e-05 DIIS
   @DF-RHF iter   4:   -99.45092982536862   -7.03131e-05   2.80944e-05 DIIS
   @DF-RHF iter   5:   -99.45094043963120   -1.06143e-05   1.96441e-06 DIIS
   @DF-RHF iter   6:   -99.45094055762353   -1.17992e-07   1.83246e-07 DIIS
   @DF-RHF iter   7:   -99.45094055902482   -1.40129e-09   2.84235e-08 DIIS
   @DF-RHF iter   8:   -99.45094055909591   -7.10969e-11   7.46188e-09 DIIS
  Energy and wave function converged.


  ==> Post-Iterations <==

    Orbital Energies [Eh]
    ---------------------

    Doubly Occupied:                                                      

       1A    -25.833768     2A     -1.076008     3A     -0.180998  
       4A     -0.180985     5A     -0.180931  

    Virtual:                                                              

       6A      0.134730     7A      0.148120     8A      0.175657  
       9A      0.193957    10A      0.259957    11A      0.264661  
      12A      0.273176    13A      0.274229    14A      0.288981  
      15A      0.312932    16A      0.323764    17A      0.338624  
      18A      0.389495    19A      0.395706    20A      0.427588  
      21A      0.443105    22A      0.446724    23A      0.467699  
      24A      0.479907    25A      0.490506    26A      0.505363  
      27A      0.523606    28A      0.536505    29A      0.559618  
      30A      0.588202    31A      0.589226    32A      0.593678  
      33A      0.646151    34A      0.661010    35A      0.687562  
      36A      0.730197    37A      0.739660    38A      0.858923  
      39A      0.873679    40A      0.886374    41A      0.899405  
      42A      0.927538    43A      0.942491    44A      0.948763  
      45A      0.960999    46A      0.984942    47A      1.008570  
      48A      1.011570    49A      1.028970    50A      1.043404  
      51A      1.043778    52A      1.054351    53A      1.081353  
      54A      1.090310    55A      1.118970    56A      1.124447  
      57A      1.146288    58A      1.153321    59A      1.181532  
      60A      1.211089    61A      1.223225    62A      1.249878  
      63A      1.274639    64A      1.294987    65A      1.333873  
      66A      1.351781    67A      1.357213    68A      1.364912  
      69A      1.429682    70A      1.437137    71A      1.450672  
      72A      1.466490    73A      1.497932    74A      1.534602  
      75A      1.587346    76A      1.590983    77A      1.599320  
      78A      1.631273    79A      1.656783    80A      1.658858  
      81A      1.756945    82A      1.841031    83A      1.845394  
      84A      1.850343    85A      1.903807    86A      1.915772  
      87A      1.920939    88A      1.944773    89A      1.988589  
      90A      2.015792    91A      2.022193    92A      2.038791  
      93A      2.089674    94A      2.104472    95A      2.138775  
      96A      2.186423    97A      2.350771    98A      2.378926  
      99A      2.441154   100A      2.599878   101A      2.634432  
     102A      2.658234   103A      2.680903   104A      2.703839  
     105A      2.722560   106A      2.732705   107A      2.802753  
     108A      2.803582   109A      2.817531   110A      2.820500  
     111A      2.883515   112A      2.883818   113A      2.916585  
     114A      2.945246   115A      3.085798   116A      3.134358  
     117A      3.142244   118A      3.207396   119A      3.326932  
     120A      3.329008   121A      3.368488   122A      3.369148  
     123A      3.403671   124A      3.411430   125A      3.418544  
     126A      3.418905   127A      3.471309   128A      3.492745  
     129A      3.538931   130A      3.561577   131A      3.574131  
     132A      3.606773   133A      3.637039   134A      3.681781  
     135A      3.719739   136A      3.734090   137A      3.747337  
     138A      3.802434   139A      3.843062   140A      3.856898  
     141A      3.952348   142A      3.978345   143A      4.242929  
     144A      4.346239   145A      4.604123   146A      4.609932  
     147A      4.643305   148A      4.681916   149A      4.739700  
     150A      4.760051   151A      4.830040   152A      4.846809  
     153A      4.900350   154A      4.929895   155A      5.033347  
     156A      5.038774   157A      5.073683   158A      5.121989  
     159A      5.138184   160A      5.272606   161A      5.278282  
     162A      5.425537   163A      5.501113   164A      5.527230  
     165A      5.736248   166A      5.749012   167A      5.755536  
     168A      5.799452   169A      5.816020   170A      5.828652  
     171A      5.915680   172A      6.091890   173A      6.102287  
     174A      6.230770   175A      6.294120   176A      6.447818  
     177A      6.506256   178A      6.597459   179A      6.666278  
     180A      6.759754   181A      6.822966   182A      7.201756  
     183A      7.226839   184A      7.915530   185A      7.931774  
     186A      8.028610   187A      8.059162   188A      8.190355  
     189A      8.275896   190A      8.312772   191A      8.346651  
     192A      8.439716   193A      8.458007   194A      8.896214  
     195A      8.908323   196A      8.981704   197A      9.053626  
     198A      9.351673   199A      9.435574   200A      9.473854  
     201A      9.507387   202A      9.573132   203A      9.630873  
     204A      9.832242   205A      9.832974   206A      9.874349  
     207A      9.891786   208A      9.913021   209A      9.925195  
     210A      9.989954   211A     10.003312   212A     10.064957  
     213A     10.091114   214A     10.273598   215A     10.277067  
     216A     10.548303   217A     10.564368   218A     11.272480  
     219A     11.434202   220A     11.904247   221A     11.908628  
     222A     12.119964   223A     12.325292   224A     13.516381  
     225A     13.797322   226A     14.084524   227A     14.129928  
     228A     14.684551   229A     65.247954   230A     65.630980  

    Final Occupation by Irrep:
              A 
    DOCC [     5 ]
    NA   [     5 ]
    NB   [     5 ]

  @DF-RHF Final Energy:   -99.45094055909591

   => Energetics <=

    Nuclear Repulsion Energy =              0.0000000000000000
    One-Electron Energy =                -143.9965032626856782
    Two-Electron Energy =                  44.5455627035897663
    Total Energy =                        -99.4509405590959119

Computation Completed


Properties will be evaluated at   0.000000,   0.000000,   0.000000 [a0]

Properties computed using the SCF density matrix


 Multipole Moments:

 ------------------------------------------------------------------------------------
     Multipole            Electronic (a.u.)      Nuclear  (a.u.)        Total (a.u.)
 ------------------------------------------------------------------------------------

 L = 1.  Multiply by 2.5417464519 to convert [e a0] to [Debye]
 Dipole X            :        -39.4827407           35.5343534           -3.9483874
 Dipole Y            :         -0.0000000            0.0000000           -0.0000000
 Dipole Z            :          0.0000000            0.0000000            0.0000000
 Magnitude           :                                                    3.9483874

 ------------------------------------------------------------------------------------

*** tstop() called on ddmfs1 at Mon Jan 22 03:14:58 2024
Module time:
	user time   =      18.89 seconds =       0.31 minutes
	system time =       0.95 seconds =       0.02 minutes
	total time  =          1 seconds =       0.02 minutes
Total time:
	user time   =      18.89 seconds =       0.31 minutes
	system time =       0.95 seconds =       0.02 minutes
	total time  =          1 seconds =       0.02 minutes

*** tstart() called on ddmfs1
*** at Mon Jan 22 03:14:58 2024


  //>>>>>>>>>>>>>>>>>>>>>>>>>>>>>>>>>>>//
  //               DFMP2               //
  //<<<<<<<<<<<<<<<<<<<<<<<<<<<<<<<<<<<//

   => Loading Basis Set <=

    Name: (AUG-CC-PVTZ AUX)
    Role: RIFIT
    Keyword: DF_BASIS_MP2
    atoms 1        entry F          line   322 file /ddmfs1b/softs/psi4conda/share/psi4/basis/aug-cc-pvtz-ri.gbs 
    atoms 2, 5     entry O          line   264 file /ddmfs1b/softs/psi4conda/share/psi4/basis/aug-cc-pvtz-ri.gbs 
    atoms 3-4, 6-7 entry H          line    30 file /ddmfs1b/softs/psi4conda/share/psi4/basis/aug-cc-pvtz-ri.gbs 

	 --------------------------------------------------------
	                          DF-MP2                         
	      2nd-Order Density-Fitted Moller-Plesset Theory     
	              RMP2 Wavefunction,  20 Threads             
	                                                         
	        Rob Parrish, Justin Turney, Andy Simmonett,      
	           Ed Hohenstein, and C. David Sherrill          
	 --------------------------------------------------------

   => Auxiliary Basis Set <=

  Basis Set: (AUG-CC-PVTZ AUX)
    Blend: AUG-CC-PVTZ-RI
    Number of shells: 140
    Number of basis functions: 502
    Number of Cartesian functions: 628
    Spherical Harmonics?: true
    Max angular momentum: 4

	 --------------------------------------------------------
	                 NBF =   230, NAUX =   502
	 --------------------------------------------------------
	   CLASS    FOCC     OCC    AOCC    AVIR     VIR    FVIR
	   PAIRS       0       5       5     225     225       0
	 --------------------------------------------------------

	-----------------------------------------------------------
	 ==================> DF-MP2 Energies <==================== 
	-----------------------------------------------------------
	 Reference Energy          =     -99.4509405590959119 [Eh]
	 Singles Energy            =      -0.0000000000000000 [Eh]
	 Same-Spin Energy          =      -0.0818316490469857 [Eh]
	 Opposite-Spin Energy      =      -0.2284133293732917 [Eh]
	 Correlation Energy        =      -0.3102449784202774 [Eh]
	 Total Energy              =     -99.7611855375161838 [Eh]
	-----------------------------------------------------------
	 ================> DF-SCS-MP2 Energies <================== 
	-----------------------------------------------------------
	 SCS Same-Spin Scale       =       0.3333333333333333 [-]
	 SCS Opposite-Spin Scale   =       1.2000000000000000 [-]
	 SCS Same-Spin Energy      =      -0.0272772163489952 [Eh]
	 SCS Opposite-Spin Energy  =      -0.2740959952479501 [Eh]
	 SCS Correlation Energy    =      -0.3013732115969453 [Eh]
	 SCS Total Energy          =     -99.7523137706928509 [Eh]
	-----------------------------------------------------------


*** tstop() called on ddmfs1 at Mon Jan 22 03:14:59 2024
Module time:
	user time   =       7.16 seconds =       0.12 minutes
	system time =       0.29 seconds =       0.00 minutes
	total time  =          1 seconds =       0.02 minutes
Total time:
	user time   =      26.07 seconds =       0.43 minutes
	system time =       1.24 seconds =       0.02 minutes
	total time  =          2 seconds =       0.03 minutes

    Psi4 stopped on: Monday, 22 January 2024 03:14AM
    Psi4 wall time for execution: 0:00:01.97


    -----------------------------------------------------------------------
          Psi4: An Open-Source Ab Initio Electronic Structure Package
                               Psi4 1.8.2 release

                         Git: Rev {} zzzzzzz 


    D. G. A. Smith, L. A. Burns, A. C. Simmonett, R. M. Parrish,
    M. C. Schieber, R. Galvelis, P. Kraus, H. Kruse, R. Di Remigio,
    A. Alenaizan, A. M. James, S. Lehtola, J. P. Misiewicz, M. Scheurer,
    R. A. Shaw, J. B. Schriber, Y. Xie, Z. L. Glick, D. A. Sirianni,
    J. S. O'Brien, J. M. Waldrop, A. Kumar, E. G. Hohenstein,
    B. P. Pritchard, B. R. Brooks, H. F. Schaefer III, A. Yu. Sokolov,
    K. Patkowski, A. E. DePrince III, U. Bozkaya, R. A. King,
    F. A. Evangelista, J. M. Turney, T. D. Crawford, C. D. Sherrill,
    J. Chem. Phys. 152(18) 184108 (2020). https://doi.org/10.1063/5.0006002

                            Additional Code Authors
    E. T. Seidl, C. L. Janssen, E. F. Valeev, M. L. Leininger,
    J. F. Gonthier, R. M. Richard, H. R. McAlexander, M. Saitow, X. Wang,
    P. Verma, M. H. Lechner, A. Jiang, S. Behnle, A. G. Heide,
    M. F. Herbst, and D. L. Poole

             Previous Authors, Complete List of Code Contributors,
                       and Citations for Specific Modules
    https://github.com/psi4/psi4/blob/master/codemeta.json
    https://github.com/psi4/psi4/graphs/contributors
    http://psicode.org/psi4manual/master/introduction.html#citing-psifour

    -----------------------------------------------------------------------


    Psi4 started on: Monday, 22 January 2024 03:14AM

    Process ID: 29069
    Host:       ddmfs1
    PSIDATADIR: /ddmfs1b/softs/psi4conda/share/psi4
    Memory:     55.9 GiB
    Threads:    20
    
  ==> Input QCSchema <==

--------------------------------------------------------------------------
{'driver': 'energy',
 'extras': {'psiapi': True, 'wfn_qcvars_only': True},
 'id': None,
 'keywords': {'SCF_TYPE': 'DF', 'function_kwargs': {}},
 'model': {'basis': 'aug-cc-pvtz', 'method': 'mp2'},
 'molecule': {'atom_labels': ['', '', '', '', '', '', ''],
              'atomic_numbers': [9, 8, 1, 1, 8, 1, 1],
              'extras': {},
              'fix_com': True,
              'fix_orientation': True,
              'fix_symmetry': 'c1',
              'fragment_charges': [0.0, 0.0, 0.0],
              'fragment_multiplicities': [1, 1, 1],
              'fragments': [[0], [1, 2, 3], [4, 5, 6]],
              'geometry': [3.9482614857028038, 0.0, 0.0, 0.0, -0.013891376748240494, 3.4205705829777084,
                           -1.1405612105552012, 1.1908317049446304, 2.696582489244557, 1.4031537734965702,
                           -0.05197880680684302, 2.1145619604125496, 0.0, 0.013891376748240494, -3.4205705829777084,
                           -1.1405612105552012, -1.1908317049446304, -2.696582489244557, 1.4031537734965702,
                           0.05197880680684302, -2.1145619604125496],
              'mass_numbers': [19, 16, 1, 1, 16, 1, 1],
              'masses': [18.99840316273, 15.99491461957, 1.00782503223, 1.00782503223, 15.99491461957, 1.00782503223,
                         1.00782503223],
              'molecular_charge': 0.0,
              'molecular_multiplicity': 1,
              'name': 'dimer',
              'provenance': {'creator': 'QCElemental',
                             'routine': 'qcelemental.molparse.from_string',
                             'version': '0.26.0'},
              'real': [False, True, True, True, False, False, False],
              'schema_name': 'qcschema_molecule',
              'schema_version': 2,
              'symbols': ['F', 'O', 'H', 'H', 'O', 'H', 'H'],
              'validated': True},
 'protocols': {'stdout': True},
 'provenance': {'creator': 'QCElemental', 'routine': 'qcelemental.models.results', 'version': '0.26.0'},
 'schema_name': 'qcschema_input',
 'schema_version': 1}
--------------------------------------------------------------------------

Scratch directory: /ddmfs1a/scratch/
   => Libint2 <=

    Primary   basis highest AM E, G, H:  5, 4, 3
    Auxiliary basis highest AM E, G, H:  6, 5, 4
    Onebody   basis highest AM E, G, H:  6, 5, 4
    Solid Harmonics ordering:            gaussian

*** tstart() called on ddmfs1
*** at Mon Jan 22 03:14:59 2024

   => Loading Basis Set <=

    Name: AUG-CC-PVTZ
    Role: ORBITAL
    Keyword: BASIS
    atoms 1        entry F          line   377 file /ddmfs1b/softs/psi4conda/share/psi4/basis/aug-cc-pvtz.gbs 
    atoms 2, 5     entry O          line   331 file /ddmfs1b/softs/psi4conda/share/psi4/basis/aug-cc-pvtz.gbs 
    atoms 3-4, 6-7 entry H          line    40 file /ddmfs1b/softs/psi4conda/share/psi4/basis/aug-cc-pvtz.gbs 


         ---------------------------------------------------------
                                   SCF
               by Justin Turney, Rob Parrish, Andy Simmonett
                          and Daniel G. A. Smith
                              RHF Reference
                       20 Threads,  57220 MiB Core
         ---------------------------------------------------------

  ==> Geometry <==

    Molecular point group: c1
    Full point group: C1

    Geometry (in Bohr), charge = 0, multiplicity = 1:

       Center              X                  Y                   Z               Mass       
    ------------   -----------------  -----------------  -----------------  -----------------
      Gh(F)           3.948261485703     0.000000000000     0.000000000000    18.998403162730
         O            0.000000000000    -0.013891376748     3.420570582978    15.994914619570
         H           -1.140561210555     1.190831704945     2.696582489245     1.007825032230
         H            1.403153773497    -0.051978806807     2.114561960413     1.007825032230
      Gh(O)           0.000000000000     0.013891376748    -3.420570582978    15.994914619570
      Gh(H)          -1.140561210555    -1.190831704945    -2.696582489245     1.007825032230
      Gh(H)           1.403153773497     0.051978806807    -2.114561960413     1.007825032230

  Running in c1 symmetry.

  Rotational constants: A =      0.19701  B =      0.15019  C =      0.08591 [cm^-1]
  Rotational constants: A =   5906.23055  B =   4502.50685  C =   2575.37137 [MHz]
  Nuclear repulsion =    8.938260071000268

  Charge       = 0
  Multiplicity = 1
  Electrons    = 10
  Nalpha       = 5
  Nbeta        = 5

  ==> Algorithm <==

  SCF Algorithm Type is DF.
  DIIS enabled.
  MOM disabled.
  Fractional occupation disabled.
  Guess Type is SAD.
  Energy threshold   = 1.00e-08
  Density threshold  = 1.00e-08
  Integral threshold = 1.00e-12

  ==> Primary Basis <==

  Basis Set: AUG-CC-PVTZ
    Blend: AUG-CC-PVTZ
    Number of shells: 78
    Number of basis functions: 230
    Number of Cartesian functions: 265
    Spherical Harmonics?: true
    Max angular momentum: 3

   => Loading Basis Set <=

    Name: (AUG-CC-PVTZ AUX)
    Role: JKFIT
    Keyword: DF_BASIS_SCF
    atoms 1        entry F          line   348 file /ddmfs1b/softs/psi4conda/share/psi4/basis/aug-cc-pvtz-jkfit.gbs 
    atoms 2, 5     entry O          line   286 file /ddmfs1b/softs/psi4conda/share/psi4/basis/aug-cc-pvtz-jkfit.gbs 
    atoms 3-4, 6-7 entry H          line    70 file /ddmfs1b/softs/psi4conda/share/psi4/basis/aug-cc-pvtz-jkfit.gbs 

  ==> Integral Setup <==

  DFHelper Memory: AOs need 0.212 GiB; user supplied 41.910 GiB. 
  Using in-core AOs.

  ==> MemDFJK: Density-Fitted J/K Matrices <==

    J tasked:                   Yes
    K tasked:                   Yes
    wK tasked:                   No
    OpenMP threads:              20
    Memory [MiB]:             42915
    Algorithm:                 Core
    Schwarz Cutoff:           1E-12
    Mask sparsity (%):       2.0302
    Fitting Condition:        1E-10

   => Auxiliary Basis Set <=

  Basis Set: (AUG-CC-PVTZ AUX)
    Blend: AUG-CC-PVTZ-JKFIT
    Number of shells: 146
    Number of basis functions: 496
    Number of Cartesian functions: 613
    Spherical Harmonics?: true
    Max angular momentum: 4

  Minimum eigenvalue in the overlap matrix is 2.4813944712E-04.
  Reciprocal condition number of the overlap matrix is 2.5020020446E-05.
    Using symmetric orthogonalization.

  ==> Pre-Iterations <==

  SCF Guess: Superposition of Atomic Densities via on-the-fly atomic UHF (no occupation information).

   -------------------------
    Irrep   Nso     Nmo    
   -------------------------
     A        230     230 
   -------------------------
    Total     230     230
   -------------------------

  ==> Iterations <==

                           Total Energy        Delta E     RMS |[F,P]|

   @DF-RHF iter SAD:   -75.44645631137489   -7.54465e+01   0.00000e+00 
   @DF-RHF iter   1:   -75.96927249364560   -5.22816e-01   2.03252e-03 DIIS/ADIIS
   @DF-RHF iter   2:   -76.02116114661223   -5.18887e-02   1.43365e-03 DIIS/ADIIS
   @DF-RHF iter   3:   -76.05516798511603   -3.40068e-02   9.79405e-05 DIIS
   @DF-RHF iter   4:   -76.05560179653028   -4.33811e-04   2.49655e-05 DIIS
   @DF-RHF iter   5:   -76.05563352012085   -3.17236e-05   5.93102e-06 DIIS
   @DF-RHF iter   6:   -76.05563629850171   -2.77838e-06   1.29402e-06 DIIS
   @DF-RHF iter   7:   -76.05563643999015   -1.41488e-07   2.19107e-07 DIIS
   @DF-RHF iter   8:   -76.05563644344970   -3.45955e-09   3.81924e-08 DIIS
   @DF-RHF iter   9:   -76.05563644353565   -8.59472e-11   9.95669e-09 DIIS
  Energy and wave function converged.


  ==> Post-Iterations <==

    Orbital Energies [Eh]
    ---------------------

    Doubly Occupied:                                                      

       1A    -20.573316     2A     -1.341794     3A     -0.697223  
       4A     -0.584543     5A     -0.508985  

    Virtual:                                                              

       6A      0.021251     7A      0.044937     8A      0.048363  
       9A      0.058056    10A      0.112838    11A      0.118746  
      12A      0.138460    13A      0.154411    14A      0.158689  
      15A      0.166679    16A      0.178575    17A      0.183838  
      18A      0.207114    19A      0.208463    20A      0.236566  
      21A      0.244487    22A      0.265351    23A      0.281495  
      24A      0.296217    25A      0.311049    26A      0.316190  
      27A      0.344866    28A      0.360575    29A      0.368197  
      30A      0.387085    31A      0.406622    32A      0.414161  
      33A      0.449243    34A      0.465878    35A      0.475808  
      36A      0.502703    37A      0.565649    38A      0.631728  
      39A      0.663409    40A      0.676703    41A      0.687094  
      42A      0.711448    43A      0.721065    44A      0.729323  
      45A      0.754151    46A      0.758661    47A      0.781047  
      48A      0.789893    49A      0.804329    50A      0.833909  
      51A      0.842158    52A      0.853160    53A      0.867273  
      54A      0.881745    55A      0.902471    56A      0.913996  
      57A      0.930908    58A      0.934662    59A      0.957303  
      60A      0.964288    61A      0.989937    62A      1.018545  
      63A      1.030804    64A      1.042968    65A      1.051455  
      66A      1.054598    67A      1.079441    68A      1.107685  
      69A      1.128790    70A      1.140170    71A      1.174251  
      72A      1.221951    73A      1.234334    74A      1.257267  
      75A      1.278431    76A      1.295605    77A      1.317963  
      78A      1.338910    79A      1.345632    80A      1.436005  
      81A      1.484507    82A      1.501912    83A      1.532031  
      84A      1.547939    85A      1.559679    86A      1.612992  
      87A      1.615988    88A      1.647762    89A      1.676385  
      90A      1.719826    91A      1.764802    92A      1.790000  
      93A      1.797341    94A      1.883227    95A      1.917507  
      96A      1.937887    97A      1.991049    98A      2.075699  
      99A      2.136102   100A      2.308283   101A      2.331064  
     102A      2.417954   103A      2.435219   104A      2.454627  
     105A      2.456202   106A      2.467487   107A      2.499105  
     108A      2.533040   109A      2.579135   110A      2.599097  
     111A      2.626488   112A      2.662991   113A      2.673810  
     114A      2.696723   115A      2.733694   116A      2.764842  
     117A      2.817979   118A      2.849135   119A      2.900498  
     120A      2.957571   121A      2.976410   122A      3.045777  
     123A      3.134205   124A      3.172521   125A      3.191801  
     126A      3.209397   127A      3.215361   128A      3.237731  
     129A      3.336706   130A      3.369869   131A      3.392330  
     132A      3.413383   133A      3.443695   134A      3.462717  
     135A      3.586195   136A      3.648691   137A      3.664113  
     138A      3.687113   139A      3.743321   140A      3.774754  
     141A      3.816834   142A      3.864951   143A      3.909659  
     144A      4.042432   145A      4.075735   146A      4.133983  
     147A      4.177616   148A      4.228789   149A      4.275763  
     150A      4.301453   151A      4.341768   152A      4.391530  
     153A      4.410148   154A      4.422697   155A      4.468699  
     156A      4.486423   157A      4.505231   158A      4.593766  
     159A      4.617695   160A      4.731326   161A      4.789550  
     162A      4.863381   163A      4.879874   164A      4.954098  
     165A      5.004017   166A      5.038403   167A      5.124276  
     168A      5.249247   169A      5.278182   170A      5.320231  
     171A      5.426495   172A      5.499496   173A      5.515471  
     174A      5.530629   175A      5.634006   176A      5.702682  
     177A      5.914905   178A      6.217580   179A      6.265794  
     180A      6.386529   181A      6.532528   182A      6.562747  
     183A      6.800953   184A      6.934284   185A      6.999316  
     186A      7.135247   187A      7.268504   188A      7.284359  
     189A      7.317107   190A      7.392589   191A      7.489541  
     192A      7.614888   193A      7.727643   194A      7.844090  
     195A      7.923650   196A      7.983288   197A      8.038405  
     198A      8.121176   199A      8.248084   200A      8.702607  
     201A      8.756606   202A      8.801810   203A      9.631363  
     204A      9.873257   205A     10.046122   206A     10.194089  
     207A     10.216606   208A     10.237101   209A     10.315314  
     210A     10.375469   211A     10.445612   212A     10.530978  
     213A     10.669028   214A     11.005159   215A     11.422129  
     216A     11.703113   217A     12.169421   218A     13.010474  
     219A     13.026376   220A     13.030811   221A     13.095814  
     222A     13.134504   223A     13.583724   224A     13.921812  
     225A     14.387865   226A     14.796840   227A     14.948627  
     228A     16.094409   229A     64.964419   230A     72.503300  

    Final Occupation by Irrep:
              A 
    DOCC [     5 ]
    NA   [     5 ]
    NB   [     5 ]

  @DF-RHF Final Energy:   -76.05563644353565

   => Energetics <=

    Nuclear Repulsion Energy =              8.9382600710002684
    One-Electron Energy =                -122.5760652893097671
    Two-Electron Energy =                  37.5821687747738338
    Total Energy =                        -76.0556364435356613

Computation Completed


Properties will be evaluated at   0.000000,   0.000000,   0.000000 [a0]

Properties computed using the SCF density matrix


 Multipole Moments:

 ------------------------------------------------------------------------------------
     Multipole            Electronic (a.u.)      Nuclear  (a.u.)        Total (a.u.)
 ------------------------------------------------------------------------------------

 L = 1.  Multiply by 2.5417464519 to convert [e a0] to [Debye]
 Dipole X            :         -0.1815714            0.2625926            0.0810212
 Dipole Y            :         -0.6228535            1.0277219            0.4048684
 Dipole Z            :        -32.8703386           32.1757091           -0.6946295
 Magnitude           :                                                    0.8080798

 ------------------------------------------------------------------------------------

*** tstop() called on ddmfs1 at Mon Jan 22 03:15:00 2024
Module time:
	user time   =      17.78 seconds =       0.30 minutes
	system time =       0.70 seconds =       0.01 minutes
	total time  =          1 seconds =       0.02 minutes
Total time:
	user time   =      45.05 seconds =       0.75 minutes
	system time =       1.97 seconds =       0.03 minutes
	total time  =          3 seconds =       0.05 minutes

*** tstart() called on ddmfs1
*** at Mon Jan 22 03:15:00 2024


  //>>>>>>>>>>>>>>>>>>>>>>>>>>>>>>>>>>>//
  //               DFMP2               //
  //<<<<<<<<<<<<<<<<<<<<<<<<<<<<<<<<<<<//

   => Loading Basis Set <=

    Name: (AUG-CC-PVTZ AUX)
    Role: RIFIT
    Keyword: DF_BASIS_MP2
    atoms 1        entry F          line   322 file /ddmfs1b/softs/psi4conda/share/psi4/basis/aug-cc-pvtz-ri.gbs 
    atoms 2, 5     entry O          line   264 file /ddmfs1b/softs/psi4conda/share/psi4/basis/aug-cc-pvtz-ri.gbs 
    atoms 3-4, 6-7 entry H          line    30 file /ddmfs1b/softs/psi4conda/share/psi4/basis/aug-cc-pvtz-ri.gbs 

	 --------------------------------------------------------
	                          DF-MP2                         
	      2nd-Order Density-Fitted Moller-Plesset Theory     
	              RMP2 Wavefunction,  20 Threads             
	                                                         
	        Rob Parrish, Justin Turney, Andy Simmonett,      
	           Ed Hohenstein, and C. David Sherrill          
	 --------------------------------------------------------

   => Auxiliary Basis Set <=

  Basis Set: (AUG-CC-PVTZ AUX)
    Blend: AUG-CC-PVTZ-RI
    Number of shells: 140
    Number of basis functions: 502
    Number of Cartesian functions: 628
    Spherical Harmonics?: true
    Max angular momentum: 4

	 --------------------------------------------------------
	                 NBF =   230, NAUX =   502
	 --------------------------------------------------------
	   CLASS    FOCC     OCC    AOCC    AVIR     VIR    FVIR
	   PAIRS       0       5       5     225     225       0
	 --------------------------------------------------------

	-----------------------------------------------------------
	 ==================> DF-MP2 Energies <==================== 
	-----------------------------------------------------------
	 Reference Energy          =     -76.0556364435356471 [Eh]
	 Singles Energy            =      -0.0000000000000000 [Eh]
	 Same-Spin Energy          =      -0.0689489446246039 [Eh]
	 Opposite-Spin Energy      =      -0.2175924941146780 [Eh]
	 Correlation Energy        =      -0.2865414387392818 [Eh]
	 Total Energy              =     -76.3421778822749246 [Eh]
	-----------------------------------------------------------
	 ================> DF-SCS-MP2 Energies <================== 
	-----------------------------------------------------------
	 SCS Same-Spin Scale       =       0.3333333333333333 [-]
	 SCS Opposite-Spin Scale   =       1.2000000000000000 [-]
	 SCS Same-Spin Energy      =      -0.0229829815415346 [Eh]
	 SCS Opposite-Spin Energy  =      -0.2611109929376135 [Eh]
	 SCS Correlation Energy    =      -0.2840939744791482 [Eh]
	 SCS Total Energy          =     -76.3397304180147955 [Eh]
	-----------------------------------------------------------


*** tstop() called on ddmfs1 at Mon Jan 22 03:15:01 2024
Module time:
	user time   =       7.10 seconds =       0.12 minutes
	system time =       0.28 seconds =       0.00 minutes
	total time  =          1 seconds =       0.02 minutes
Total time:
	user time   =      52.17 seconds =       0.87 minutes
	system time =       2.25 seconds =       0.04 minutes
	total time  =          4 seconds =       0.07 minutes

    Psi4 stopped on: Monday, 22 January 2024 03:15AM
    Psi4 wall time for execution: 0:00:01.76


    -----------------------------------------------------------------------
          Psi4: An Open-Source Ab Initio Electronic Structure Package
                               Psi4 1.8.2 release

                         Git: Rev {} zzzzzzz 


    D. G. A. Smith, L. A. Burns, A. C. Simmonett, R. M. Parrish,
    M. C. Schieber, R. Galvelis, P. Kraus, H. Kruse, R. Di Remigio,
    A. Alenaizan, A. M. James, S. Lehtola, J. P. Misiewicz, M. Scheurer,
    R. A. Shaw, J. B. Schriber, Y. Xie, Z. L. Glick, D. A. Sirianni,
    J. S. O'Brien, J. M. Waldrop, A. Kumar, E. G. Hohenstein,
    B. P. Pritchard, B. R. Brooks, H. F. Schaefer III, A. Yu. Sokolov,
    K. Patkowski, A. E. DePrince III, U. Bozkaya, R. A. King,
    F. A. Evangelista, J. M. Turney, T. D. Crawford, C. D. Sherrill,
    J. Chem. Phys. 152(18) 184108 (2020). https://doi.org/10.1063/5.0006002

                            Additional Code Authors
    E. T. Seidl, C. L. Janssen, E. F. Valeev, M. L. Leininger,
    J. F. Gonthier, R. M. Richard, H. R. McAlexander, M. Saitow, X. Wang,
    P. Verma, M. H. Lechner, A. Jiang, S. Behnle, A. G. Heide,
    M. F. Herbst, and D. L. Poole

             Previous Authors, Complete List of Code Contributors,
                       and Citations for Specific Modules
    https://github.com/psi4/psi4/blob/master/codemeta.json
    https://github.com/psi4/psi4/graphs/contributors
    http://psicode.org/psi4manual/master/introduction.html#citing-psifour

    -----------------------------------------------------------------------


    Psi4 started on: Monday, 22 January 2024 03:14AM

    Process ID: 29069
    Host:       ddmfs1
    PSIDATADIR: /ddmfs1b/softs/psi4conda/share/psi4
    Memory:     55.9 GiB
    Threads:    20
    
  ==> Input QCSchema <==

--------------------------------------------------------------------------
{'driver': 'energy',
 'extras': {'psiapi': True, 'wfn_qcvars_only': True},
 'id': None,
 'keywords': {'SCF_TYPE': 'DF', 'function_kwargs': {}},
 'model': {'basis': 'aug-cc-pvtz', 'method': 'mp2'},
 'molecule': {'atom_labels': ['', '', '', '', '', '', ''],
              'atomic_numbers': [9, 8, 1, 1, 8, 1, 1],
              'extras': {},
              'fix_com': True,
              'fix_orientation': True,
              'fix_symmetry': 'c1',
              'fragment_charges': [0.0, 0.0, 0.0],
              'fragment_multiplicities': [1, 1, 1],
              'fragments': [[0], [1, 2, 3], [4, 5, 6]],
              'geometry': [3.9482614857028038, 0.0, 0.0, 0.0, -0.013891376748240494, 3.4205705829777084,
                           -1.1405612105552012, 1.1908317049446304, 2.696582489244557, 1.4031537734965702,
                           -0.05197880680684302, 2.1145619604125496, 0.0, 0.013891376748240494, -3.4205705829777084,
                           -1.1405612105552012, -1.1908317049446304, -2.696582489244557, 1.4031537734965702,
                           0.05197880680684302, -2.1145619604125496],
              'mass_numbers': [19, 16, 1, 1, 16, 1, 1],
              'masses': [18.99840316273, 15.99491461957, 1.00782503223, 1.00782503223, 15.99491461957, 1.00782503223,
                         1.00782503223],
              'molecular_charge': 0.0,
              'molecular_multiplicity': 1,
              'name': 'dimer',
              'provenance': {'creator': 'QCElemental',
                             'routine': 'qcelemental.molparse.from_string',
                             'version': '0.26.0'},
              'real': [False, True, True, True, True, True, True],
              'schema_name': 'qcschema_molecule',
              'schema_version': 2,
              'symbols': ['F', 'O', 'H', 'H', 'O', 'H', 'H'],
              'validated': True},
 'protocols': {'stdout': True},
 'provenance': {'creator': 'QCElemental', 'routine': 'qcelemental.models.results', 'version': '0.26.0'},
 'schema_name': 'qcschema_input',
 'schema_version': 1}
--------------------------------------------------------------------------

Scratch directory: /ddmfs1a/scratch/
   => Libint2 <=

    Primary   basis highest AM E, G, H:  5, 4, 3
    Auxiliary basis highest AM E, G, H:  6, 5, 4
    Onebody   basis highest AM E, G, H:  6, 5, 4
    Solid Harmonics ordering:            gaussian

*** tstart() called on ddmfs1
*** at Mon Jan 22 03:15:01 2024

   => Loading Basis Set <=

    Name: AUG-CC-PVTZ
    Role: ORBITAL
    Keyword: BASIS
    atoms 1        entry F          line   377 file /ddmfs1b/softs/psi4conda/share/psi4/basis/aug-cc-pvtz.gbs 
    atoms 2, 5     entry O          line   331 file /ddmfs1b/softs/psi4conda/share/psi4/basis/aug-cc-pvtz.gbs 
    atoms 3-4, 6-7 entry H          line    40 file /ddmfs1b/softs/psi4conda/share/psi4/basis/aug-cc-pvtz.gbs 


         ---------------------------------------------------------
                                   SCF
               by Justin Turney, Rob Parrish, Andy Simmonett
                          and Daniel G. A. Smith
                              RHF Reference
                       20 Threads,  57220 MiB Core
         ---------------------------------------------------------

  ==> Geometry <==

    Molecular point group: c1
    Full point group: C2

    Geometry (in Bohr), charge = 0, multiplicity = 1:

       Center              X                  Y                   Z               Mass       
    ------------   -----------------  -----------------  -----------------  -----------------
      Gh(F)           3.948261485703     0.000000000000     0.000000000000    18.998403162730
         O            0.000000000000    -0.013891376748     3.420570582978    15.994914619570
         H           -1.140561210555     1.190831704945     2.696582489245     1.007825032230
         H            1.403153773497    -0.051978806807     2.114561960413     1.007825032230
         O            0.000000000000     0.013891376748    -3.420570582978    15.994914619570
         H           -1.140561210555    -1.190831704945    -2.696582489245     1.007825032230
         H            1.403153773497     0.051978806807    -2.114561960413     1.007825032230

  Running in c1 symmetry.

  Rotational constants: A =      0.19701  B =      0.15019  C =      0.08591 [cm^-1]
  Rotational constants: A =   5906.23055  B =   4502.50685  C =   2575.37137 [MHz]
  Nuclear repulsion =   33.325614019337735

  Charge       = 0
  Multiplicity = 1
  Electrons    = 20
  Nalpha       = 10
  Nbeta        = 10

  ==> Algorithm <==

  SCF Algorithm Type is DF.
  DIIS enabled.
  MOM disabled.
  Fractional occupation disabled.
  Guess Type is SAD.
  Energy threshold   = 1.00e-08
  Density threshold  = 1.00e-08
  Integral threshold = 1.00e-12

  ==> Primary Basis <==

  Basis Set: AUG-CC-PVTZ
    Blend: AUG-CC-PVTZ
    Number of shells: 78
    Number of basis functions: 230
    Number of Cartesian functions: 265
    Spherical Harmonics?: true
    Max angular momentum: 3

   => Loading Basis Set <=

    Name: (AUG-CC-PVTZ AUX)
    Role: JKFIT
    Keyword: DF_BASIS_SCF
    atoms 1        entry F          line   348 file /ddmfs1b/softs/psi4conda/share/psi4/basis/aug-cc-pvtz-jkfit.gbs 
    atoms 2, 5     entry O          line   286 file /ddmfs1b/softs/psi4conda/share/psi4/basis/aug-cc-pvtz-jkfit.gbs 
    atoms 3-4, 6-7 entry H          line    70 file /ddmfs1b/softs/psi4conda/share/psi4/basis/aug-cc-pvtz-jkfit.gbs 

  ==> Integral Setup <==

  DFHelper Memory: AOs need 0.212 GiB; user supplied 41.910 GiB. 
  Using in-core AOs.

  ==> MemDFJK: Density-Fitted J/K Matrices <==

    J tasked:                   Yes
    K tasked:                   Yes
    wK tasked:                   No
    OpenMP threads:              20
    Memory [MiB]:             42915
    Algorithm:                 Core
    Schwarz Cutoff:           1E-12
    Mask sparsity (%):       2.0302
    Fitting Condition:        1E-10

   => Auxiliary Basis Set <=

  Basis Set: (AUG-CC-PVTZ AUX)
    Blend: AUG-CC-PVTZ-JKFIT
    Number of shells: 146
    Number of basis functions: 496
    Number of Cartesian functions: 613
    Spherical Harmonics?: true
    Max angular momentum: 4

  Minimum eigenvalue in the overlap matrix is 2.4813944712E-04.
  Reciprocal condition number of the overlap matrix is 2.5020020446E-05.
    Using symmetric orthogonalization.

  ==> Pre-Iterations <==

  SCF Guess: Superposition of Atomic Densities via on-the-fly atomic UHF (no occupation information).

   -------------------------
    Irrep   Nso     Nmo    
   -------------------------
     A        230     230 
   -------------------------
    Total     230     230
   -------------------------

  ==> Iterations <==

                           Total Energy        Delta E     RMS |[F,P]|

   @DF-RHF iter SAD:  -150.93264290901664   -1.50933e+02   0.00000e+00 
   @DF-RHF iter   1:  -151.93728817185757   -1.00465e+00   2.85650e-03 DIIS/ADIIS
   @DF-RHF iter   2:  -152.04050323585383   -1.03215e-01   2.01070e-03 DIIS/ADIIS
   @DF-RHF iter   3:  -152.10773118256859   -6.72279e-02   1.40887e-04 DIIS/ADIIS
   @DF-RHF iter   4:  -152.10863338115587   -9.02199e-04   3.49363e-05 DIIS
   @DF-RHF iter   5:  -152.10869504361827   -6.16625e-05   8.39686e-06 DIIS
   @DF-RHF iter   6:  -152.10870045881700   -5.41520e-06   1.80509e-06 DIIS
   @DF-RHF iter   7:  -152.10870072854320   -2.69726e-07   3.25001e-07 DIIS
   @DF-RHF iter   8:  -152.10870073603726   -7.49407e-09   6.76594e-08 DIIS
   @DF-RHF iter   9:  -152.10870073633572   -2.98456e-10   2.00139e-08 DIIS
   @DF-RHF iter  10:  -152.10870073636798   -3.22586e-11   5.75233e-09 DIIS
  Energy and wave function converged.


  ==> Post-Iterations <==

    Orbital Energies [Eh]
    ---------------------

    Doubly Occupied:                                                      

       1A    -20.586592     2A    -20.586591     3A     -1.356301  
       4A     -1.353747     5A     -0.713315     6A     -0.707754  
       7A     -0.604566     8A     -0.590757     9A     -0.523665  
      10A     -0.520125  

    Virtual:                                                              

      11A      0.021866    12A      0.042148    13A      0.048875  
      14A      0.060125    15A      0.113972    16A      0.129241  
      17A      0.146653    18A      0.163899    19A      0.166721  
      20A      0.167331    21A      0.179283    22A      0.180003  
      23A      0.207806    24A      0.219150    25A      0.222876  
      26A      0.238222    27A      0.257807    28A      0.270035  
      29A      0.287582    30A      0.295604    31A      0.316181  
      32A      0.345952    33A      0.360248    34A      0.377243  
      35A      0.379335    36A      0.409525    37A      0.431391  
      38A      0.454518    39A      0.462553    40A      0.485144  
      41A      0.551882    42A      0.556823    43A      0.597737  
      44A      0.632110    45A      0.656390    46A      0.675908  
      47A      0.682059    48A      0.711747    49A      0.714791  
      50A      0.730878    51A      0.739569    52A      0.742044  
      53A      0.777280    54A      0.808686    55A      0.818704  
      56A      0.824954    57A      0.861055    58A      0.878841  
      59A      0.897110    60A      0.899720    61A      0.900225  
      62A      0.916635    63A      0.953814    64A      0.970594  
      65A      0.975082    66A      0.993539    67A      1.014076  
      68A      1.025504    69A      1.033865    70A      1.048811  
      71A      1.061823    72A      1.081588    73A      1.094258  
      74A      1.117309    75A      1.140296    76A      1.190453  
      77A      1.220859    78A      1.237379    79A      1.240759  
      80A      1.254212    81A      1.265101    82A      1.289558  
      83A      1.292008    84A      1.325822    85A      1.335407  
      86A      1.468308    87A      1.472972    88A      1.484648  
      89A      1.518523    90A      1.536872    91A      1.563576  
      92A      1.574148    93A      1.594934    94A      1.597776  
      95A      1.678835    96A      1.685581    97A      1.797128  
      98A      1.877775    99A      1.924878   100A      1.941881  
     101A      1.961394   102A      2.030984   103A      2.086316  
     104A      2.256077   105A      2.293842   106A      2.311049  
     107A      2.349767   108A      2.375750   109A      2.424603  
     110A      2.426755   111A      2.431865   112A      2.437489  
     113A      2.462454   114A      2.506142   115A      2.521516  
     116A      2.581100   117A      2.593817   118A      2.596580  
     119A      2.679358   120A      2.725077   121A      2.729971  
     122A      2.744267   123A      2.794952   124A      2.835162  
     125A      2.836507   126A      2.877202   127A      2.935148  
     128A      2.960390   129A      3.014771   130A      3.028250  
     131A      3.166304   132A      3.176949   133A      3.185372  
     134A      3.263533   135A      3.385710   136A      3.388052  
     137A      3.410554   138A      3.541024   139A      3.653163  
     140A      3.664573   141A      3.694844   142A      3.741818  
     143A      3.750846   144A      3.816958   145A      3.868662  
     146A      3.884069   147A      4.039195   148A      4.049577  
     149A      4.063184   150A      4.079737   151A      4.144929  
     152A      4.177958   153A      4.199913   154A      4.205981  
     155A      4.216630   156A      4.252331   157A      4.314195  
     158A      4.323787   159A      4.357981   160A      4.373426  
     161A      4.392322   162A      4.406527   163A      4.425840  
     164A      4.486423   165A      4.508776   166A      4.559682  
     167A      4.609587   168A      4.765927   169A      4.838383  
     170A      4.986954   171A      5.041879   172A      5.101689  
     173A      5.120446   174A      5.213923   175A      5.232275  
     176A      5.274238   177A      5.300528   178A      5.415238  
     179A      5.427578   180A      5.502284   181A      5.508718  
     182A      5.680142   183A      5.688389   184A      6.226127  
     185A      6.261089   186A      6.523922   187A      6.532910  
     188A      6.783646   189A      6.783672   190A      6.914362  
     191A      6.928103   192A      7.094026   193A      7.149584  
     194A      7.234298   195A      7.268255   196A      7.280712  
     197A      7.284231   198A      7.304712   199A      7.305782  
     200A      7.371729   201A      7.386831   202A      7.476227  
     203A      7.477132   204A      7.609522   205A      7.610175  
     206A      7.882738   207A      7.938102   208A      7.966740  
     209A      7.979202   210A      8.705976   211A      8.770988  
     212A     10.162484   213A     10.181369   214A     10.256780  
     215A     10.326629   216A     10.417403   217A     10.452055  
     218A     10.754274   219A     11.254225   220A     12.978268  
     221A     12.988531   222A     12.995012   223A     13.063554  
     224A     13.085376   225A     14.353002   226A     14.758271  
     227A     14.905772   228A     16.006985   229A     16.149869  
     230A     72.212576  

    Final Occupation by Irrep:
              A 
    DOCC [    10 ]
    NA   [    10 ]
    NB   [    10 ]

  @DF-RHF Final Energy:  -152.10870073636798

   => Energetics <=

    Nuclear Repulsion Energy =             33.3256140193377348
    One-Electron Energy =                -275.7818017263965089
    Two-Electron Energy =                  90.3474869706907668
    Total Energy =                       -152.1087007363680073

Computation Completed


Properties will be evaluated at   0.000000,   0.000000,   0.000000 [a0]

Properties computed using the SCF density matrix


 Multipole Moments:

 ------------------------------------------------------------------------------------
     Multipole            Electronic (a.u.)      Nuclear  (a.u.)        Total (a.u.)
 ------------------------------------------------------------------------------------

 L = 1.  Multiply by 2.5417464519 to convert [e a0] to [Debye]
 Dipole X            :         -0.4047121            0.5251851            0.1204730
 Dipole Y            :         -0.0000000            0.0000000           -0.0000000
 Dipole Z            :          0.0000000            0.0000000            0.0000000
 Magnitude           :                                                    0.1204730

 ------------------------------------------------------------------------------------

*** tstop() called on ddmfs1 at Mon Jan 22 03:15:02 2024
Module time:
	user time   =      19.18 seconds =       0.32 minutes
	system time =       0.71 seconds =       0.01 minutes
	total time  =          1 seconds =       0.02 minutes
Total time:
	user time   =      72.52 seconds =       1.21 minutes
	system time =       3.02 seconds =       0.05 minutes
	total time  =          5 seconds =       0.08 minutes

*** tstart() called on ddmfs1
*** at Mon Jan 22 03:15:02 2024


  //>>>>>>>>>>>>>>>>>>>>>>>>>>>>>>>>>>>//
  //               DFMP2               //
  //<<<<<<<<<<<<<<<<<<<<<<<<<<<<<<<<<<<//

   => Loading Basis Set <=

    Name: (AUG-CC-PVTZ AUX)
    Role: RIFIT
    Keyword: DF_BASIS_MP2
    atoms 1        entry F          line   322 file /ddmfs1b/softs/psi4conda/share/psi4/basis/aug-cc-pvtz-ri.gbs 
    atoms 2, 5     entry O          line   264 file /ddmfs1b/softs/psi4conda/share/psi4/basis/aug-cc-pvtz-ri.gbs 
    atoms 3-4, 6-7 entry H          line    30 file /ddmfs1b/softs/psi4conda/share/psi4/basis/aug-cc-pvtz-ri.gbs 

	 --------------------------------------------------------
	                          DF-MP2                         
	      2nd-Order Density-Fitted Moller-Plesset Theory     
	              RMP2 Wavefunction,  20 Threads             
	                                                         
	        Rob Parrish, Justin Turney, Andy Simmonett,      
	           Ed Hohenstein, and C. David Sherrill          
	 --------------------------------------------------------

   => Auxiliary Basis Set <=

  Basis Set: (AUG-CC-PVTZ AUX)
    Blend: AUG-CC-PVTZ-RI
    Number of shells: 140
    Number of basis functions: 502
    Number of Cartesian functions: 628
    Spherical Harmonics?: true
    Max angular momentum: 4

	 --------------------------------------------------------
	                 NBF =   230, NAUX =   502
	 --------------------------------------------------------
	   CLASS    FOCC     OCC    AOCC    AVIR     VIR    FVIR
	   PAIRS       0      10      10     220     220       0
	 --------------------------------------------------------

	-----------------------------------------------------------
	 ==================> DF-MP2 Energies <==================== 
	-----------------------------------------------------------
	 Reference Energy          =    -152.1087007363679788 [Eh]
	 Singles Energy            =      -0.0000000000000000 [Eh]
	 Same-Spin Energy          =      -0.1384056755768307 [Eh]
	 Opposite-Spin Energy      =      -0.4358650397813357 [Eh]
	 Correlation Energy        =      -0.5742707153581664 [Eh]
	 Total Energy              =    -152.6829714517261323 [Eh]
	-----------------------------------------------------------
	 ================> DF-SCS-MP2 Energies <================== 
	-----------------------------------------------------------
	 SCS Same-Spin Scale       =       0.3333333333333333 [-]
	 SCS Opposite-Spin Scale   =       1.2000000000000000 [-]
	 SCS Same-Spin Energy      =      -0.0461352251922769 [Eh]
	 SCS Opposite-Spin Energy  =      -0.5230380477376029 [Eh]
	 SCS Correlation Energy    =      -0.5691732729298797 [Eh]
	 SCS Total Energy          =    -152.6778740092978524 [Eh]
	-----------------------------------------------------------


*** tstop() called on ddmfs1 at Mon Jan 22 03:15:02 2024
Module time:
	user time   =       7.31 seconds =       0.12 minutes
	system time =       0.26 seconds =       0.00 minutes
	total time  =          0 seconds =       0.00 minutes
Total time:
	user time   =      79.85 seconds =       1.33 minutes
	system time =       3.28 seconds =       0.05 minutes
	total time  =          5 seconds =       0.08 minutes

    Psi4 stopped on: Monday, 22 January 2024 03:15AM
    Psi4 wall time for execution: 0:00:01.84


    -----------------------------------------------------------------------
          Psi4: An Open-Source Ab Initio Electronic Structure Package
                               Psi4 1.8.2 release

                         Git: Rev {} zzzzzzz 


    D. G. A. Smith, L. A. Burns, A. C. Simmonett, R. M. Parrish,
    M. C. Schieber, R. Galvelis, P. Kraus, H. Kruse, R. Di Remigio,
    A. Alenaizan, A. M. James, S. Lehtola, J. P. Misiewicz, M. Scheurer,
    R. A. Shaw, J. B. Schriber, Y. Xie, Z. L. Glick, D. A. Sirianni,
    J. S. O'Brien, J. M. Waldrop, A. Kumar, E. G. Hohenstein,
    B. P. Pritchard, B. R. Brooks, H. F. Schaefer III, A. Yu. Sokolov,
    K. Patkowski, A. E. DePrince III, U. Bozkaya, R. A. King,
    F. A. Evangelista, J. M. Turney, T. D. Crawford, C. D. Sherrill,
    J. Chem. Phys. 152(18) 184108 (2020). https://doi.org/10.1063/5.0006002

                            Additional Code Authors
    E. T. Seidl, C. L. Janssen, E. F. Valeev, M. L. Leininger,
    J. F. Gonthier, R. M. Richard, H. R. McAlexander, M. Saitow, X. Wang,
    P. Verma, M. H. Lechner, A. Jiang, S. Behnle, A. G. Heide,
    M. F. Herbst, and D. L. Poole

             Previous Authors, Complete List of Code Contributors,
                       and Citations for Specific Modules
    https://github.com/psi4/psi4/blob/master/codemeta.json
    https://github.com/psi4/psi4/graphs/contributors
    http://psicode.org/psi4manual/master/introduction.html#citing-psifour

    -----------------------------------------------------------------------


    Psi4 started on: Monday, 22 January 2024 03:14AM

    Process ID: 29069
    Host:       ddmfs1
    PSIDATADIR: /ddmfs1b/softs/psi4conda/share/psi4
    Memory:     55.9 GiB
    Threads:    20
    
  ==> Input QCSchema <==

--------------------------------------------------------------------------
{'driver': 'energy',
 'extras': {'psiapi': True, 'wfn_qcvars_only': True},
 'id': None,
 'keywords': {'SCF_TYPE': 'DF', 'function_kwargs': {}},
 'model': {'basis': 'aug-cc-pvtz', 'method': 'mp2'},
 'molecule': {'atom_labels': ['', '', '', '', '', '', ''],
              'atomic_numbers': [9, 8, 1, 1, 8, 1, 1],
              'extras': {},
              'fix_com': True,
              'fix_orientation': True,
              'fix_symmetry': 'c1',
              'fragment_charges': [-1.0, 0.0, 0.0],
              'fragment_multiplicities': [1, 1, 1],
              'fragments': [[0], [1, 2, 3], [4, 5, 6]],
              'geometry': [3.9482614857028038, 0.0, 0.0, 0.0, -0.013891376748240494, 3.4205705829777084,
                           -1.1405612105552012, 1.1908317049446304, 2.696582489244557, 1.4031537734965702,
                           -0.05197880680684302, 2.1145619604125496, 0.0, 0.013891376748240494, -3.4205705829777084,
                           -1.1405612105552012, -1.1908317049446304, -2.696582489244557, 1.4031537734965702,
                           0.05197880680684302, -2.1145619604125496],
              'mass_numbers': [19, 16, 1, 1, 16, 1, 1],
              'masses': [18.99840316273, 15.99491461957, 1.00782503223, 1.00782503223, 15.99491461957, 1.00782503223,
                         1.00782503223],
              'molecular_charge': -1.0,
              'molecular_multiplicity': 1,
              'name': 'dimer',
              'provenance': {'creator': 'QCElemental',
                             'routine': 'qcelemental.molparse.from_string',
                             'version': '0.26.0'},
              'real': [True, False, False, False, True, True, True],
              'schema_name': 'qcschema_molecule',
              'schema_version': 2,
              'symbols': ['F', 'O', 'H', 'H', 'O', 'H', 'H'],
              'validated': True},
 'protocols': {'stdout': True},
 'provenance': {'creator': 'QCElemental', 'routine': 'qcelemental.models.results', 'version': '0.26.0'},
 'schema_name': 'qcschema_input',
 'schema_version': 1}
--------------------------------------------------------------------------

Scratch directory: /ddmfs1a/scratch/
   => Libint2 <=

    Primary   basis highest AM E, G, H:  5, 4, 3
    Auxiliary basis highest AM E, G, H:  6, 5, 4
    Onebody   basis highest AM E, G, H:  6, 5, 4
    Solid Harmonics ordering:            gaussian

*** tstart() called on ddmfs1
*** at Mon Jan 22 03:15:03 2024

   => Loading Basis Set <=

    Name: AUG-CC-PVTZ
    Role: ORBITAL
    Keyword: BASIS
    atoms 1        entry F          line   377 file /ddmfs1b/softs/psi4conda/share/psi4/basis/aug-cc-pvtz.gbs 
    atoms 2, 5     entry O          line   331 file /ddmfs1b/softs/psi4conda/share/psi4/basis/aug-cc-pvtz.gbs 
    atoms 3-4, 6-7 entry H          line    40 file /ddmfs1b/softs/psi4conda/share/psi4/basis/aug-cc-pvtz.gbs 


         ---------------------------------------------------------
                                   SCF
               by Justin Turney, Rob Parrish, Andy Simmonett
                          and Daniel G. A. Smith
                              RHF Reference
                       20 Threads,  57220 MiB Core
         ---------------------------------------------------------

  ==> Geometry <==

    Molecular point group: c1
    Full point group: C1

    Geometry (in Bohr), charge = -1, multiplicity = 1:

       Center              X                  Y                   Z               Mass       
    ------------   -----------------  -----------------  -----------------  -----------------
         F            3.948261485703     0.000000000000     0.000000000000    18.998403162730
      Gh(O)           0.000000000000    -0.013891376748     3.420570582978    15.994914619570
      Gh(H)          -1.140561210555     1.190831704945     2.696582489245     1.007825032230
      Gh(H)           1.403153773497    -0.051978806807     2.114561960413     1.007825032230
         O            0.000000000000     0.013891376748    -3.420570582978    15.994914619570
         H           -1.140561210555    -1.190831704945    -2.696582489245     1.007825032230
         H            1.403153773497     0.051978806807    -2.114561960413     1.007825032230

  Running in c1 symmetry.

  Rotational constants: A =      0.19701  B =      0.15019  C =      0.08591 [cm^-1]
  Rotational constants: A =   5906.23055  B =   4502.50685  C =   2575.37137 [MHz]
  Nuclear repulsion =   26.970979186167998

  Charge       = -1
  Multiplicity = 1
  Electrons    = 20
  Nalpha       = 10
  Nbeta        = 10

  ==> Algorithm <==

  SCF Algorithm Type is DF.
  DIIS enabled.
  MOM disabled.
  Fractional occupation disabled.
  Guess Type is SAD.
  Energy threshold   = 1.00e-08
  Density threshold  = 1.00e-08
  Integral threshold = 1.00e-12

  ==> Primary Basis <==

  Basis Set: AUG-CC-PVTZ
    Blend: AUG-CC-PVTZ
    Number of shells: 78
    Number of basis functions: 230
    Number of Cartesian functions: 265
    Spherical Harmonics?: true
    Max angular momentum: 3

   => Loading Basis Set <=

    Name: (AUG-CC-PVTZ AUX)
    Role: JKFIT
    Keyword: DF_BASIS_SCF
    atoms 1        entry F          line   348 file /ddmfs1b/softs/psi4conda/share/psi4/basis/aug-cc-pvtz-jkfit.gbs 
    atoms 2, 5     entry O          line   286 file /ddmfs1b/softs/psi4conda/share/psi4/basis/aug-cc-pvtz-jkfit.gbs 
    atoms 3-4, 6-7 entry H          line    70 file /ddmfs1b/softs/psi4conda/share/psi4/basis/aug-cc-pvtz-jkfit.gbs 

  ==> Integral Setup <==

  DFHelper Memory: AOs need 0.212 GiB; user supplied 41.910 GiB. 
  Using in-core AOs.

  ==> MemDFJK: Density-Fitted J/K Matrices <==

    J tasked:                   Yes
    K tasked:                   Yes
    wK tasked:                   No
    OpenMP threads:              20
    Memory [MiB]:             42915
    Algorithm:                 Core
    Schwarz Cutoff:           1E-12
    Mask sparsity (%):       2.0302
    Fitting Condition:        1E-10

   => Auxiliary Basis Set <=

  Basis Set: (AUG-CC-PVTZ AUX)
    Blend: AUG-CC-PVTZ-JKFIT
    Number of shells: 146
    Number of basis functions: 496
    Number of Cartesian functions: 613
    Spherical Harmonics?: true
    Max angular momentum: 4

  Minimum eigenvalue in the overlap matrix is 2.4813944712E-04.
  Reciprocal condition number of the overlap matrix is 2.5020020446E-05.
    Using symmetric orthogonalization.

  ==> Pre-Iterations <==

  SCF Guess: Superposition of Atomic Densities via on-the-fly atomic UHF (no occupation information).

   -------------------------
    Irrep   Nso     Nmo    
   -------------------------
     A        230     230 
   -------------------------
    Total     230     230
   -------------------------

  ==> Iterations <==

                           Total Energy        Delta E     RMS |[F,P]|

   @DF-RHF iter SAD:  -174.34937092483298   -1.74349e+02   0.00000e+00 
   @DF-RHF iter   1:  -175.37276525069592   -1.02339e+00   2.95969e-03 DIIS/ADIIS
   @DF-RHF iter   2:  -175.46261371797192   -8.98485e-02   2.36530e-03 DIIS/ADIIS
   @DF-RHF iter   3:  -175.54412614159469   -8.15124e-02   1.41174e-04 DIIS/ADIIS
   @DF-RHF iter   4:  -175.54460249654409   -4.76355e-04   8.08757e-05 DIIS
   @DF-RHF iter   5:  -175.54473550325633   -1.33007e-04   1.46965e-05 DIIS
   @DF-RHF iter   6:  -175.54474444640016   -8.94314e-06   3.36096e-06 DIIS
   @DF-RHF iter   7:  -175.54474513486923   -6.88469e-07   8.30930e-07 DIIS
   @DF-RHF iter   8:  -175.54474518986265   -5.49934e-08   1.91529e-07 DIIS
   @DF-RHF iter   9:  -175.54474519248279   -2.62014e-09   3.77379e-08 DIIS
   @DF-RHF iter  10:  -175.54474519258503   -1.02233e-10   8.68719e-09 DIIS
  Energy and wave function converged.


  ==> Post-Iterations <==

    Orbital Energies [Eh]
    ---------------------

    Doubly Occupied:                                                      

       1A    -25.878501     2A    -20.356584     3A     -1.137275  
       4A     -1.121576     5A     -0.489020     6A     -0.383585  
       7A     -0.300704     8A     -0.229507     9A     -0.229068  
      10A     -0.228434  

    Virtual:                                                              

      11A      0.135398    12A      0.150827    13A      0.174937  
      14A      0.195853    15A      0.254306    16A      0.269384  
      17A      0.273147    18A      0.295875    19A      0.308593  
      20A      0.318949    21A      0.337788    22A      0.357412  
      23A      0.381441    24A      0.391187    25A      0.424796  
      26A      0.432327    27A      0.440893    28A      0.454588  
      29A      0.479909    30A      0.483196    31A      0.501144  
      32A      0.518523    33A      0.545566    34A      0.574729  
      35A      0.588655    36A      0.602395    37A      0.619409  
      38A      0.643758    39A      0.660119    40A      0.695683  
      41A      0.714887    42A      0.755479    43A      0.828483  
      44A      0.866912    45A      0.872537    46A      0.880344  
      47A      0.895256    48A      0.915549    49A      0.931543  
      50A      0.947143    51A      0.963840    52A      0.985609  
      53A      1.009691    54A      1.026883    55A      1.032922  
      56A      1.062686    57A      1.073121    58A      1.096208  
      59A      1.103553    60A      1.122581    61A      1.131765  
      62A      1.148227    63A      1.169492    64A      1.190784  
      65A      1.205547    66A      1.215468    67A      1.218760  
      68A      1.266191    69A      1.277399    70A      1.308098  
      71A      1.324445    72A      1.351662    73A      1.384670  
      74A      1.397664    75A      1.420565    76A      1.429294  
      77A      1.451720    78A      1.461678    79A      1.483697  
      80A      1.541909    81A      1.553290    82A      1.558122  
      83A      1.591336    84A      1.617626    85A      1.718695  
      86A      1.731754    87A      1.738553    88A      1.760349  
      89A      1.794899    90A      1.849317    91A      1.861581  
      92A      1.883543    93A      1.904529    94A      1.969777  
      95A      1.998885    96A      2.029248    97A      2.032266  
      98A      2.096218    99A      2.112835   100A      2.142228  
     101A      2.219515   102A      2.339750   103A      2.395845  
     104A      2.522283   105A      2.549103   106A      2.579955  
     107A      2.620820   108A      2.635857   109A      2.648675  
     110A      2.660530   111A      2.685587   112A      2.722476  
     113A      2.770667   114A      2.774812   115A      2.797072  
     116A      2.853421   117A      2.859761   118A      2.887448  
     119A      2.939921   120A      2.964363   121A      3.028365  
     122A      3.049648   123A      3.100678   124A      3.146842  
     125A      3.166052   126A      3.197509   127A      3.300433  
     128A      3.329154   129A      3.335995   130A      3.386107  
     131A      3.394277   132A      3.419178   133A      3.444079  
     134A      3.476914   135A      3.533881   136A      3.573800  
     137A      3.600196   138A      3.670864   139A      3.683065  
     140A      3.747774   141A      3.754802   142A      3.804817  
     143A      3.892397   144A      3.956668   145A      3.998845  
     146A      4.238126   147A      4.261640   148A      4.296868  
     149A      4.408553   150A      4.447029   151A      4.487692  
     152A      4.513212   153A      4.589602   154A      4.615484  
     155A      4.642947   156A      4.646797   157A      4.705394  
     158A      4.737395   159A      4.806057   160A      4.826469  
     161A      4.903866   162A      4.992931   163A      5.036142  
     164A      5.090499   165A      5.213709   166A      5.223565  
     167A      5.254901   168A      5.337127   169A      5.449841  
     170A      5.480826   171A      5.546794   172A      5.608444  
     173A      5.704674   174A      5.725779   175A      5.743515  
     176A      5.804134   177A      5.863968   178A      5.880819  
     179A      6.073669   180A      6.186341   181A      6.297919  
     182A      6.440362   183A      6.506262   184A      6.608049  
     185A      6.740380   186A      6.777398   187A      7.008477  
     188A      7.142596   189A      7.193023   190A      7.344169  
     191A      7.478488   192A      7.493420   193A      7.521068  
     194A      7.600582   195A      7.701374   196A      7.824001  
     197A      7.913202   198A      8.028474   199A      8.134637  
     200A      8.188188   201A      8.224099   202A      8.308626  
     203A      8.429456   204A      8.883117   205A      8.939392  
     206A      8.997339   207A      9.302916   208A      9.398087  
     209A      9.430817   210A      9.461372   211A      9.529714  
     212A      9.590005   213A      9.807432   214A      9.833027  
     215A      9.848524   216A      9.873177   217A      9.912739  
     218A      9.961118   219A      9.979614   220A     10.059501  
     221A     10.256465   222A     10.537252   223A     11.339867  
     224A     11.888722   225A     12.185562   226A     13.552790  
     227A     14.047940   228A     14.338789   229A     16.466741  
     230A     65.420641  

    Final Occupation by Irrep:
              A 
    DOCC [    10 ]
    NA   [    10 ]
    NB   [    10 ]

  @DF-RHF Final Energy:  -175.54474519258503

   => Energetics <=

    Nuclear Repulsion Energy =             26.9709791861679982
    One-Electron Energy =                -304.3229360969007189
    Two-Electron Energy =                 101.8072117181477125
    Total Energy =                       -175.5447451925850260

Computation Completed


Properties will be evaluated at   0.000000,   0.000000,   0.000000 [a0]

Properties computed using the SCF density matrix


 Multipole Moments:

 ------------------------------------------------------------------------------------
     Multipole            Electronic (a.u.)      Nuclear  (a.u.)        Total (a.u.)
 ------------------------------------------------------------------------------------

 L = 1.  Multiply by 2.5417464519 to convert [e a0] to [Debye]
 Dipole X            :        -39.1794254           35.7969459           -3.3824794
 Dipole Y            :          0.6583059           -1.0277219           -0.3694160
 Dipole Z            :         33.2299260          -32.1757091            1.0542169
 Magnitude           :                                                    3.5621635

 ------------------------------------------------------------------------------------

*** tstop() called on ddmfs1 at Mon Jan 22 03:15:04 2024
Module time:
	user time   =      19.79 seconds =       0.33 minutes
	system time =       0.63 seconds =       0.01 minutes
	total time  =          1 seconds =       0.02 minutes
Total time:
	user time   =     100.83 seconds =       1.68 minutes
	system time =       3.94 seconds =       0.07 minutes
	total time  =          7 seconds =       0.12 minutes

*** tstart() called on ddmfs1
*** at Mon Jan 22 03:15:04 2024


  //>>>>>>>>>>>>>>>>>>>>>>>>>>>>>>>>>>>//
  //               DFMP2               //
  //<<<<<<<<<<<<<<<<<<<<<<<<<<<<<<<<<<<//

   => Loading Basis Set <=

    Name: (AUG-CC-PVTZ AUX)
    Role: RIFIT
    Keyword: DF_BASIS_MP2
    atoms 1        entry F          line   322 file /ddmfs1b/softs/psi4conda/share/psi4/basis/aug-cc-pvtz-ri.gbs 
[...]
             Previous Authors, Complete List of Code Contributors,
                       and Citations for Specific Modules
    https://github.com/psi4/psi4/blob/master/codemeta.json
    https://github.com/psi4/psi4/graphs/contributors
    http://psicode.org/psi4manual/master/introduction.html#citing-psifour

    -----------------------------------------------------------------------


    Psi4 started on: Monday, 22 January 2024 03:14AM

    Process ID: 29069
    Host:       ddmfs1
    PSIDATADIR: /ddmfs1b/softs/psi4conda/share/psi4
    Memory:     55.9 GiB
    Threads:    20
    
  ==> Input QCSchema <==

--------------------------------------------------------------------------
{'driver': 'energy',
 'extras': {'psiapi': True, 'wfn_qcvars_only': True},
 'id': None,
 'keywords': {'SCF_TYPE': 'DF', 'function_kwargs': {}},
 'model': {'basis': 'aug-cc-pvtz', 'method': 'mp2'},
 'molecule': {'atom_labels': ['', '', '', '', '', '', ''],
              'atomic_numbers': [9, 8, 1, 1, 8, 1, 1],
              'extras': {},
              'fix_com': True,
              'fix_orientation': True,
              'fix_symmetry': 'c1',
              'fragment_charges': [-1.0, 0.0, 0.0],
              'fragment_multiplicities': [1, 1, 1],
              'fragments': [[0], [1, 2, 3], [4, 5, 6]],
              'geometry': [3.9482614857028038, 0.0, 0.0, 0.0, -0.013891376748240494, 3.4205705829777084,
                           -1.1405612105552012, 1.1908317049446304, 2.696582489244557, 1.4031537734965702,
                           -0.05197880680684302, 2.1145619604125496, 0.0, 0.013891376748240494, -3.4205705829777084,
                           -1.1405612105552012, -1.1908317049446304, -2.696582489244557, 1.4031537734965702,
                           0.05197880680684302, -2.1145619604125496],
              'mass_numbers': [19, 16, 1, 1, 16, 1, 1],
              'masses': [18.99840316273, 15.99491461957, 1.00782503223, 1.00782503223, 15.99491461957, 1.00782503223,
                         1.00782503223],
              'molecular_charge': -1.0,
              'molecular_multiplicity': 1,
              'name': 'dimer',
              'provenance': {'creator': 'QCElemental',
                             'routine': 'qcelemental.molparse.from_string',
                             'version': '0.26.0'},
              'real': [True, True, True, True, True, True, True],
              'schema_name': 'qcschema_molecule',
              'schema_version': 2,
              'symbols': ['F', 'O', 'H', 'H', 'O', 'H', 'H'],
              'validated': True},
 'protocols': {'stdout': True},
 'provenance': {'creator': 'QCElemental', 'routine': 'qcelemental.models.results', 'version': '0.26.0'},
 'schema_name': 'qcschema_input',
 'schema_version': 1}
--------------------------------------------------------------------------

Scratch directory: /ddmfs1a/scratch/
   => Libint2 <=

    Primary   basis highest AM E, G, H:  5, 4, 3
    Auxiliary basis highest AM E, G, H:  6, 5, 4
    Onebody   basis highest AM E, G, H:  6, 5, 4
    Solid Harmonics ordering:            gaussian

*** tstart() called on ddmfs1
*** at Mon Jan 22 03:15:08 2024

   => Loading Basis Set <=

    Name: AUG-CC-PVTZ
    Role: ORBITAL
    Keyword: BASIS
    atoms 1        entry F          line   377 file /ddmfs1b/softs/psi4conda/share/psi4/basis/aug-cc-pvtz.gbs 
    atoms 2, 5     entry O          line   331 file /ddmfs1b/softs/psi4conda/share/psi4/basis/aug-cc-pvtz.gbs 
    atoms 3-4, 6-7 entry H          line    40 file /ddmfs1b/softs/psi4conda/share/psi4/basis/aug-cc-pvtz.gbs 


         ---------------------------------------------------------
                                   SCF
               by Justin Turney, Rob Parrish, Andy Simmonett
                          and Daniel G. A. Smith
                              RHF Reference
                       20 Threads,  57220 MiB Core
         ---------------------------------------------------------

  ==> Geometry <==

    Molecular point group: c1
    Full point group: C2

    Geometry (in Bohr), charge = -1, multiplicity = 1:

       Center              X                  Y                   Z               Mass       
    ------------   -----------------  -----------------  -----------------  -----------------
         F            3.948261485703     0.000000000000     0.000000000000    18.998403162730
         O            0.000000000000    -0.013891376748     3.420570582978    15.994914619570
         H           -1.140561210555     1.190831704945     2.696582489245     1.007825032230
         H            1.403153773497    -0.051978806807     2.114561960413     1.007825032230
         O            0.000000000000     0.013891376748    -3.420570582978    15.994914619570
         H           -1.140561210555    -1.190831704945    -2.696582489245     1.007825032230
         H            1.403153773497     0.051978806807    -2.114561960413     1.007825032230

  Running in c1 symmetry.

  Rotational constants: A =      0.19701  B =      0.15019  C =      0.08591 [cm^-1]
  Rotational constants: A =   5906.23055  B =   4502.50685  C =   2575.37137 [MHz]
  Nuclear repulsion =   69.391052249673209

  Charge       = -1
  Multiplicity = 1
  Electrons    = 30
  Nalpha       = 15
  Nbeta        = 15

  ==> Algorithm <==

  SCF Algorithm Type is DF.
  DIIS enabled.
  MOM disabled.
  Fractional occupation disabled.
  Guess Type is SAD.
  Energy threshold   = 1.00e-08
  Density threshold  = 1.00e-08
  Integral threshold = 1.00e-12

  ==> Primary Basis <==

  Basis Set: AUG-CC-PVTZ
    Blend: AUG-CC-PVTZ
    Number of shells: 78
    Number of basis functions: 230
    Number of Cartesian functions: 265
    Spherical Harmonics?: true
    Max angular momentum: 3

   => Loading Basis Set <=

    Name: (AUG-CC-PVTZ AUX)
    Role: JKFIT
    Keyword: DF_BASIS_SCF
    atoms 1        entry F          line   348 file /ddmfs1b/softs/psi4conda/share/psi4/basis/aug-cc-pvtz-jkfit.gbs 
    atoms 2, 5     entry O          line   286 file /ddmfs1b/softs/psi4conda/share/psi4/basis/aug-cc-pvtz-jkfit.gbs 
    atoms 3-4, 6-7 entry H          line    70 file /ddmfs1b/softs/psi4conda/share/psi4/basis/aug-cc-pvtz-jkfit.gbs 

  ==> Integral Setup <==

  DFHelper Memory: AOs need 0.212 GiB; user supplied 41.910 GiB. 
  Using in-core AOs.

  ==> MemDFJK: Density-Fitted J/K Matrices <==

    J tasked:                   Yes
    K tasked:                   Yes
    wK tasked:                   No
    OpenMP threads:              20
    Memory [MiB]:             42915
    Algorithm:                 Core
    Schwarz Cutoff:           1E-12
    Mask sparsity (%):       2.0302
    Fitting Condition:        1E-10

   => Auxiliary Basis Set <=

  Basis Set: (AUG-CC-PVTZ AUX)
    Blend: AUG-CC-PVTZ-JKFIT
    Number of shells: 146
    Number of basis functions: 496
    Number of Cartesian functions: 613
    Spherical Harmonics?: true
    Max angular momentum: 4

  Minimum eigenvalue in the overlap matrix is 2.4813944712E-04.
  Reciprocal condition number of the overlap matrix is 2.5020020446E-05.
    Using symmetric orthogonalization.

  ==> Pre-Iterations <==

  SCF Guess: Superposition of Atomic Densities via on-the-fly atomic UHF (no occupation information).

   -------------------------
    Irrep   Nso     Nmo    
   -------------------------
     A        230     230 
   -------------------------
    Total     230     230
   -------------------------

  ==> Iterations <==

                           Total Energy        Delta E     RMS |[F,P]|

   @DF-RHF iter SAD:  -249.91312078472154   -2.49913e+02   0.00000e+00 
   @DF-RHF iter   1:  -251.40016488793799   -1.48704e+00   3.44584e-03 DIIS/ADIIS
   @DF-RHF iter   2:  -251.53630300857230   -1.36138e-01   2.51071e-03 DIIS/ADIIS
   @DF-RHF iter   3:  -251.63100902596096   -9.47060e-02   1.46131e-04 DIIS/ADIIS
   @DF-RHF iter   4:  -251.63178523962335   -7.76214e-04   6.94416e-05 DIIS
   @DF-RHF iter   5:  -251.63189266757746   -1.07428e-04   2.13829e-05 DIIS
   @DF-RHF iter   6:  -251.63190643007627   -1.37625e-05   3.91555e-06 DIIS
   @DF-RHF iter   7:  -251.63190747722544   -1.04715e-06   1.05089e-06 DIIS
   @DF-RHF iter   8:  -251.63190756516295   -8.79375e-08   2.03696e-07 DIIS
   @DF-RHF iter   9:  -251.63190756838890   -3.22595e-09   4.31251e-08 DIIS
   @DF-RHF iter  10:  -251.63190756850366   -1.14767e-10   1.00300e-08 DIIS
   @DF-RHF iter  11:  -251.63190756851088   -7.21911e-12   2.66658e-09 DIIS
  Energy and wave function converged.


  ==> Post-Iterations <==

    Orbital Energies [Eh]
    ---------------------

    Doubly Occupied:                                                      

       1A    -25.921401     2A    -20.374572     3A    -20.374571  
       4A     -1.179870     5A     -1.148906     6A     -1.146944  
       7A     -0.509260     8A     -0.507117     9A     -0.408538  
      10A     -0.396625    11A     -0.319903    12A     -0.317306  
      13A     -0.274779    14A     -0.272629    15A     -0.271592  

    Virtual:                                                              

      16A      0.139276    17A      0.151803    18A      0.180975  
      19A      0.190100    20A      0.276507    21A      0.278784  
      22A      0.297043    23A      0.305280    24A      0.310218  
      25A      0.338261    26A      0.339708    27A      0.351272  
      28A      0.371820    29A      0.393781    30A      0.416561  
      31A      0.421747    32A      0.434073    33A      0.442899  
      34A      0.471725    35A      0.480261    36A      0.506421  
      37A      0.526946    38A      0.571571    39A      0.588910  
      40A      0.600557    41A      0.603633    42A      0.612462  
      43A      0.638396    44A      0.667001    45A      0.692080  
      46A      0.734152    47A      0.738479    48A      0.792519  
      49A      0.842881    50A      0.865024    51A      0.865266  
      52A      0.878257    53A      0.896361    54A      0.913419  
      55A      0.924020    56A      0.934337    57A      0.973415  
      58A      1.023826    59A      1.038010    60A      1.059328  
      61A      1.060317    62A      1.086249    63A      1.086999  
      64A      1.104480    65A      1.132710    66A      1.137275  
      67A      1.163205    68A      1.177729    69A      1.181546  
      70A      1.193620    71A      1.209933    72A      1.211231  
      73A      1.242512    74A      1.265433    75A      1.278937  
      76A      1.323747    77A      1.353525    78A      1.360315  
      79A      1.375853    80A      1.404867    81A      1.418110  
      82A      1.427889    83A      1.433010    84A      1.454577  
      85A      1.489051    86A      1.501611    87A      1.529036  
      88A      1.555880    89A      1.649025    90A      1.684084  
      91A      1.699479    92A      1.703415    93A      1.727761  
      94A      1.736859    95A      1.790739    96A      1.795012  
      97A      1.808125    98A      1.853894    99A      1.943426  
     100A      1.959323   101A      2.027418   102A      2.076891  
     103A      2.097761   104A      2.135541   105A      2.164201  
     106A      2.215739   107A      2.377931   108A      2.464931  
     109A      2.496348   110A      2.505304   111A      2.557140  
     112A      2.564502   113A      2.588790   114A      2.623843  
     115A      2.635096   116A      2.637379   117A      2.673021  
     118A      2.688047   119A      2.710225   120A      2.775331  
     121A      2.797971   122A      2.818228   123A      2.900874  
     124A      2.914457   125A      2.922399   126A      2.934794  
     127A      2.990858   128A      3.013901   129A      3.036071  
     130A      3.102375   131A      3.114441   132A      3.135994  
     133A      3.166537   134A      3.215055   135A      3.285954  
     136A      3.297376   137A      3.360445   138A      3.393323  
     139A      3.420207   140A      3.492641   141A      3.560512  
     142A      3.638677   143A      3.695887   144A      3.730279  
     145A      3.830279   146A      3.925456   147A      3.954494  
     148A      3.998469   149A      4.152688   150A      4.257528  
     151A      4.264509   152A      4.291216   153A      4.378246  
     154A      4.396361   155A      4.414378   156A      4.417741  
     157A      4.448146   158A      4.501415   159A      4.507401  
     160A      4.538228   161A      4.563489   162A      4.587425  
     163A      4.620828   164A      4.621119   165A      4.702731  
     166A      4.715385   167A      4.770514   168A      4.817208  
     169A      4.965343   170A      5.040909   171A      5.185243  
     172A      5.217007   173A      5.305927   174A      5.328328  
     175A      5.413563   176A      5.445546   177A      5.449061  
     178A      5.513032   179A      5.590450   180A      5.594381  
     181A      5.677586   182A      5.707790   183A      5.815598  
     184A      5.849279   185A      5.862219   186A      6.137866  
     187A      6.318589   188A      6.429541   189A      6.494902  
     190A      6.726285   191A      6.739093   192A      6.986024  
     193A      6.987705   194A      7.117739   195A      7.131359  
     196A      7.296499   197A      7.355394   198A      7.439945  
     199A      7.472609   200A      7.484359   201A      7.487579  
     202A      7.503579   203A      7.505506   204A      7.575628  
     205A      7.589669   206A      7.680741   207A      7.686068  
     208A      7.814787   209A      7.815550   210A      8.088541  
     211A      8.144056   212A      8.163625   213A      8.182989  
     214A      8.916461   215A      8.921806   216A      9.256249  
     217A      9.363009   218A      9.392875   219A      9.416414  
     220A      9.487857   221A      9.549445   222A      9.794086  
     223A      9.804588   224A      9.824054   225A      9.879045  
     226A      9.920750   227A     10.001422   228A     13.748625  
     229A     16.327543   230A     16.538662  

    Final Occupation by Irrep:
              A 
    DOCC [    15 ]
    NA   [    15 ]
    NB   [    15 ]

  @DF-RHF Final Energy:  -251.63190756851088

   => Energetics <=

    Nuclear Repulsion Energy =             69.3910522496732085
    One-Electron Energy =                -495.1978950818797784
    Two-Electron Energy =                 174.1749352636957155
    Total Energy =                       -251.6319075685108828

Computation Completed


Properties will be evaluated at   0.000000,   0.000000,   0.000000 [a0]

Properties computed using the SCF density matrix


 Multipole Moments:

 ------------------------------------------------------------------------------------
     Multipole            Electronic (a.u.)      Nuclear  (a.u.)        Total (a.u.)
 ------------------------------------------------------------------------------------

 L = 1.  Multiply by 2.5417464519 to convert [e a0] to [Debye]
 Dipole X            :        -38.9699130           36.0595385           -2.9103745
 Dipole Y            :         -0.0000000            0.0000000           -0.0000000
 Dipole Z            :          0.0000000            0.0000000            0.0000000
 Magnitude           :                                                    2.9103745

 ------------------------------------------------------------------------------------

*** tstop() called on ddmfs1 at Mon Jan 22 03:15:09 2024
Module time:
	user time   =      20.68 seconds =       0.34 minutes
	system time =       0.77 seconds =       0.01 minutes
	total time  =          1 seconds =       0.02 minutes
Total time:
	user time   =     185.41 seconds =       3.09 minutes
	system time =       6.98 seconds =       0.12 minutes
	total time  =         12 seconds =       0.20 minutes

*** tstart() called on ddmfs1
*** at Mon Jan 22 03:15:09 2024


  //>>>>>>>>>>>>>>>>>>>>>>>>>>>>>>>>>>>//
  //               DFMP2               //
  //<<<<<<<<<<<<<<<<<<<<<<<<<<<<<<<<<<<//

   => Loading Basis Set <=

    Name: (AUG-CC-PVTZ AUX)
    Role: RIFIT
    Keyword: DF_BASIS_MP2
    atoms 1        entry F          line   322 file /ddmfs1b/softs/psi4conda/share/psi4/basis/aug-cc-pvtz-ri.gbs 
    atoms 2, 5     entry O          line   264 file /ddmfs1b/softs/psi4conda/share/psi4/basis/aug-cc-pvtz-ri.gbs 
    atoms 3-4, 6-7 entry H          line    30 file /ddmfs1b/softs/psi4conda/share/psi4/basis/aug-cc-pvtz-ri.gbs 

	 --------------------------------------------------------
	                          DF-MP2                         
	      2nd-Order Density-Fitted Moller-Plesset Theory     
	              RMP2 Wavefunction,  20 Threads             
	                                                         
	        Rob Parrish, Justin Turney, Andy Simmonett,      
	           Ed Hohenstein, and C. David Sherrill          
	 --------------------------------------------------------

   => Auxiliary Basis Set <=

  Basis Set: (AUG-CC-PVTZ AUX)
    Blend: AUG-CC-PVTZ-RI
    Number of shells: 140
    Number of basis functions: 502
    Number of Cartesian functions: 628
    Spherical Harmonics?: true
    Max angular momentum: 4

	 --------------------------------------------------------
	                 NBF =   230, NAUX =   502
	 --------------------------------------------------------
	   CLASS    FOCC     OCC    AOCC    AVIR     VIR    FVIR
	   PAIRS       0      15      15     215     215       0
	 --------------------------------------------------------

	-----------------------------------------------------------
	 ==================> DF-MP2 Energies <==================== 
	-----------------------------------------------------------
	 Reference Energy          =    -251.6319075685108828 [Eh]
	 Singles Energy            =      -0.0000000000000000 [Eh]
	 Same-Spin Energy          =      -0.2232532294239938 [Eh]
	 Opposite-Spin Energy      =      -0.6636423031791561 [Eh]
	 Correlation Energy        =      -0.8868955326031499 [Eh]
	 Total Energy              =    -252.5188031011140311 [Eh]
	-----------------------------------------------------------
	 ================> DF-SCS-MP2 Energies <================== 
	-----------------------------------------------------------
	 SCS Same-Spin Scale       =       0.3333333333333333 [-]
	 SCS Opposite-Spin Scale   =       1.2000000000000000 [-]
	 SCS Same-Spin Energy      =      -0.0744177431413313 [Eh]
	 SCS Opposite-Spin Energy  =      -0.7963707638149873 [Eh]
	 SCS Correlation Energy    =      -0.8707885069563186 [Eh]
	 SCS Total Energy          =    -252.5026960754672132 [Eh]
	-----------------------------------------------------------


*** tstop() called on ddmfs1 at Mon Jan 22 03:15:10 2024
Module time:
	user time   =       7.96 seconds =       0.13 minutes
	system time =       0.39 seconds =       0.01 minutes
	total time  =          1 seconds =       0.02 minutes
Total time:
	user time   =     193.38 seconds =       3.22 minutes
	system time =       7.37 seconds =       0.12 minutes
	total time  =         13 seconds =       0.22 minutes

    Psi4 stopped on: Monday, 22 January 2024 03:15AM
    Psi4 wall time for execution: 0:00:01.95


  //>>>>>>>>>>>>>>>>>>>>>>>>>>>>>>>>>>>//
  //          ManyBody Results         //
  //<<<<<<<<<<<<<<<<<<<<<<<<<<<<<<<<<<<//


   ==> N-Body: Counterpoise Corrected (CP) energies <==

        n-Body     Total Energy            Interaction Energy                          N-body Contribution to Interaction Energy
                   [Eh]                    [Eh]                  [kcal/mol]            [Eh]                  [kcal/mol]
             1  N/A                         0.000000000000        0.000000000000        0.000000000000        0.000000000000
             2  N/A                        -0.077334945129      -48.528410722654       -0.077334945129      -48.528410722654
  FULL/RTN   3  N/A                        -0.073261799007      -45.972472942994        0.004073146122        2.555937779660


    Psi4 stopped on: Monday, 22 January 2024 03:15AM
    Psi4 wall time for execution: 0:00:15.86

*** Psi4 exiting successfully. Buy a developer a beer!
