
    -----------------------------------------------------------------------
          Psi4: An Open-Source Ab Initio Electronic Structure Package
                               Psi4 1.8.2 release

                         Git: Rev {} zzzzzzz 


    D. G. A. Smith, L. A. Burns, A. C. Simmonett, R. M. Parrish,
    M. C. Schieber, R. Galvelis, P. Kraus, H. Kruse, R. Di Remigio,
    A. Alenaizan, A. M. James, S. Lehtola, J. P. Misiewicz, M. Scheurer,
    R. A. Shaw, J. B. Schriber, Y. Xie, Z. L. Glick, D. A. Sirianni,
    J. S. O'Brien, J. M. Waldrop, A. Kumar, E. G. Hohenstein,
    B. P. Pritchard, B. R. Brooks, H. F. Schaefer III, A. Yu. Sokolov,
    K. Patkowski, A. E. DePrince III, U. Bozkaya, R. A. King,
    F. A. Evangelista, J. M. Turney, T. D. Crawford, C. D. Sherrill,
    J. Chem. Phys. 152(18) 184108 (2020). https://doi.org/10.1063/5.0006002

                            Additional Code Authors
    E. T. Seidl, C. L. Janssen, E. F. Valeev, M. L. Leininger,
    J. F. Gonthier, R. M. Richard, H. R. McAlexander, M. Saitow, X. Wang,
    P. Verma, M. H. Lechner, A. Jiang, S. Behnle, A. G. Heide,
    M. F. Herbst, and D. L. Poole

             Previous Authors, Complete List of Code Contributors,
                       and Citations for Specific Modules
    https://github.com/psi4/psi4/blob/master/codemeta.json
    https://github.com/psi4/psi4/graphs/contributors
    http://psicode.org/psi4manual/master/introduction.html#citing-psifour

    -----------------------------------------------------------------------


    Psi4 started on: Monday, 22 January 2024 11:20AM

    Process ID: 39370
    Host:       ddmfs1
    PSIDATADIR: /ddmfs1b/softs/psi4conda/share/psi4
    Memory:     500.0 MiB
    Threads:    20
    
  ==> Input File <==

--------------------------------------------------------------------------
MEMORY 60 GB

molecule dimer {
0 1
Gh(Cl)     3.480851     0.000000     0.000000
Gh(O)      0.000000    -0.107289     1.572847
Gh(H)     -0.369135     0.578119     1.010976
Gh(H)      0.913486    -0.160341     1.215831
O          0.000000     0.107289    -1.572847
H         -0.369135    -0.578119    -1.010976
H          0.913486     0.160341    -1.215831

units ang
no_reorient
no_com
symmetry c1
}

set {
basis        aug-cc-pVTZ
scf_type     df
}

energy("mp2")
--------------------------------------------------------------------------

  Memory set to  55.879 GiB by Python driver.

Scratch directory: /ddmfs1a/scratch/
   => Libint2 <=

    Primary   basis highest AM E, G, H:  5, 4, 3
    Auxiliary basis highest AM E, G, H:  6, 5, 4
    Onebody   basis highest AM E, G, H:  6, 5, 4
    Solid Harmonics ordering:            gaussian

*** tstart() called on ddmfs1
*** at Mon Jan 22 11:20:39 2024

   => Loading Basis Set <=

    Name: AUG-CC-PVTZ
    Role: ORBITAL
    Keyword: BASIS
    atoms 1        entry CL         line   988 file /ddmfs1b/softs/psi4conda/share/psi4/basis/aug-cc-pvtz.gbs 
    atoms 2, 5     entry O          line   331 file /ddmfs1b/softs/psi4conda/share/psi4/basis/aug-cc-pvtz.gbs 
    atoms 3-4, 6-7 entry H          line    40 file /ddmfs1b/softs/psi4conda/share/psi4/basis/aug-cc-pvtz.gbs 


         ---------------------------------------------------------
                                   SCF
               by Justin Turney, Rob Parrish, Andy Simmonett
                          and Daniel G. A. Smith
                              RHF Reference
                       20 Threads,  57220 MiB Core
         ---------------------------------------------------------

  ==> Geometry <==

    Molecular point group: c1
    Full point group: C1

    Geometry (in Angstrom), charge = 0, multiplicity = 1:

       Center              X                  Y                   Z               Mass       
    ------------   -----------------  -----------------  -----------------  -----------------
      Gh(CL)          3.480851000000     0.000000000000     0.000000000000    34.968852682000
      Gh(O)           0.000000000000    -0.107289000000     1.572847000000    15.994914619570
      Gh(H)          -0.369135000000     0.578119000000     1.010976000000     1.007825032230
      Gh(H)           0.913486000000    -0.160341000000     1.215831000000     1.007825032230
         O            0.000000000000     0.107289000000    -1.572847000000    15.994914619570
         H           -0.369135000000    -0.578119000000    -1.010976000000     1.007825032230
         H            0.913486000000     0.160341000000    -1.215831000000     1.007825032230

  Running in c1 symmetry.

  Rotational constants: A =      0.19769  B =      0.03953  C =      0.03305 [cm^-1]
  Rotational constants: A =   5926.70777  B =   1184.97565  C =    990.77673 [MHz]
  Nuclear repulsion =    9.073743559405912

  Charge       = 0
  Multiplicity = 1
  Electrons    = 10
  Nalpha       = 5
  Nbeta        = 5

  ==> Algorithm <==

  SCF Algorithm Type is DF.
  DIIS enabled.
  MOM disabled.
  Fractional occupation disabled.
  Guess Type is SAD.
  Energy threshold   = 1.00e-08
  Density threshold  = 1.00e-08
  Integral threshold = 1.00e-12

  ==> Primary Basis <==

  Basis Set: AUG-CC-PVTZ
    Blend: AUG-CC-PVTZ
    Number of shells: 80
    Number of basis functions: 234
    Number of Cartesian functions: 269
    Spherical Harmonics?: true
    Max angular momentum: 3

   => Loading Basis Set <=

    Name: (AUG-CC-PVTZ AUX)
    Role: JKFIT
    Keyword: DF_BASIS_SCF
    atoms 1        entry CL         line   816 file /ddmfs1b/softs/psi4conda/share/psi4/basis/aug-cc-pvtz-jkfit.gbs 
    atoms 2, 5     entry O          line   286 file /ddmfs1b/softs/psi4conda/share/psi4/basis/aug-cc-pvtz-jkfit.gbs 
    atoms 3-4, 6-7 entry H          line    70 file /ddmfs1b/softs/psi4conda/share/psi4/basis/aug-cc-pvtz-jkfit.gbs 

  ==> Integral Setup <==

  DFHelper Memory: AOs need 0.238 GiB; user supplied 41.910 GiB. 
  Using in-core AOs.

  ==> MemDFJK: Density-Fitted J/K Matrices <==

    J tasked:                   Yes
    K tasked:                   Yes
    wK tasked:                   No
    OpenMP threads:              20
    Memory [MiB]:             42915
    Algorithm:                 Core
    Schwarz Cutoff:           1E-12
    Mask sparsity (%):       1.3989
    Fitting Condition:        1E-10

   => Auxiliary Basis Set <=

  Basis Set: (AUG-CC-PVTZ AUX)
    Blend: AUG-CC-PVTZ-JKFIT
    Number of shells: 158
    Number of basis functions: 538
    Number of Cartesian functions: 662
    Spherical Harmonics?: true
    Max angular momentum: 4

  Minimum eigenvalue in the overlap matrix is 2.7111817945E-04.
  Reciprocal condition number of the overlap matrix is 2.6456105678E-05.
    Using symmetric orthogonalization.

  ==> Pre-Iterations <==

  SCF Guess: Superposition of Atomic Densities via on-the-fly atomic UHF (no occupation information).

   -------------------------
    Irrep   Nso     Nmo    
   -------------------------
     A        234     234 
   -------------------------
    Total     234     234
   -------------------------

  ==> Iterations <==

                           Total Energy        Delta E     RMS |[F,P]|

   @DF-RHF iter SAD:   -75.46600622949042   -7.54660e+01   0.00000e+00 
   @DF-RHF iter   1:   -75.97321438439062   -5.07208e-01   1.99921e-03 ADIIS/DIIS
   @DF-RHF iter   2:   -76.02546075301322   -5.22464e-02   1.38670e-03 ADIIS/DIIS
   @DF-RHF iter   3:   -76.05815531826491   -3.26946e-02   9.43102e-05 DIIS
   @DF-RHF iter   4:   -76.05855908318722   -4.03765e-04   2.31632e-05 DIIS
   @DF-RHF iter   5:   -76.05858627197603   -2.71888e-05   5.40480e-06 DIIS
   @DF-RHF iter   6:   -76.05858857673432   -2.30476e-06   1.17161e-06 DIIS
   @DF-RHF iter   7:   -76.05858869365404   -1.16920e-07   1.99147e-07 DIIS
   @DF-RHF iter   8:   -76.05858869655982   -2.90578e-09   3.34442e-08 DIIS
   @DF-RHF iter   9:   -76.05858869662367   -6.38494e-11   8.11986e-09 DIIS
  Energy and wave function converged.


  ==> Post-Iterations <==

    Orbital Energies [Eh]
    ---------------------

    Doubly Occupied:                                                      

       1A    -20.571296     2A     -1.349422     3A     -0.702635  
       4A     -0.589904     5A     -0.510389  

    Virtual:                                                              

       6A      0.020610     7A      0.042916     8A      0.050526  
       9A      0.053612    10A      0.091599    11A      0.095990  
      12A      0.108176    13A      0.111910    14A      0.138003  
      15A      0.148848    16A      0.160566    17A      0.169232  
      18A      0.182477    19A      0.194209    20A      0.203220  
      21A      0.229288    22A      0.254889    23A      0.268021  
      24A      0.273131    25A      0.282010    26A      0.312910  
      27A      0.313438    28A      0.332767    29A      0.348996  
      30A      0.362496    31A      0.382263    32A      0.390203  
      33A      0.410513    34A      0.416464    35A      0.427932  
      36A      0.440233    37A      0.448004    38A      0.458727  
      39A      0.478621    40A      0.482634    41A      0.500422  
      42A      0.513929    43A      0.541655    44A      0.558957  
      45A      0.607849    46A      0.618282    47A      0.671082  
      48A      0.691624    49A      0.700234    50A      0.728266  
      51A      0.736252    52A      0.753389    53A      0.761553  
      54A      0.784877    55A      0.808521    56A      0.837356  
      57A      0.841631    58A      0.848876    59A      0.881679  
      60A      0.906609    61A      0.917603    62A      0.926088  
      63A      0.942234    64A      0.946413    65A      0.976144  
      66A      0.988346    67A      1.000621    68A      1.022412  
      69A      1.030698    70A      1.048941    71A      1.066014  
      72A      1.075310    73A      1.099033    74A      1.113753  
      75A      1.160637    76A      1.182712    77A      1.191935  
      78A      1.217984    79A      1.242667    80A      1.263243  
      81A      1.280548    82A      1.297516    83A      1.306117  
      84A      1.317249    85A      1.332725    86A      1.336917  
      87A      1.375093    88A      1.396525    89A      1.412423  
      90A      1.439809    91A      1.445374    92A      1.470004  
      93A      1.472555    94A      1.479372    95A      1.499927  
      96A      1.528672    97A      1.537501    98A      1.558817  
      99A      1.575611   100A      1.586239   101A      1.612718  
     102A      1.656324   103A      1.668748   104A      1.707039  
     105A      1.722118   106A      1.755646   107A      1.775470  
     108A      1.824829   109A      1.856407   110A      1.883778  
     111A      1.903608   112A      1.935210   113A      1.975423  
     114A      2.093865   115A      2.106406   116A      2.338623  
     117A      2.391029   118A      2.404166   119A      2.440901  
     120A      2.461139   121A      2.501517   122A      2.534140  
     123A      2.546385   124A      2.565239   125A      2.594397  
     126A      2.621911   127A      2.662523   128A      2.663842  
     129A      2.702140   130A      2.720407   131A      2.768375  
     132A      2.828480   133A      2.854831   134A      2.897164  
     135A      2.924863   136A      2.927396   137A      2.941812  
     138A      3.178613   139A      3.208601   140A      3.277126  
     141A      3.332653   142A      3.373975   143A      3.585895  
     144A      3.708238   145A      3.723824   146A      3.827231  
     147A      3.914104   148A      3.925883   149A      3.931825  
     150A      3.973062   151A      3.982211   152A      3.985080  
     153A      4.029560   154A      4.038466   155A      4.092687  
     156A      4.127455   157A      4.170921   158A      4.216180  
     159A      4.244782   160A      4.281951   161A      4.316862  
     162A      4.370241   163A      4.379744   164A      4.438728  
     165A      4.440805   166A      4.469150   167A      4.491631  
     168A      4.525271   169A      4.589611   170A      4.621910  
     171A      4.665218   172A      4.671558   173A      4.694958  
     174A      4.714551   175A      4.727973   176A      4.770499  
     177A      4.802247   178A      4.817136   179A      4.912555  
     180A      4.969994   181A      4.989925   182A      5.091211  
     183A      5.142985   184A      5.209150   185A      5.285868  
     186A      5.292195   187A      5.373839   188A      5.537974  
     189A      5.552966   190A      5.590749   191A      5.659058  
     192A      5.667418   193A      5.900229   194A      6.129803  
     195A      6.294613   196A      6.383445   197A      6.530821  
     198A      6.586646   199A      6.818795   200A      6.981884  
     201A      7.041676   202A      7.193461   203A      7.263978  
     204A      7.308661   205A      7.337265   206A      7.399576  
     207A      7.442854   208A      7.624864   209A      7.746424  
     210A      7.872548   211A      7.895442   212A      7.988459  
     213A      8.093498   214A      8.137038   215A      8.285746  
     216A      8.741090   217A      8.802735   218A      8.863530  
     219A      9.704853   220A      9.884665   221A     10.007039  
     222A     10.258554   223A     11.180896   224A     11.684962  
     225A     12.023801   226A     13.581512   227A     13.831430  
     228A     14.176071   229A     16.086856   230A     27.720237  
     231A     27.817594   232A     27.998306   233A     65.277473  
     234A    160.784122  

    Final Occupation by Irrep:
              A 
    DOCC [     5 ]
    NA   [     5 ]
    NB   [     5 ]

  @DF-RHF Final Energy:   -76.05858869662367

   => Energetics <=

    Nuclear Repulsion Energy =              9.0737435594059122
    One-Electron Energy =                -122.8173702633514921
    Two-Electron Energy =                  37.6850380073219213
    Total Energy =                        -76.0585886966236586

Computation Completed


Properties will be evaluated at   0.000000,   0.000000,   0.000000 [a0]

Properties computed using the SCF density matrix


 Multipole Moments:

 ------------------------------------------------------------------------------------
     Multipole            Electronic (a.u.)      Nuclear  (a.u.)        Total (a.u.)
 ------------------------------------------------------------------------------------

 L = 1.  Multiply by 2.5417464519 to convert [e a0] to [Debye]
 Dipole X            :         -0.6772678            1.0286743            0.3514065
 Dipole Y            :         -1.2469794            0.8324886           -0.4144908
 Dipole Z            :         28.5861493          -27.9860559            0.6000934
 Magnitude           :                                                    0.8095686

 ------------------------------------------------------------------------------------

*** tstop() called on ddmfs1 at Mon Jan 22 11:20:40 2024
Module time:
	user time   =      23.78 seconds =       0.40 minutes
	system time =       1.80 seconds =       0.03 minutes
	total time  =          1 seconds =       0.02 minutes
Total time:
	user time   =      23.78 seconds =       0.40 minutes
	system time =       1.80 seconds =       0.03 minutes
	total time  =          1 seconds =       0.02 minutes

*** tstart() called on ddmfs1
*** at Mon Jan 22 11:20:40 2024


  //>>>>>>>>>>>>>>>>>>>>>>>>>>>>>>>>>>>//
  //               DFMP2               //
  //<<<<<<<<<<<<<<<<<<<<<<<<<<<<<<<<<<<//

   => Loading Basis Set <=

    Name: (AUG-CC-PVTZ AUX)
    Role: RIFIT
    Keyword: DF_BASIS_MP2
    atoms 1        entry CL         line   742 file /ddmfs1b/softs/psi4conda/share/psi4/basis/aug-cc-pvtz-ri.gbs 
    atoms 2, 5     entry O          line   264 file /ddmfs1b/softs/psi4conda/share/psi4/basis/aug-cc-pvtz-ri.gbs 
    atoms 3-4, 6-7 entry H          line    30 file /ddmfs1b/softs/psi4conda/share/psi4/basis/aug-cc-pvtz-ri.gbs 

	 --------------------------------------------------------
	                          DF-MP2                         
	      2nd-Order Density-Fitted Moller-Plesset Theory     
	              RMP2 Wavefunction,  20 Threads             
	                                                         
	        Rob Parrish, Justin Turney, Andy Simmonett,      
	           Ed Hohenstein, and C. David Sherrill          
	 --------------------------------------------------------

   => Auxiliary Basis Set <=

  Basis Set: (AUG-CC-PVTZ AUX)
    Blend: AUG-CC-PVTZ-RI
    Number of shells: 149
    Number of basis functions: 543
    Number of Cartesian functions: 683
    Spherical Harmonics?: true
    Max angular momentum: 4

	 --------------------------------------------------------
	                 NBF =   234, NAUX =   543
	 --------------------------------------------------------
	   CLASS    FOCC     OCC    AOCC    AVIR     VIR    FVIR
	   PAIRS       0       5       5     229     229       0
	 --------------------------------------------------------

	-----------------------------------------------------------
	 ==================> DF-MP2 Energies <==================== 
	-----------------------------------------------------------
	 Reference Energy          =     -76.0585886966236728 [Eh]
	 Singles Energy            =      -0.0000000000000000 [Eh]
	 Same-Spin Energy          =      -0.0687137750292632 [Eh]
	 Opposite-Spin Energy      =      -0.2166563828974819 [Eh]
	 Correlation Energy        =      -0.2853701579267451 [Eh]
	 Total Energy              =     -76.3439588545504222 [Eh]
	-----------------------------------------------------------
	 ================> DF-SCS-MP2 Energies <================== 
	-----------------------------------------------------------
	 SCS Same-Spin Scale       =       0.3333333333333333 [-]
	 SCS Opposite-Spin Scale   =       1.2000000000000000 [-]
	 SCS Same-Spin Energy      =      -0.0229045916764211 [Eh]
	 SCS Opposite-Spin Energy  =      -0.2599876594769782 [Eh]
	 SCS Correlation Energy    =      -0.2828922511533993 [Eh]
	 SCS Total Energy          =     -76.3414809477770717 [Eh]
	-----------------------------------------------------------


*** tstop() called on ddmfs1 at Mon Jan 22 11:20:42 2024
Module time:
	user time   =       8.98 seconds =       0.15 minutes
	system time =       0.68 seconds =       0.01 minutes
	total time  =          2 seconds =       0.03 minutes
Total time:
	user time   =      32.78 seconds =       0.55 minutes
	system time =       2.48 seconds =       0.04 minutes
	total time  =          3 seconds =       0.05 minutes

    Psi4 stopped on: Monday, 22 January 2024 11:20AM
    Psi4 wall time for execution: 0:00:03.30

*** Psi4 exiting successfully. Buy a developer a beer!
