
    -----------------------------------------------------------------------
          Psi4: An Open-Source Ab Initio Electronic Structure Package
                               Psi4 1.9 release

                         Git: Rev {} zzzzzzz 


    D. G. A. Smith, L. A. Burns, A. C. Simmonett, R. M. Parrish,
    M. C. Schieber, R. Galvelis, P. Kraus, H. Kruse, R. Di Remigio,
    A. Alenaizan, A. M. James, S. Lehtola, J. P. Misiewicz, M. Scheurer,
    R. A. Shaw, J. B. Schriber, Y. Xie, Z. L. Glick, D. A. Sirianni,
    J. S. O'Brien, J. M. Waldrop, A. Kumar, E. G. Hohenstein,
    B. P. Pritchard, B. R. Brooks, H. F. Schaefer III, A. Yu. Sokolov,
    K. Patkowski, A. E. DePrince III, U. Bozkaya, R. A. King,
    F. A. Evangelista, J. M. Turney, T. D. Crawford, C. D. Sherrill,
    J. Chem. Phys. 152(18) 184108 (2020). https://doi.org/10.1063/5.0006002

                            Additional Code Authors
    E. T. Seidl, C. L. Janssen, E. F. Valeev, M. L. Leininger,
    J. F. Gonthier, R. M. Richard, H. R. McAlexander, M. Saitow, X. Wang,
    P. Verma, M. H. Lechner, A. Jiang, S. Behnle, A. G. Heide,
    M. F. Herbst, and D. L. Poole

             Previous Authors, Complete List of Code Contributors,
                       and Citations for Specific Modules
    https://github.com/psi4/psi4/blob/master/codemeta.json
    https://github.com/psi4/psi4/graphs/contributors
    http://psicode.org/psi4manual/master/introduction.html#citing-psifour

    -----------------------------------------------------------------------


    Psi4 started on: Saturday, 30 December 2023 04:55PM

    Process ID: 211291
    Host:       moses-razer
    PSIDATADIR: /home/kchung25/anaconda3/envs/psi4_19/share/psi4
    Memory:     500.0 MiB
    Threads:    6
    
  ==> Input File <==

--------------------------------------------------------------------------
MEMORY 60 GB

molecule dimer {
-1 1
Cl     3.213094     0.000000     0.000000
--
0 1
O      0.000000    -0.107289     1.572847
H     -0.369135     0.578119     1.010976
H      0.913486    -0.160341     1.215831
O      0.000000     0.107289    -1.572847
H     -0.369135    -0.578119    -1.010976
H      0.913486     0.160341    -1.215831

units ang
no_reorient
no_com
symmetry c1
}

set {
basis        aug-cc-pVTZ
scf_type     df
}

energy("mp2", bsse_type="cp")
--------------------------------------------------------------------------

  Memory set to  55.879 GiB by Python driver.

Scratch directory: /scratch/

  //>>>>>>>>>>>>>>>>>>>>>>>>>>>>>>>>>>>>>//
  // ManyBody Setup: N-Body Levels [1, 2]//
  //<<<<<<<<<<<<<<<<<<<<<<<<<<<<<<<<<<<<<//

        Number of 1-body computations:     2
        Number of 2-body computations:     1

    -----------------------------------------------------------------------
          Psi4: An Open-Source Ab Initio Electronic Structure Package
                               Psi4 1.9 release

                         Git: Rev {} zzzzzzz 


    D. G. A. Smith, L. A. Burns, A. C. Simmonett, R. M. Parrish,
    M. C. Schieber, R. Galvelis, P. Kraus, H. Kruse, R. Di Remigio,
    A. Alenaizan, A. M. James, S. Lehtola, J. P. Misiewicz, M. Scheurer,
    R. A. Shaw, J. B. Schriber, Y. Xie, Z. L. Glick, D. A. Sirianni,
    J. S. O'Brien, J. M. Waldrop, A. Kumar, E. G. Hohenstein,
    B. P. Pritchard, B. R. Brooks, H. F. Schaefer III, A. Yu. Sokolov,
    K. Patkowski, A. E. DePrince III, U. Bozkaya, R. A. King,
    F. A. Evangelista, J. M. Turney, T. D. Crawford, C. D. Sherrill,
    J. Chem. Phys. 152(18) 184108 (2020). https://doi.org/10.1063/5.0006002

                            Additional Code Authors
    E. T. Seidl, C. L. Janssen, E. F. Valeev, M. L. Leininger,
    J. F. Gonthier, R. M. Richard, H. R. McAlexander, M. Saitow, X. Wang,
    P. Verma, M. H. Lechner, A. Jiang, S. Behnle, A. G. Heide,
    M. F. Herbst, and D. L. Poole

             Previous Authors, Complete List of Code Contributors,
                       and Citations for Specific Modules
    https://github.com/psi4/psi4/blob/master/codemeta.json
    https://github.com/psi4/psi4/graphs/contributors
    http://psicode.org/psi4manual/master/introduction.html#citing-psifour

    -----------------------------------------------------------------------


    Psi4 started on: Saturday, 30 December 2023 04:55PM

    Process ID: 211291
    Host:       moses-razer
    PSIDATADIR: /home/kchung25/anaconda3/envs/psi4_19/share/psi4
    Memory:     55.9 GiB
    Threads:    6
    
  ==> Input QCSchema <==

--------------------------------------------------------------------------
{'driver': 'energy',
 'extras': {'psiapi': True, 'wfn_qcvars_only': True},
 'id': None,
 'keywords': {'SCF_TYPE': 'DF', 'function_kwargs': {}},
 'model': {'basis': 'aug-cc-pvtz', 'method': 'mp2'},
 'molecule': {'atom_labels': ['', '', '', '', '', '', ''],
              'atomic_numbers': [17, 8, 1, 1, 8, 1, 1],
              'extras': {},
              'fix_com': True,
              'fix_orientation': True,
              'fix_symmetry': 'c1',
              'fragment_charges': [0.0, 0.0],
              'fragment_multiplicities': [1, 1],
              'fragments': [[0], [1, 2, 3, 4, 5, 6]],
              'geometry': [6.071867675351795, 0.0, 0.0, 0.0, -0.20274682627424492, 2.972250067247969,
                           -0.6975640533208753, 1.0924865779235542, 1.9104677594108534, 1.7262383594399697,
                           -0.3030005766820336, 2.297587604841517, 0.0, 0.20274682627424492, -2.972250067247969,
                           -0.6975640533208753, -1.0924865779235542, -1.9104677594108534, 1.7262383594399697,
                           0.3030005766820336, -2.297587604841517],
              'mass_numbers': [35, 16, 1, 1, 16, 1, 1],
              'masses': [34.968852682, 15.99491461957, 1.00782503223, 1.00782503223, 15.99491461957, 1.00782503223,
                         1.00782503223],
              'molecular_charge': 0.0,
              'molecular_multiplicity': 1,
              'name': 'dimer',
              'provenance': {'creator': 'QCElemental',
                             'routine': 'qcelemental.molparse.from_string',
                             'version': '0.27.1'},
              'real': [False, True, True, True, True, True, True],
              'schema_name': 'qcschema_molecule',
              'schema_version': 2,
              'symbols': ['Cl', 'O', 'H', 'H', 'O', 'H', 'H'],
              'validated': True},
 'protocols': {'stdout': True},
 'provenance': {'creator': 'QCElemental', 'routine': 'qcelemental.models.results', 'version': '0.27.1'},
 'schema_name': 'qcschema_input',
 'schema_version': 1}
--------------------------------------------------------------------------

Scratch directory: /scratch/
   => Libint2 <=

    Primary   basis highest AM E, G, H:  5, 4, 3
    Auxiliary basis highest AM E, G, H:  6, 5, 4
    Onebody   basis highest AM E, G, H:  6, 5, 4
    Solid Harmonics ordering:            gaussian

*** tstart() called on moses-razer
*** at Sat Dec 30 16:55:53 2023

   => Loading Basis Set <=

    Name: AUG-CC-PVTZ
    Role: ORBITAL
    Keyword: BASIS
    atoms 1        entry CL         line   988 file /home/kchung25/anaconda3/envs/p415env/share/psi4/basis/aug-cc-pvtz.gbs 
    atoms 2, 5     entry O          line   331 file /home/kchung25/anaconda3/envs/p415env/share/psi4/basis/aug-cc-pvtz.gbs 
    atoms 3-4, 6-7 entry H          line    40 file /home/kchung25/anaconda3/envs/p415env/share/psi4/basis/aug-cc-pvtz.gbs 


         ---------------------------------------------------------
                                   SCF
               by Justin Turney, Rob Parrish, Andy Simmonett
                          and Daniel G. A. Smith
                              RHF Reference
                        6 Threads,  57220 MiB Core
         ---------------------------------------------------------

  ==> Geometry <==

    Molecular point group: c1
    Full point group: C2

    Geometry (in Bohr), charge = 0, multiplicity = 1:

       Center              X                  Y                   Z               Mass       
    ------------   -----------------  -----------------  -----------------  -----------------
      Gh(CL)          6.071867675352     0.000000000000     0.000000000000    34.968852682000
         O            0.000000000000    -0.202746826274     2.972250067248    15.994914619570
         H           -0.697564053321     1.092486577924     1.910467759411     1.007825032230
         H            1.726238359440    -0.303000576682     2.297587604842     1.007825032230
         O            0.000000000000     0.202746826274    -2.972250067248    15.994914619570
         H           -0.697564053321    -1.092486577924    -1.910467759411     1.007825032230
         H            1.726238359440     0.303000576682    -2.297587604842     1.007825032230

  Running in c1 symmetry.

  Rotational constants: A =      0.19769  B =      0.04634  C =      0.03768 [cm^-1]
  Rotational constants: A =   5926.70777  B =   1389.11944  C =   1129.57281 [MHz]
  Nuclear repulsion =   35.804000521943955

  Charge       = 0
  Multiplicity = 1
  Electrons    = 20
  Nalpha       = 10
  Nbeta        = 10

  ==> Algorithm <==

  SCF Algorithm Type is DF.
  DIIS enabled.
  MOM disabled.
  Fractional occupation disabled.
  Guess Type is SAD.
  Energy threshold   = 1.00e-08
  Density threshold  = 1.00e-08
  Integral threshold = 1.00e-12

  ==> Primary Basis <==

  Basis Set: AUG-CC-PVTZ
    Blend: AUG-CC-PVTZ
    Number of shells: 80
    Number of basis functions: 234
    Number of Cartesian functions: 269
    Spherical Harmonics?: true
    Max angular momentum: 3

   => Loading Basis Set <=

    Name: (AUG-CC-PVTZ AUX)
    Role: JKFIT
    Keyword: DF_BASIS_SCF
    atoms 1        entry CL         line   816 file /home/kchung25/anaconda3/envs/p415env/share/psi4/basis/aug-cc-pvtz-jkfit.gbs 
    atoms 2, 5     entry O          line   286 file /home/kchung25/anaconda3/envs/p415env/share/psi4/basis/aug-cc-pvtz-jkfit.gbs 
    atoms 3-4, 6-7 entry H          line    70 file /home/kchung25/anaconda3/envs/p415env/share/psi4/basis/aug-cc-pvtz-jkfit.gbs 

  ==> Integral Setup <==

  DFHelper Memory: AOs need 0.233 GiB; user supplied 41.910 GiB. 
  Using in-core AOs.

  ==> MemDFJK: Density-Fitted J/K Matrices <==

    J tasked:                   Yes
    K tasked:                   Yes
    wK tasked:                   No
    OpenMP threads:               6
    Memory [MiB]:             42915
    Algorithm:                 Core
    Schwarz Cutoff:           1E-12
    Mask sparsity (%):       0.8949
    Fitting Condition:        1E-10

   => Auxiliary Basis Set <=

  Basis Set: (AUG-CC-PVTZ AUX)
    Blend: AUG-CC-PVTZ-JKFIT
    Number of shells: 158
    Number of basis functions: 538
    Number of Cartesian functions: 662
    Spherical Harmonics?: true
    Max angular momentum: 4

  Minimum eigenvalue in the overlap matrix is 2.5845530401E-04.
  Reciprocal condition number of the overlap matrix is 2.4862820954E-05.
    Using symmetric orthogonalization.

  ==> Pre-Iterations <==

  SCF Guess: Superposition of Atomic Densities via on-the-fly atomic UHF (no occupation information).

   -------------------------
    Irrep   Nso     Nmo    
   -------------------------
     A        234     234 
   -------------------------
    Total     234     234
   -------------------------

  ==> Iterations <==

                           Total Energy        Delta E     RMS |[F,P]|

   @DF-RHF iter SAD:  -151.00436737392585   -1.51004e+02   0.00000e+00 
   @DF-RHF iter   1:  -151.95165796064506   -9.47291e-01   2.77685e-03 DIIS/ADIIS
   @DF-RHF iter   2:  -152.05449299509283   -1.02835e-01   1.89264e-03 DIIS/ADIIS
   @DF-RHF iter   3:  -152.11535455365609   -6.08616e-02   1.36602e-04 DIIS/ADIIS
   @DF-RHF iter   4:  -152.11622917676655   -8.74623e-04   3.27701e-05 DIIS
   @DF-RHF iter   5:  -152.11628541785450   -5.62411e-05   8.19885e-06 DIIS
   @DF-RHF iter   6:  -152.11629066552211   -5.24767e-06   1.77709e-06 DIIS
   @DF-RHF iter   7:  -152.11629092954669   -2.64025e-07   3.21041e-07 DIIS
   @DF-RHF iter   8:  -152.11629093699699   -7.45030e-09   6.32409e-08 DIIS
   @DF-RHF iter   9:  -152.11629093727436   -2.77367e-10   1.84947e-08 DIIS
   @DF-RHF iter  10:  -152.11629093730207   -2.77112e-11   4.57053e-09 DIIS
  Energy and wave function converged.


  ==> Post-Iterations <==

    Orbital Energies [Eh]
    ---------------------

    Doubly Occupied:                                                      

       1A    -20.582457     2A    -20.582454     3A     -1.365372  
       4A     -1.358251     5A     -0.717588     6A     -0.711478  
       7A     -0.611629     8A     -0.594367     9A     -0.527561  
      10A     -0.516198  

    Virtual:                                                              

      11A      0.019337    12A      0.045339    13A      0.051082  
      14A      0.054156    15A      0.091807    16A      0.091833  
      17A      0.102542    18A      0.112392    19A      0.162287  
      20A      0.165982    21A      0.172875    22A      0.177763  
      23A      0.190176    24A      0.198340    25A      0.204348  
      26A      0.235646    27A      0.247442    28A      0.248630  
      29A      0.261263    30A      0.262912    31A      0.300010  
      32A      0.307905    33A      0.344356    34A      0.347076  
      35A      0.366189    36A      0.389608    37A      0.402545  
      38A      0.419270    39A      0.423308    40A      0.435400  
      41A      0.447859    42A      0.470613    43A      0.477571  
      44A      0.484389    45A      0.484904    46A      0.509811  
      47A      0.533673    48A      0.552439    49A      0.559040  
      50A      0.616711    51A      0.623889    52A      0.642167  
      53A      0.667532    54A      0.677445    55A      0.686483  
      56A      0.721120    57A      0.728069    58A      0.732132  
      59A      0.743033    60A      0.782765    61A      0.865140  
      62A      0.868344    63A      0.877735    64A      0.880828  
      65A      0.922171    66A      0.926416    67A      0.946117  
      68A      0.957465    69A      0.964452    70A      0.969856  
      71A      0.993337    72A      1.000721    73A      1.046438  
      74A      1.056303    75A      1.058290    76A      1.067376  
      77A      1.081925    78A      1.082737    79A      1.150516  
      80A      1.152505    81A      1.153991    82A      1.191055  
      83A      1.191970    84A      1.211012    85A      1.241959  
      86A      1.250824    87A      1.275568    88A      1.301676  
      89A      1.321690    90A      1.337902    91A      1.343269  
      92A      1.377977    93A      1.379334    94A      1.398205  
      95A      1.399079    96A      1.454491    97A      1.473106  
      98A      1.473134    99A      1.497155   100A      1.523853  
     101A      1.557812   102A      1.568531   103A      1.571766  
     104A      1.575896   105A      1.620854   106A      1.624234  
     107A      1.625871   108A      1.655349   109A      1.674879  
     110A      1.711635   111A      1.726051   112A      1.767645  
     113A      1.818027   114A      1.885774   115A      1.914956  
     116A      1.973394   117A      2.004063   118A      2.073749  
     119A      2.081492   120A      2.271991   121A      2.367584  
     122A      2.378689   123A      2.407016   124A      2.425550  
     125A      2.425893   126A      2.460006   127A      2.496861  
     128A      2.506327   129A      2.527018   130A      2.560889  
     131A      2.566111   132A      2.574088   133A      2.611073  
     134A      2.705079   135A      2.707338   136A      2.730324  
     137A      2.730952   138A      2.777611   139A      2.852480  
     140A      2.868256   141A      2.881062   142A      2.905143  
     143A      2.910411   144A      2.940150   145A      2.964839  
     146A      3.690902   147A      3.693680   148A      3.795414  
     149A      3.842186   150A      3.901439   151A      3.915765  
     152A      3.920157   153A      3.977711   154A      3.994774  
     155A      3.999306   156A      4.041470   157A      4.052125  
     158A      4.085082   159A      4.105738   160A      4.140328  
     161A      4.149180   162A      4.173360   163A      4.181294  
     164A      4.225204   165A      4.265347   166A      4.272424  
     167A      4.287929   168A      4.304611   169A      4.325205  
     170A      4.353148   171A      4.397586   172A      4.419449  
     173A      4.476989   174A      4.528314   175A      4.556671  
     176A      4.587113   177A      4.649267   178A      4.659342  
     179A      4.670266   180A      4.672075   181A      4.703499  
     182A      4.776971   183A      4.783495   184A      4.807167  
     185A      4.830921   186A      4.964779   187A      5.013294  
     188A      5.128465   189A      5.139667   190A      5.239378  
     191A      5.250865   192A      5.276109   193A      5.284654  
     194A      5.343499   195A      5.406531   196A      5.511537  
     197A      5.548671   198A      5.646904   199A      5.647479  
     200A      6.286617   201A      6.287059   202A      6.517607  
     203A      6.526263   204A      6.793870   205A      6.810925  
     206A      6.958345   207A      7.003942   208A      7.163460  
     209A      7.199579   210A      7.234139   211A      7.269313  
     212A      7.284019   213A      7.320836   214A      7.329160  
     215A      7.349011   216A      7.389950   217A      7.411084  
     218A      7.427776   219A      7.454145   220A      7.631648  
     221A      7.651952   222A      7.857466   223A      7.889160  
     224A      7.975973   225A      7.984536   226A      8.792313  
     227A      8.801376   228A     14.357674   229A     16.223960  
     230A     16.245184   231A     27.710197   232A     27.863945  
     233A     28.031596   234A    160.806289  

    Final Occupation by Irrep:
              A 
    DOCC [    10 ]
    NA   [    10 ]
    NB   [    10 ]

  @DF-RHF Final Energy:  -152.11629093730207

   => Energetics <=

    Nuclear Repulsion Energy =             35.8040005219439550
    One-Electron Energy =                -280.7058730838789415
    Two-Electron Energy =                  92.7855816246329113
    Total Energy =                       -152.1162909373020966

Computation Completed


Properties will be evaluated at   0.000000,   0.000000,   0.000000 [a0]

Properties computed using the SCF density matrix


 Multipole Moments:

 ------------------------------------------------------------------------------------
     Multipole            Electronic (a.u.)      Nuclear  (a.u.)        Total (a.u.)
 ------------------------------------------------------------------------------------

 L = 1.  Multiply by 2.5417464519 to convert [e a0] to [Debye]
 Dipole X            :         -1.3930376            2.0573486            0.6643110
 Dipole Y            :          0.0000000            0.0000000            0.0000000
 Dipole Z            :         -0.0000000            0.0000000           -0.0000000
 Magnitude           :                                                    0.6643110

 ------------------------------------------------------------------------------------

*** tstop() called on moses-razer at Sat Dec 30 16:55:55 2023
Module time:
	user time   =       8.57 seconds =       0.14 minutes
	system time =       0.49 seconds =       0.01 minutes
	total time  =          2 seconds =       0.03 minutes
Total time:
	user time   =       8.57 seconds =       0.14 minutes
	system time =       0.49 seconds =       0.01 minutes
	total time  =          2 seconds =       0.03 minutes

*** tstart() called on moses-razer
*** at Sat Dec 30 16:55:55 2023


  //>>>>>>>>>>>>>>>>>>>>>>>>>>>>>>>>>>>//
  //               DFMP2               //
  //<<<<<<<<<<<<<<<<<<<<<<<<<<<<<<<<<<<//

   => Loading Basis Set <=

    Name: (AUG-CC-PVTZ AUX)
    Role: RIFIT
    Keyword: DF_BASIS_MP2
    atoms 1        entry CL         line   742 file /home/kchung25/anaconda3/envs/p415env/share/psi4/basis/aug-cc-pvtz-ri.gbs 
    atoms 2, 5     entry O          line   264 file /home/kchung25/anaconda3/envs/p415env/share/psi4/basis/aug-cc-pvtz-ri.gbs 
    atoms 3-4, 6-7 entry H          line    30 file /home/kchung25/anaconda3/envs/p415env/share/psi4/basis/aug-cc-pvtz-ri.gbs 

	 --------------------------------------------------------
	                          DF-MP2                         
	      2nd-Order Density-Fitted Moller-Plesset Theory     
	              RMP2 Wavefunction,   6 Threads             
	                                                         
	        Rob Parrish, Justin Turney, Andy Simmonett,      
	           Ed Hohenstein, and C. David Sherrill          
	 --------------------------------------------------------

   => Auxiliary Basis Set <=

  Basis Set: (AUG-CC-PVTZ AUX)
    Blend: AUG-CC-PVTZ-RI
    Number of shells: 149
    Number of basis functions: 543
    Number of Cartesian functions: 683
    Spherical Harmonics?: true
    Max angular momentum: 4

	 --------------------------------------------------------
	                 NBF =   234, NAUX =   543
	 --------------------------------------------------------
	   CLASS    FOCC     OCC    AOCC    AVIR     VIR    FVIR
	   PAIRS       0      10      10     224     224       0
	 --------------------------------------------------------

	-----------------------------------------------------------
	 ==================> DF-MP2 Energies <==================== 
	-----------------------------------------------------------
	 Reference Energy          =    -152.1162909373020682 [Eh]
	 Singles Energy            =      -0.0000000000000000 [Eh]
	 Same-Spin Energy          =      -0.1383331205477440 [Eh]
	 Opposite-Spin Energy      =      -0.4342849818856941 [Eh]
	 Correlation Energy        =      -0.5726181024334380 [Eh]
	 Total Energy              =    -152.6889090397355062 [Eh]
	-----------------------------------------------------------
	 ================> DF-SCS-MP2 Energies <================== 
	-----------------------------------------------------------
	 SCS Same-Spin Scale       =       0.3333333333333333 [-]
	 SCS Opposite-Spin Scale   =       1.2000000000000000 [-]
	 SCS Same-Spin Energy      =      -0.0461110401825813 [Eh]
	 SCS Opposite-Spin Energy  =      -0.5211419782628329 [Eh]
	 SCS Correlation Energy    =      -0.5672530184454143 [Eh]
	 SCS Total Energy          =    -152.6835439557474956 [Eh]
	-----------------------------------------------------------


*** tstop() called on moses-razer at Sat Dec 30 16:55:56 2023
Module time:
	user time   =       3.07 seconds =       0.05 minutes
	system time =       0.20 seconds =       0.00 minutes
	total time  =          1 seconds =       0.02 minutes
Total time:
	user time   =      11.65 seconds =       0.19 minutes
	system time =       0.69 seconds =       0.01 minutes
	total time  =          3 seconds =       0.05 minutes

    Psi4 stopped on: Saturday, 30 December 2023 04:55PM
    Psi4 wall time for execution: 0:00:02.53


    -----------------------------------------------------------------------
          Psi4: An Open-Source Ab Initio Electronic Structure Package
                               Psi4 1.9 release

                         Git: Rev {} zzzzzzz 


    D. G. A. Smith, L. A. Burns, A. C. Simmonett, R. M. Parrish,
    M. C. Schieber, R. Galvelis, P. Kraus, H. Kruse, R. Di Remigio,
    A. Alenaizan, A. M. James, S. Lehtola, J. P. Misiewicz, M. Scheurer,
    R. A. Shaw, J. B. Schriber, Y. Xie, Z. L. Glick, D. A. Sirianni,
    J. S. O'Brien, J. M. Waldrop, A. Kumar, E. G. Hohenstein,
    B. P. Pritchard, B. R. Brooks, H. F. Schaefer III, A. Yu. Sokolov,
    K. Patkowski, A. E. DePrince III, U. Bozkaya, R. A. King,
    F. A. Evangelista, J. M. Turney, T. D. Crawford, C. D. Sherrill,
    J. Chem. Phys. 152(18) 184108 (2020). https://doi.org/10.1063/5.0006002

                            Additional Code Authors
    E. T. Seidl, C. L. Janssen, E. F. Valeev, M. L. Leininger,
    J. F. Gonthier, R. M. Richard, H. R. McAlexander, M. Saitow, X. Wang,
    P. Verma, M. H. Lechner, A. Jiang, S. Behnle, A. G. Heide,
    M. F. Herbst, and D. L. Poole

             Previous Authors, Complete List of Code Contributors,
                       and Citations for Specific Modules
    https://github.com/psi4/psi4/blob/master/codemeta.json
    https://github.com/psi4/psi4/graphs/contributors
    http://psicode.org/psi4manual/master/introduction.html#citing-psifour

    -----------------------------------------------------------------------


    Psi4 started on: Saturday, 30 December 2023 04:55PM

    Process ID: 211291
    Host:       moses-razer
    PSIDATADIR: /home/kchung25/anaconda3/envs/psi4_19/share/psi4
    Memory:     55.9 GiB
    Threads:    6
    
  ==> Input QCSchema <==

--------------------------------------------------------------------------
{'driver': 'energy',
 'extras': {'psiapi': True, 'wfn_qcvars_only': True},
 'id': None,
 'keywords': {'SCF_TYPE': 'DF', 'function_kwargs': {}},
 'model': {'basis': 'aug-cc-pvtz', 'method': 'mp2'},
 'molecule': {'atom_labels': ['', '', '', '', '', '', ''],
              'atomic_numbers': [17, 8, 1, 1, 8, 1, 1],
              'extras': {},
              'fix_com': True,
              'fix_orientation': True,
              'fix_symmetry': 'c1',
              'fragment_charges': [-1.0, 0.0],
              'fragment_multiplicities': [1, 1],
              'fragments': [[0], [1, 2, 3, 4, 5, 6]],
              'geometry': [6.071867675351795, 0.0, 0.0, 0.0, -0.20274682627424492, 2.972250067247969,
                           -0.6975640533208753, 1.0924865779235542, 1.9104677594108534, 1.7262383594399697,
                           -0.3030005766820336, 2.297587604841517, 0.0, 0.20274682627424492, -2.972250067247969,
                           -0.6975640533208753, -1.0924865779235542, -1.9104677594108534, 1.7262383594399697,
                           0.3030005766820336, -2.297587604841517],
              'mass_numbers': [35, 16, 1, 1, 16, 1, 1],
              'masses': [34.968852682, 15.99491461957, 1.00782503223, 1.00782503223, 15.99491461957, 1.00782503223,
                         1.00782503223],
              'molecular_charge': -1.0,
              'molecular_multiplicity': 1,
              'name': 'dimer',
              'provenance': {'creator': 'QCElemental',
                             'routine': 'qcelemental.molparse.from_string',
                             'version': '0.27.1'},
              'real': [True, False, False, False, False, False, False],
              'schema_name': 'qcschema_molecule',
              'schema_version': 2,
              'symbols': ['Cl', 'O', 'H', 'H', 'O', 'H', 'H'],
              'validated': True},
 'protocols': {'stdout': True},
 'provenance': {'creator': 'QCElemental', 'routine': 'qcelemental.models.results', 'version': '0.27.1'},
 'schema_name': 'qcschema_input',
 'schema_version': 1}
--------------------------------------------------------------------------

Scratch directory: /scratch/
   => Libint2 <=

    Primary   basis highest AM E, G, H:  5, 4, 3
    Auxiliary basis highest AM E, G, H:  6, 5, 4
    Onebody   basis highest AM E, G, H:  6, 5, 4
    Solid Harmonics ordering:            gaussian

*** tstart() called on moses-razer
*** at Sat Dec 30 16:55:56 2023

   => Loading Basis Set <=

    Name: AUG-CC-PVTZ
    Role: ORBITAL
    Keyword: BASIS
    atoms 1        entry CL         line   988 file /home/kchung25/anaconda3/envs/p415env/share/psi4/basis/aug-cc-pvtz.gbs 
    atoms 2, 5     entry O          line   331 file /home/kchung25/anaconda3/envs/p415env/share/psi4/basis/aug-cc-pvtz.gbs 
    atoms 3-4, 6-7 entry H          line    40 file /home/kchung25/anaconda3/envs/p415env/share/psi4/basis/aug-cc-pvtz.gbs 


         ---------------------------------------------------------
                                   SCF
               by Justin Turney, Rob Parrish, Andy Simmonett
                          and Daniel G. A. Smith
                              RHF Reference
                        6 Threads,  57220 MiB Core
         ---------------------------------------------------------

  ==> Geometry <==

    Molecular point group: c1
    Full point group: C2

    Geometry (in Bohr), charge = -1, multiplicity = 1:

       Center              X                  Y                   Z               Mass       
    ------------   -----------------  -----------------  -----------------  -----------------
         CL           6.071867675352     0.000000000000     0.000000000000    34.968852682000
      Gh(O)           0.000000000000    -0.202746826274     2.972250067248    15.994914619570
      Gh(H)          -0.697564053321     1.092486577924     1.910467759411     1.007825032230
      Gh(H)           1.726238359440    -0.303000576682     2.297587604842     1.007825032230
      Gh(O)           0.000000000000     0.202746826274    -2.972250067248    15.994914619570
      Gh(H)          -0.697564053321    -1.092486577924    -1.910467759411     1.007825032230
      Gh(H)           1.726238359440     0.303000576682    -2.297587604842     1.007825032230

  Running in c1 symmetry.

  Rotational constants: A =      0.19769  B =      0.04634  C =      0.03768 [cm^-1]
  Rotational constants: A =   5926.70777  B =   1389.11944  C =   1129.57281 [MHz]
  Nuclear repulsion =    0.000000000000000

  Charge       = -1
  Multiplicity = 1
  Electrons    = 18
  Nalpha       = 9
  Nbeta        = 9

  ==> Algorithm <==

  SCF Algorithm Type is DF.
  DIIS enabled.
  MOM disabled.
  Fractional occupation disabled.
  Guess Type is SAD.
  Energy threshold   = 1.00e-08
  Density threshold  = 1.00e-08
  Integral threshold = 1.00e-12

  ==> Primary Basis <==

  Basis Set: AUG-CC-PVTZ
    Blend: AUG-CC-PVTZ
    Number of shells: 80
    Number of basis functions: 234
    Number of Cartesian functions: 269
    Spherical Harmonics?: true
    Max angular momentum: 3

   => Loading Basis Set <=

    Name: (AUG-CC-PVTZ AUX)
    Role: JKFIT
    Keyword: DF_BASIS_SCF
    atoms 1        entry CL         line   816 file /home/kchung25/anaconda3/envs/p415env/share/psi4/basis/aug-cc-pvtz-jkfit.gbs 
    atoms 2, 5     entry O          line   286 file /home/kchung25/anaconda3/envs/p415env/share/psi4/basis/aug-cc-pvtz-jkfit.gbs 
    atoms 3-4, 6-7 entry H          line    70 file /home/kchung25/anaconda3/envs/p415env/share/psi4/basis/aug-cc-pvtz-jkfit.gbs 

  ==> Integral Setup <==

  DFHelper Memory: AOs need 0.233 GiB; user supplied 41.910 GiB. 
  Using in-core AOs.

  ==> MemDFJK: Density-Fitted J/K Matrices <==

    J tasked:                   Yes
    K tasked:                   Yes
    wK tasked:                   No
    OpenMP threads:               6
    Memory [MiB]:             42915
    Algorithm:                 Core
    Schwarz Cutoff:           1E-12
    Mask sparsity (%):       0.8949
    Fitting Condition:        1E-10

   => Auxiliary Basis Set <=

  Basis Set: (AUG-CC-PVTZ AUX)
    Blend: AUG-CC-PVTZ-JKFIT
    Number of shells: 158
    Number of basis functions: 538
    Number of Cartesian functions: 662
    Spherical Harmonics?: true
    Max angular momentum: 4

  Minimum eigenvalue in the overlap matrix is 2.5845530401E-04.
  Reciprocal condition number of the overlap matrix is 2.4862820954E-05.
    Using symmetric orthogonalization.

  ==> Pre-Iterations <==

  SCF Guess: Superposition of Atomic Densities via on-the-fly atomic UHF (no occupation information).

   -------------------------
    Irrep   Nso     Nmo    
   -------------------------
     A        234     234 
   -------------------------
    Total     234     234
   -------------------------

  ==> Iterations <==

                           Total Energy        Delta E     RMS |[F,P]|

   @DF-RHF iter SAD:  -459.11248997109243   -4.59112e+02   0.00000e+00 
   @DF-RHF iter   1:  -459.51388046639943   -4.01390e-01   1.27489e-03 DIIS/ADIIS
   @DF-RHF iter   2:  -459.56475567860923   -5.08752e-02   6.51963e-04 DIIS/ADIIS
   @DF-RHF iter   3:  -459.57345422609154   -8.69855e-03   4.40861e-05 DIIS
   @DF-RHF iter   4:  -459.57351008682690   -5.58607e-05   8.87836e-06 DIIS
   @DF-RHF iter   5:  -459.57351378717692   -3.70035e-06   9.15592e-07 DIIS
   @DF-RHF iter   6:  -459.57351386466127   -7.74843e-08   6.34390e-08 DIIS
   @DF-RHF iter   7:  -459.57351386513352   -4.72255e-10   8.13143e-09 DIIS
  Energy and wave function converged.


  ==> Post-Iterations <==

    Orbital Energies [Eh]
    ---------------------

    Doubly Occupied:                                                      

       1A   -104.506403     2A    -10.229848     3A     -7.695912  
       4A     -7.695892     5A     -7.695872     6A     -0.733497  
       7A     -0.150333     8A     -0.150325     9A     -0.150323  

    Virtual:                                                              

      10A      0.125294    11A      0.143850    12A      0.158562  
      13A      0.176696    14A      0.242637    15A      0.249311  
      16A      0.251362    17A      0.258569    18A      0.279092  
      19A      0.287735    20A      0.293652    21A      0.298717  
      22A      0.309185    23A      0.318293    24A      0.339663  
      25A      0.394476    26A      0.407437    27A      0.416905  
      28A      0.440302    29A      0.449368    30A      0.469775  
      31A      0.490403    32A      0.492513    33A      0.511566  
      34A      0.520729    35A      0.536668    36A      0.537048  
      37A      0.571109    38A      0.591026    39A      0.598066  
      40A      0.625986    41A      0.641120    42A      0.648019  
      43A      0.678380    44A      0.695858    45A      0.724422  
      46A      0.731393    47A      0.834201    48A      0.848263  
      49A      0.858248    50A      0.866196    51A      0.875107  
      52A      0.904815    53A      0.922557    54A      0.930123  
      55A      0.953090    56A      0.963693    57A      0.974621  
      58A      0.981096    59A      1.000557    60A      1.003682  
      61A      1.019141    62A      1.026609    63A      1.055188  
      64A      1.063138    65A      1.094899    66A      1.098267  
      67A      1.124422    68A      1.131210    69A      1.140175  
      70A      1.154601    71A      1.158771    72A      1.178720  
      73A      1.197930    74A      1.218209    75A      1.244516  
      76A      1.257370    77A      1.268590    78A      1.271511  
      79A      1.280360    80A      1.285308    81A      1.311100  
      82A      1.341152    83A      1.371361    84A      1.375131  
      85A      1.398778    86A      1.407487    87A      1.442305  
      88A      1.482087    89A      1.490939    90A      1.510339  
      91A      1.539273    92A      1.545312    93A      1.604097  
      94A      1.625242    95A      1.667390    96A      1.674536  
      97A      1.683210    98A      1.703869    99A      1.739723  
     100A      1.777313   101A      1.799223   102A      1.831287  
     103A      1.858943   104A      1.911713   105A      1.925767  
     106A      1.949044   107A      1.990219   108A      1.997288  
     109A      2.018449   110A      2.046396   111A      2.070168  
     112A      2.075163   113A      2.087936   114A      2.130406  
     115A      2.283917   116A      2.307041   117A      2.607254  
     118A      2.636588   119A      2.636944   120A      2.676985  
     121A      2.682286   122A      2.736318   123A      2.746928  
     124A      2.762872   125A      2.764340   126A      2.816705  
     127A      2.833223   128A      2.849953   129A      2.858213  
     130A      2.871084   131A      2.871984   132A      2.894322  
     133A      2.908923   134A      3.006927   135A      3.008398  
     136A      3.025292   137A      3.052057   138A      3.083717  
     139A      3.087660   140A      3.125056   141A      3.162501  
     142A      3.217436   143A      3.310749   144A      3.354235  
     145A      3.377829   146A      3.379563   147A      3.391324  
     148A      3.410143   149A      3.442061   150A      3.488858  
     151A      3.500187   152A      3.501611   153A      3.541273  
     154A      3.562034   155A      3.570157   156A      3.601285  
     157A      3.640347   158A      3.663018   159A      3.732305  
     160A      3.784596   161A      3.784967   162A      3.972542  
     163A      3.986837   164A      4.581306   165A      4.596357  
     166A      4.602620   167A      4.664928   168A      4.674488  
     169A      4.706856   170A      4.740170   171A      4.770605  
     172A      4.844140   173A      4.872622   174A      4.941825  
     175A      4.946805   176A      4.963337   177A      5.077748  
     178A      5.088311   179A      5.199163   180A      5.273680  
     181A      5.400006   182A      5.412806   183A      5.440137  
     184A      5.718967   185A      5.743407   186A      5.768347  
     187A      5.795398   188A      5.830841   189A      5.832727  
     190A      6.036936   191A      6.097230   192A      6.245979  
     193A      6.319568   194A      6.338497   195A      6.547287  
     196A      6.576390   197A      6.761946   198A      6.776077  
     199A      7.213163   200A      7.215827   201A      7.894051  
     202A      7.898017   203A      8.046984   204A      8.085807  
     205A      8.251152   206A      8.260849   207A      8.287493  
     208A      8.326806   209A      8.439310   210A      8.459056  
     211A      8.896254   212A      8.936546   213A      9.044015  
     214A      9.057644   215A      9.836516   216A      9.917046  
     217A     10.018304   218A     10.076835   219A     10.179832  
     220A     10.185487   221A     10.433323   222A     10.446941  
     223A     11.347078   224A     11.357997   225A     11.851687  
     226A     11.866298   227A     12.199321   228A     12.205473  
     229A     13.764007   230A     13.791082   231A     14.031353  
     232A     14.042243   233A     65.618706   234A     65.855014  

    Final Occupation by Irrep:
              A 
    DOCC [     9 ]
    NA   [     9 ]
    NB   [     9 ]

  @DF-RHF Final Energy:  -459.57351386513352

   => Energetics <=

    Nuclear Repulsion Energy =              0.0000000000000000
    One-Electron Energy =                -641.1302309780775204
    Two-Electron Energy =                 181.5567171129439998
    Total Energy =                       -459.5735138651335205

Computation Completed


Properties will be evaluated at   0.000000,   0.000000,   0.000000 [a0]

Properties computed using the SCF density matrix


 Multipole Moments:

 ------------------------------------------------------------------------------------
     Multipole            Electronic (a.u.)      Nuclear  (a.u.)        Total (a.u.)
 ------------------------------------------------------------------------------------

 L = 1.  Multiply by 2.5417464519 to convert [e a0] to [Debye]
 Dipole X            :       -109.2944111          103.2217505           -6.0726606
 Dipole Y            :          0.0000000            0.0000000            0.0000000
 Dipole Z            :          0.0000000            0.0000000            0.0000000
 Magnitude           :                                                    6.0726606

 ------------------------------------------------------------------------------------

*** tstop() called on moses-razer at Sat Dec 30 16:55:57 2023
Module time:
	user time   =       7.92 seconds =       0.13 minutes
	system time =       0.49 seconds =       0.01 minutes
	total time  =          1 seconds =       0.02 minutes
Total time:
	user time   =      19.87 seconds =       0.33 minutes
	system time =       1.19 seconds =       0.02 minutes
	total time  =          4 seconds =       0.07 minutes

*** tstart() called on moses-razer
*** at Sat Dec 30 16:55:57 2023


  //>>>>>>>>>>>>>>>>>>>>>>>>>>>>>>>>>>>//
  //               DFMP2               //
  //<<<<<<<<<<<<<<<<<<<<<<<<<<<<<<<<<<<//

   => Loading Basis Set <=

    Name: (AUG-CC-PVTZ AUX)
    Role: RIFIT
    Keyword: DF_BASIS_MP2
    atoms 1        entry CL         line   742 file /home/kchung25/anaconda3/envs/p415env/share/psi4/basis/aug-cc-pvtz-ri.gbs 
    atoms 2, 5     entry O          line   264 file /home/kchung25/anaconda3/envs/p415env/share/psi4/basis/aug-cc-pvtz-ri.gbs 
    atoms 3-4, 6-7 entry H          line    30 file /home/kchung25/anaconda3/envs/p415env/share/psi4/basis/aug-cc-pvtz-ri.gbs 

	 --------------------------------------------------------
	                          DF-MP2                         
	      2nd-Order Density-Fitted Moller-Plesset Theory     
	              RMP2 Wavefunction,   6 Threads             
	                                                         
	        Rob Parrish, Justin Turney, Andy Simmonett,      
	           Ed Hohenstein, and C. David Sherrill          
	 --------------------------------------------------------

   => Auxiliary Basis Set <=

  Basis Set: (AUG-CC-PVTZ AUX)
    Blend: AUG-CC-PVTZ-RI
    Number of shells: 149
    Number of basis functions: 543
    Number of Cartesian functions: 683
    Spherical Harmonics?: true
    Max angular momentum: 4

	 --------------------------------------------------------
	                 NBF =   234, NAUX =   543
	 --------------------------------------------------------
	   CLASS    FOCC     OCC    AOCC    AVIR     VIR    FVIR
	   PAIRS       0       9       9     225     225       0
	 --------------------------------------------------------

	-----------------------------------------------------------
	 ==================> DF-MP2 Energies <==================== 
	-----------------------------------------------------------
	 Reference Energy          =    -459.5735138651335205 [Eh]
	 Singles Energy            =      -0.0000000000000000 [Eh]
	 Same-Spin Energy          =      -0.0626712662331932 [Eh]
	 Opposite-Spin Energy      =      -0.1802584934298302 [Eh]
	 Correlation Energy        =      -0.2429297596630235 [Eh]
	 Total Energy              =    -459.8164436247965341 [Eh]
	-----------------------------------------------------------
	 ================> DF-SCS-MP2 Energies <================== 
	-----------------------------------------------------------
	 SCS Same-Spin Scale       =       0.3333333333333333 [-]
	 SCS Opposite-Spin Scale   =       1.2000000000000000 [-]
	 SCS Same-Spin Energy      =      -0.0208904220777311 [Eh]
	 SCS Opposite-Spin Energy  =      -0.2163101921157963 [Eh]
	 SCS Correlation Energy    =      -0.2372006141935274 [Eh]
	 SCS Total Energy          =    -459.8107144793270322 [Eh]
	-----------------------------------------------------------


*** tstop() called on moses-razer at Sat Dec 30 16:55:58 2023
Module time:
	user time   =       3.06 seconds =       0.05 minutes
	system time =       0.20 seconds =       0.00 minutes
	total time  =          1 seconds =       0.02 minutes
Total time:
	user time   =      22.93 seconds =       0.38 minutes
	system time =       1.39 seconds =       0.02 minutes
	total time  =          5 seconds =       0.08 minutes

    Psi4 stopped on: Saturday, 30 December 2023 04:55PM
    Psi4 wall time for execution: 0:00:02.36


    -----------------------------------------------------------------------
          Psi4: An Open-Source Ab Initio Electronic Structure Package
                               Psi4 1.9 release

                         Git: Rev {} zzzzzzz 


    D. G. A. Smith, L. A. Burns, A. C. Simmonett, R. M. Parrish,
    M. C. Schieber, R. Galvelis, P. Kraus, H. Kruse, R. Di Remigio,
    A. Alenaizan, A. M. James, S. Lehtola, J. P. Misiewicz, M. Scheurer,
    R. A. Shaw, J. B. Schriber, Y. Xie, Z. L. Glick, D. A. Sirianni,
    J. S. O'Brien, J. M. Waldrop, A. Kumar, E. G. Hohenstein,
    B. P. Pritchard, B. R. Brooks, H. F. Schaefer III, A. Yu. Sokolov,
    K. Patkowski, A. E. DePrince III, U. Bozkaya, R. A. King,
    F. A. Evangelista, J. M. Turney, T. D. Crawford, C. D. Sherrill,
    J. Chem. Phys. 152(18) 184108 (2020). https://doi.org/10.1063/5.0006002

                            Additional Code Authors
    E. T. Seidl, C. L. Janssen, E. F. Valeev, M. L. Leininger,
    J. F. Gonthier, R. M. Richard, H. R. McAlexander, M. Saitow, X. Wang,
    P. Verma, M. H. Lechner, A. Jiang, S. Behnle, A. G. Heide,
    M. F. Herbst, and D. L. Poole

             Previous Authors, Complete List of Code Contributors,
                       and Citations for Specific Modules
    https://github.com/psi4/psi4/blob/master/codemeta.json
    https://github.com/psi4/psi4/graphs/contributors
    http://psicode.org/psi4manual/master/introduction.html#citing-psifour

    -----------------------------------------------------------------------


    Psi4 started on: Saturday, 30 December 2023 04:55PM

    Process ID: 211291
    Host:       moses-razer
    PSIDATADIR: /home/kchung25/anaconda3/envs/psi4_19/share/psi4
    Memory:     55.9 GiB
    Threads:    6
    
  ==> Input QCSchema <==

--------------------------------------------------------------------------
{'driver': 'energy',
 'extras': {'psiapi': True, 'wfn_qcvars_only': True},
 'id': None,
 'keywords': {'SCF_TYPE': 'DF', 'function_kwargs': {}},
 'model': {'basis': 'aug-cc-pvtz', 'method': 'mp2'},
 'molecule': {'atom_labels': ['', '', '', '', '', '', ''],
              'atomic_numbers': [17, 8, 1, 1, 8, 1, 1],
              'extras': {},
              'fix_com': True,
              'fix_orientation': True,
              'fix_symmetry': 'c1',
              'fragment_charges': [-1.0, 0.0],
              'fragment_multiplicities': [1, 1],
              'fragments': [[0], [1, 2, 3, 4, 5, 6]],
              'geometry': [6.071867675351795, 0.0, 0.0, 0.0, -0.20274682627424492, 2.972250067247969,
                           -0.6975640533208753, 1.0924865779235542, 1.9104677594108534, 1.7262383594399697,
                           -0.3030005766820336, 2.297587604841517, 0.0, 0.20274682627424492, -2.972250067247969,
                           -0.6975640533208753, -1.0924865779235542, -1.9104677594108534, 1.7262383594399697,
                           0.3030005766820336, -2.297587604841517],
              'mass_numbers': [35, 16, 1, 1, 16, 1, 1],
              'masses': [34.968852682, 15.99491461957, 1.00782503223, 1.00782503223, 15.99491461957, 1.00782503223,
                         1.00782503223],
              'molecular_charge': -1.0,
              'molecular_multiplicity': 1,
              'name': 'dimer',
              'provenance': {'creator': 'QCElemental',
                             'routine': 'qcelemental.molparse.from_string',
                             'version': '0.27.1'},
              'real': [True, True, True, True, True, True, True],
              'schema_name': 'qcschema_molecule',
              'schema_version': 2,
              'symbols': ['Cl', 'O', 'H', 'H', 'O', 'H', 'H'],
              'validated': True},
 'protocols': {'stdout': True},
 'provenance': {'creator': 'QCElemental', 'routine': 'qcelemental.models.results', 'version': '0.27.1'},
 'schema_name': 'qcschema_input',
 'schema_version': 1}
--------------------------------------------------------------------------

Scratch directory: /scratch/
   => Libint2 <=

    Primary   basis highest AM E, G, H:  5, 4, 3
    Auxiliary basis highest AM E, G, H:  6, 5, 4
    Onebody   basis highest AM E, G, H:  6, 5, 4
    Solid Harmonics ordering:            gaussian

*** tstart() called on moses-razer
*** at Sat Dec 30 16:55:58 2023

   => Loading Basis Set <=

    Name: AUG-CC-PVTZ
    Role: ORBITAL
    Keyword: BASIS
    atoms 1        entry CL         line   988 file /home/kchung25/anaconda3/envs/p415env/share/psi4/basis/aug-cc-pvtz.gbs 
    atoms 2, 5     entry O          line   331 file /home/kchung25/anaconda3/envs/p415env/share/psi4/basis/aug-cc-pvtz.gbs 
    atoms 3-4, 6-7 entry H          line    40 file /home/kchung25/anaconda3/envs/p415env/share/psi4/basis/aug-cc-pvtz.gbs 


         ---------------------------------------------------------
                                   SCF
               by Justin Turney, Rob Parrish, Andy Simmonett
                          and Daniel G. A. Smith
                              RHF Reference
                        6 Threads,  57220 MiB Core
         ---------------------------------------------------------

  ==> Geometry <==

    Molecular point group: c1
    Full point group: C2

    Geometry (in Bohr), charge = -1, multiplicity = 1:

       Center              X                  Y                   Z               Mass       
    ------------   -----------------  -----------------  -----------------  -----------------
         CL           6.071867675352     0.000000000000     0.000000000000    34.968852682000
         O            0.000000000000    -0.202746826274     2.972250067248    15.994914619570
         H           -0.697564053321     1.092486577924     1.910467759411     1.007825032230
         H            1.726238359440    -0.303000576682     2.297587604842     1.007825032230
         O            0.000000000000     0.202746826274    -2.972250067248    15.994914619570
         H           -0.697564053321    -1.092486577924    -1.910467759411     1.007825032230
         H            1.726238359440     0.303000576682    -2.297587604842     1.007825032230

  Running in c1 symmetry.

  Rotational constants: A =      0.19769  B =      0.04634  C =      0.03768 [cm^-1]
  Rotational constants: A =   5926.70777  B =   1389.11944  C =   1129.57281 [MHz]
  Nuclear repulsion =   87.700842376586536

  Charge       = -1
  Multiplicity = 1
  Electrons    = 38
  Nalpha       = 19
  Nbeta        = 19

  ==> Algorithm <==

  SCF Algorithm Type is DF.
  DIIS enabled.
  MOM disabled.
  Fractional occupation disabled.
  Guess Type is SAD.
  Energy threshold   = 1.00e-08
  Density threshold  = 1.00e-08
  Integral threshold = 1.00e-12

  ==> Primary Basis <==

  Basis Set: AUG-CC-PVTZ
    Blend: AUG-CC-PVTZ
    Number of shells: 80
    Number of basis functions: 234
    Number of Cartesian functions: 269
    Spherical Harmonics?: true
    Max angular momentum: 3

   => Loading Basis Set <=

    Name: (AUG-CC-PVTZ AUX)
    Role: JKFIT
    Keyword: DF_BASIS_SCF
    atoms 1        entry CL         line   816 file /home/kchung25/anaconda3/envs/p415env/share/psi4/basis/aug-cc-pvtz-jkfit.gbs 
    atoms 2, 5     entry O          line   286 file /home/kchung25/anaconda3/envs/p415env/share/psi4/basis/aug-cc-pvtz-jkfit.gbs 
    atoms 3-4, 6-7 entry H          line    70 file /home/kchung25/anaconda3/envs/p415env/share/psi4/basis/aug-cc-pvtz-jkfit.gbs 

  ==> Integral Setup <==

  DFHelper Memory: AOs need 0.233 GiB; user supplied 41.910 GiB. 
  Using in-core AOs.

  ==> MemDFJK: Density-Fitted J/K Matrices <==

    J tasked:                   Yes
    K tasked:                   Yes
    wK tasked:                   No
    OpenMP threads:               6
    Memory [MiB]:             42915
    Algorithm:                 Core
    Schwarz Cutoff:           1E-12
    Mask sparsity (%):       0.8949
    Fitting Condition:        1E-10

   => Auxiliary Basis Set <=

  Basis Set: (AUG-CC-PVTZ AUX)
    Blend: AUG-CC-PVTZ-JKFIT
    Number of shells: 158
    Number of basis functions: 538
    Number of Cartesian functions: 662
    Spherical Harmonics?: true
    Max angular momentum: 4

  Minimum eigenvalue in the overlap matrix is 2.5845530401E-04.
  Reciprocal condition number of the overlap matrix is 2.4862820954E-05.
    Using symmetric orthogonalization.

  ==> Pre-Iterations <==

  SCF Guess: Superposition of Atomic Densities via on-the-fly atomic UHF (no occupation information).

   -------------------------
    Irrep   Nso     Nmo    
   -------------------------
     A        234     234 
   -------------------------
    Total     234     234
   -------------------------

  ==> Iterations <==

                           Total Energy        Delta E     RMS |[F,P]|

   @DF-RHF iter SAD:  -610.17911710795704   -6.10179e+02   0.00000e+00 
   @DF-RHF iter   1:  -611.52851645023520   -1.34940e+00   2.96632e-03 DIIS/ADIIS
   @DF-RHF iter   2:  -611.66332831777140   -1.34812e-01   1.91158e-03 DIIS/ADIIS
   @DF-RHF iter   3:  -611.72525295640344   -6.19246e-02   1.59796e-04 DIIS/ADIIS
   @DF-RHF iter   4:  -611.72617287456058   -9.19918e-04   6.35675e-05 DIIS
   @DF-RHF iter   5:  -611.72630365897714   -1.30784e-04   1.18598e-05 DIIS
   @DF-RHF iter   6:  -611.72631384399790   -1.01850e-05   3.09074e-06 DIIS
   @DF-RHF iter   7:  -611.72631467765916   -8.33661e-07   7.91219e-07 DIIS
   @DF-RHF iter   8:  -611.72631472978435   -5.21252e-08   1.50262e-07 DIIS
   @DF-RHF iter   9:  -611.72631473145657   -1.67222e-09   3.02712e-08 DIIS
   @DF-RHF iter  10:  -611.72631473151216   -5.55929e-11   9.34789e-09 DIIS
  Energy and wave function converged.


  ==> Post-Iterations <==

    Orbital Energies [Eh]
    ---------------------

    Doubly Occupied:                                                      

       1A   -104.545063     2A    -20.419768     3A    -20.419765  
       4A    -10.268961     5A     -7.735058     6A     -7.735009  
       7A     -7.735002     8A     -1.205096     9A     -1.198114  
      10A     -0.776138    11A     -0.557537    12A     -0.551852  
      13A     -0.455163    14A     -0.439273    15A     -0.369004  
      16A     -0.357623    17A     -0.195394    18A     -0.191451  
      19A     -0.189969  

    Virtual:                                                              

      20A      0.134940    21A      0.149427    22A      0.166942  
      23A      0.175015    24A      0.256478    25A      0.264361  
      26A      0.271473    27A      0.281691    28A      0.281920  
      29A      0.294652    30A      0.304302    31A      0.310406  
      32A      0.328580    33A      0.338068    34A      0.352818  
      35A      0.383985    36A      0.387551    37A      0.396910  
      38A      0.413247    39A      0.448520    40A      0.467188  
      41A      0.475652    42A      0.491715    43A      0.514892  
      44A      0.520964    45A      0.544990    46A      0.579638  
      47A      0.594020    48A      0.608050    49A      0.614887  
      50A      0.629472    51A      0.641628    52A      0.666968  
      53A      0.675427    54A      0.693462    55A      0.700880  
      56A      0.718762    57A      0.780104    58A      0.782558  
      59A      0.821648    60A      0.835314    61A      0.844985  
      62A      0.865052    63A      0.869602    64A      0.893642  
      65A      0.896430    66A      0.930794    67A      0.972239  
      68A      0.995880    69A      1.013181    70A      1.021268  
      71A      1.031594    72A      1.036959    73A      1.079351  
      74A      1.085158    75A      1.086160    76A      1.106231  
      77A      1.113021    78A      1.114632    79A      1.143195  
      80A      1.149577    81A      1.174836    82A      1.181975  
      83A      1.187376    84A      1.197493    85A      1.210310  
      86A      1.219224    87A      1.224533    88A      1.242949  
      89A      1.263452    90A      1.301603    91A      1.315332  
      92A      1.328520    93A      1.347281    94A      1.360301  
      95A      1.372134    96A      1.390304    97A      1.413616  
      98A      1.430247    99A      1.432465   100A      1.479158  
     101A      1.496273   102A      1.504855   103A      1.506737  
     104A      1.530558   105A      1.554307   106A      1.575403  
     107A      1.682721   108A      1.702737   109A      1.714867  
     110A      1.735769   111A      1.741110   112A      1.762960  
     113A      1.779218   114A      1.780995   115A      1.852412  
     116A      1.859759   117A      1.884091   118A      1.940261  
     119A      2.040377   120A      2.060697   121A      2.101831  
     122A      2.108113   123A      2.213062   124A      2.217198  
     125A      2.419234   126A      2.502221   127A      2.509671  
     128A      2.532240   129A      2.554398   130A      2.560541  
     131A      2.596885   132A      2.626893   133A      2.644451  
     134A      2.668279   135A      2.693970   136A      2.704270  
     137A      2.707095   138A      2.753440   139A      2.796763  
     140A      2.809801   141A      2.828436   142A      2.847865  
     143A      2.852522   144A      2.863999   145A      2.884733  
     146A      2.937960   147A      2.955121   148A      2.961966  
     149A      2.980333   150A      3.016660   151A      3.016827  
     152A      3.054356   153A      3.066087   154A      3.070881  
     155A      3.102583   156A      3.138085   157A      3.260561  
     158A      3.331883   159A      3.350190   160A      3.364982  
     161A      3.442835   162A      3.483058   163A      3.494002  
     164A      3.581460   165A      3.666613   166A      3.854707  
     167A      3.902821   168A      4.023397   169A      4.023940  
     170A      4.248992   171A      4.308683   172A      4.313351  
     173A      4.336378   174A      4.336389   175A      4.419695  
     176A      4.431539   177A      4.452969   178A      4.453464  
     179A      4.467658   180A      4.504053   181A      4.572561  
     182A      4.578681   183A      4.649157   184A      4.731871  
     185A      4.757939   186A      4.814651   187A      4.819504  
     188A      4.936518   189A      4.956165   190A      5.090932  
     191A      5.123334   192A      5.292427   193A      5.302926  
     194A      5.367964   195A      5.413267   196A      5.437818  
     197A      5.443823   198A      5.497833   199A      5.570011  
     200A      5.672800   201A      5.708963   202A      5.803591  
     203A      5.806585   204A      6.231509   205A      6.446287  
     206A      6.446699   207A      6.682600   208A      6.684144  
     209A      6.951966   210A      6.971574   211A      7.117555  
     212A      7.167637   213A      7.322914   214A      7.359857  
     215A      7.393786   216A      7.430316   217A      7.442195  
     218A      7.478744   219A      7.488180   220A      7.505646  
     221A      7.549238   222A      7.569851   223A      7.586288  
     224A      7.613115   225A      7.790764   226A      7.833178  
     227A      8.017169   228A      8.048792   229A      8.138240  
     230A      8.143961   231A      8.955795   232A      8.964254  
     233A     16.265059   234A     16.405390  

    Final Occupation by Irrep:
              A 
    DOCC [    19 ]
    NA   [    19 ]
    NB   [    19 ]

  @DF-RHF Final Energy:  -611.72631473151216

   => Energetics <=

    Nuclear Repulsion Energy =             87.7008423765865359
    One-Electron Energy =               -1028.1638333051632799
    Two-Electron Energy =                 328.7366761970646962
    Total Energy =                       -611.7263147315120477

Computation Completed


Properties will be evaluated at   0.000000,   0.000000,   0.000000 [a0]

Properties computed using the SCF density matrix


 Multipole Moments:

 ------------------------------------------------------------------------------------
     Multipole            Electronic (a.u.)      Nuclear  (a.u.)        Total (a.u.)
 ------------------------------------------------------------------------------------

 L = 1.  Multiply by 2.5417464519 to convert [e a0] to [Debye]
 Dipole X            :       -109.9686003          105.2790991           -4.6895012
 Dipole Y            :          0.0000000            0.0000000            0.0000000
 Dipole Z            :          0.0000000            0.0000000            0.0000000
 Magnitude           :                                                    4.6895012

 ------------------------------------------------------------------------------------

*** tstop() called on moses-razer at Sat Dec 30 16:56:00 2023
Module time:
	user time   =       9.90 seconds =       0.17 minutes
	system time =       0.62 seconds =       0.01 minutes
	total time  =          2 seconds =       0.03 minutes
Total time:
	user time   =      33.17 seconds =       0.55 minutes
	system time =       2.01 seconds =       0.03 minutes
	total time  =          7 seconds =       0.12 minutes

*** tstart() called on moses-razer
*** at Sat Dec 30 16:56:00 2023


  //>>>>>>>>>>>>>>>>>>>>>>>>>>>>>>>>>>>//
  //               DFMP2               //
  //<<<<<<<<<<<<<<<<<<<<<<<<<<<<<<<<<<<//

   => Loading Basis Set <=

    Name: (AUG-CC-PVTZ AUX)
    Role: RIFIT
    Keyword: DF_BASIS_MP2
    atoms 1        entry CL         line   742 file /home/kchung25/anaconda3/envs/p415env/share/psi4/basis/aug-cc-pvtz-ri.gbs 
    atoms 2, 5     entry O          line   264 file /home/kchung25/anaconda3/envs/p415env/share/psi4/basis/aug-cc-pvtz-ri.gbs 
    atoms 3-4, 6-7 entry H          line    30 file /home/kchung25/anaconda3/envs/p415env/share/psi4/basis/aug-cc-pvtz-ri.gbs 

	 --------------------------------------------------------
	                          DF-MP2                         
	      2nd-Order Density-Fitted Moller-Plesset Theory     
	              RMP2 Wavefunction,   6 Threads             
	                                                         
	        Rob Parrish, Justin Turney, Andy Simmonett,      
	           Ed Hohenstein, and C. David Sherrill          
	 --------------------------------------------------------

   => Auxiliary Basis Set <=

  Basis Set: (AUG-CC-PVTZ AUX)
    Blend: AUG-CC-PVTZ-RI
    Number of shells: 149
    Number of basis functions: 543
    Number of Cartesian functions: 683
    Spherical Harmonics?: true
    Max angular momentum: 4

	 --------------------------------------------------------
	                 NBF =   234, NAUX =   543
	 --------------------------------------------------------
	   CLASS    FOCC     OCC    AOCC    AVIR     VIR    FVIR
	   PAIRS       0      19      19     215     215       0
	 --------------------------------------------------------

	-----------------------------------------------------------
	 ==================> DF-MP2 Energies <==================== 
	-----------------------------------------------------------
	 Reference Energy          =    -611.7263147315121614 [Eh]
	 Singles Energy            =      -0.0000000000000000 [Eh]
	 Same-Spin Energy          =      -0.2034360129707408 [Eh]
	 Opposite-Spin Energy      =      -0.6157568377669508 [Eh]
	 Correlation Energy        =      -0.8191928507376915 [Eh]
	 Total Energy              =    -612.5455075822497975 [Eh]
	-----------------------------------------------------------
	 ================> DF-SCS-MP2 Energies <================== 
	-----------------------------------------------------------
	 SCS Same-Spin Scale       =       0.3333333333333333 [-]
	 SCS Opposite-Spin Scale   =       1.2000000000000000 [-]
	 SCS Same-Spin Energy      =      -0.0678120043235803 [Eh]
	 SCS Opposite-Spin Energy  =      -0.7389082053203410 [Eh]
	 SCS Correlation Energy    =      -0.8067202096439212 [Eh]
	 SCS Total Energy          =    -612.5330349411560746 [Eh]
	-----------------------------------------------------------


*** tstop() called on moses-razer at Sat Dec 30 16:56:01 2023
Module time:
	user time   =       3.53 seconds =       0.06 minutes
	system time =       0.21 seconds =       0.00 minutes
	total time  =          1 seconds =       0.02 minutes
Total time:
	user time   =      36.70 seconds =       0.61 minutes
	system time =       2.22 seconds =       0.04 minutes
	total time  =          8 seconds =       0.13 minutes

    Psi4 stopped on: Saturday, 30 December 2023 04:56PM
    Psi4 wall time for execution: 0:00:02.82


  //>>>>>>>>>>>>>>>>>>>>>>>>>>>>>>>>>>>//
  //          ManyBody Results         //
  //<<<<<<<<<<<<<<<<<<<<<<<<<<<<<<<<<<<//


   ==> N-Body: Counterpoise Corrected (CP) energies <==

        n-Body     Total Energy            Interaction Energy                          N-body Contribution to Interaction Energy
                   [Eh]                    [Eh]                  [kcal/mol]            [Eh]                  [kcal/mol]
             1  N/A                         0.000000000000        0.000000000000        0.000000000000        0.000000000000
  FULL/RTN   2  N/A                        -0.040154917718      -25.197591286686       -0.040154917718      -25.197591286686


    Psi4 stopped on: Saturday, 30 December 2023 04:56PM
    Psi4 wall time for execution: 0:00:09.35

*** Psi4 exiting successfully. Buy a developer a beer!
