
    -----------------------------------------------------------------------
          Psi4: An Open-Source Ab Initio Electronic Structure Package
                               Psi4 1.8.2 release

                         Git: Rev {} zzzzzzz 


    D. G. A. Smith, L. A. Burns, A. C. Simmonett, R. M. Parrish,
    M. C. Schieber, R. Galvelis, P. Kraus, H. Kruse, R. Di Remigio,
    A. Alenaizan, A. M. James, S. Lehtola, J. P. Misiewicz, M. Scheurer,
    R. A. Shaw, J. B. Schriber, Y. Xie, Z. L. Glick, D. A. Sirianni,
    J. S. O'Brien, J. M. Waldrop, A. Kumar, E. G. Hohenstein,
    B. P. Pritchard, B. R. Brooks, H. F. Schaefer III, A. Yu. Sokolov,
    K. Patkowski, A. E. DePrince III, U. Bozkaya, R. A. King,
    F. A. Evangelista, J. M. Turney, T. D. Crawford, C. D. Sherrill,
    J. Chem. Phys. 152(18) 184108 (2020). https://doi.org/10.1063/5.0006002

                            Additional Code Authors
    E. T. Seidl, C. L. Janssen, E. F. Valeev, M. L. Leininger,
    J. F. Gonthier, R. M. Richard, H. R. McAlexander, M. Saitow, X. Wang,
    P. Verma, M. H. Lechner, A. Jiang, S. Behnle, A. G. Heide,
    M. F. Herbst, and D. L. Poole

             Previous Authors, Complete List of Code Contributors,
                       and Citations for Specific Modules
    https://github.com/psi4/psi4/blob/master/codemeta.json
    https://github.com/psi4/psi4/graphs/contributors
    http://psicode.org/psi4manual/master/introduction.html#citing-psifour

    -----------------------------------------------------------------------


    Psi4 started on: Monday, 22 January 2024 11:22AM

    Process ID: 39768
    Host:       ddmfs1
    PSIDATADIR: /ddmfs1b/softs/psi4conda/share/psi4
    Memory:     500.0 MiB
    Threads:    20
    
  ==> Input File <==

--------------------------------------------------------------------------
MEMORY 60 GB

molecule dimer {
-1 1
Br         2.691184     0.000000     0.000000
Gh(O)      0.000000    -0.112811     1.567716
Gh(H)     -0.349529     0.578740     1.000386
Gh(H)      0.921124    -0.169041     1.237825
Gh(O)      0.000000     0.112811    -1.567716
Gh(H)     -0.349529    -0.578740    -1.000386
Gh(H)      0.921124     0.169041    -1.237825

units ang
no_reorient
no_com
symmetry c1
}

set {
basis        aug-cc-pVTZ
scf_type     df
}

energy("mp2")
--------------------------------------------------------------------------

  Memory set to  55.879 GiB by Python driver.

Scratch directory: /ddmfs1a/scratch/
   => Libint2 <=

    Primary   basis highest AM E, G, H:  5, 4, 3
    Auxiliary basis highest AM E, G, H:  6, 5, 4
    Onebody   basis highest AM E, G, H:  6, 5, 4
    Solid Harmonics ordering:            gaussian

*** tstart() called on ddmfs1
*** at Mon Jan 22 11:22:23 2024

   => Loading Basis Set <=

    Name: AUG-CC-PVTZ
    Role: ORBITAL
    Keyword: BASIS
    atoms 1        entry BR         line  4208 file /ddmfs1b/softs/psi4conda/share/psi4/basis/aug-cc-pvtz.gbs 
    atoms 2, 5     entry O          line   331 file /ddmfs1b/softs/psi4conda/share/psi4/basis/aug-cc-pvtz.gbs 
    atoms 3-4, 6-7 entry H          line    40 file /ddmfs1b/softs/psi4conda/share/psi4/basis/aug-cc-pvtz.gbs 


         ---------------------------------------------------------
                                   SCF
               by Justin Turney, Rob Parrish, Andy Simmonett
                          and Daniel G. A. Smith
                              RHF Reference
                       20 Threads,  57220 MiB Core
         ---------------------------------------------------------

  ==> Geometry <==

    Molecular point group: c1
    Full point group: C2

    Geometry (in Angstrom), charge = -1, multiplicity = 1:

       Center              X                  Y                   Z               Mass       
    ------------   -----------------  -----------------  -----------------  -----------------
         BR           2.691184000000     0.000000000000     0.000000000000    78.918337600000
      Gh(O)           0.000000000000    -0.112811000000     1.567716000000    15.994914619570
      Gh(H)          -0.349529000000     0.578740000000     1.000386000000     1.007825032230
      Gh(H)           0.921124000000    -0.169041000000     1.237825000000     1.007825032230
      Gh(O)           0.000000000000     0.112811000000    -1.567716000000    15.994914619570
      Gh(H)          -0.349529000000    -0.578740000000    -1.000386000000     1.007825032230
      Gh(H)           0.921124000000     0.169041000000    -1.237825000000     1.007825032230

  Running in c1 symmetry.

  Rotational constants: A =      0.19863  B =      0.02935  C =      0.02564 [cm^-1]
  Rotational constants: A =   5954.88914  B =    879.88569  C =    768.59109 [MHz]
  Nuclear repulsion =    0.000000000000000

  Charge       = -1
  Multiplicity = 1
  Electrons    = 36
  Nalpha       = 18
  Nbeta        = 18

  ==> Algorithm <==

  SCF Algorithm Type is DF.
  DIIS enabled.
  MOM disabled.
  Fractional occupation disabled.
  Guess Type is SAD.
  Energy threshold   = 1.00e-08
  Density threshold  = 1.00e-08
  Integral threshold = 1.00e-12

  ==> Primary Basis <==

  Basis Set: AUG-CC-PVTZ
    Blend: AUG-CC-PVTZ
    Number of shells: 83
    Number of basis functions: 243
    Number of Cartesian functions: 279
    Spherical Harmonics?: true
    Max angular momentum: 3

   => Loading Basis Set <=

    Name: (AUG-CC-PVTZ AUX)
    Role: JKFIT
    Keyword: DF_BASIS_SCF
    atoms 1        entry BR         line  1492 file /ddmfs1b/softs/psi4conda/share/psi4/basis/aug-cc-pvtz-jkfit.gbs 
    atoms 2, 5     entry O          line   286 file /ddmfs1b/softs/psi4conda/share/psi4/basis/aug-cc-pvtz-jkfit.gbs 
    atoms 3-4, 6-7 entry H          line    70 file /ddmfs1b/softs/psi4conda/share/psi4/basis/aug-cc-pvtz-jkfit.gbs 

  ==> Integral Setup <==

  DFHelper Memory: AOs need 0.303 GiB; user supplied 41.910 GiB. 
  Using in-core AOs.

  ==> MemDFJK: Density-Fitted J/K Matrices <==

    J tasked:                   Yes
    K tasked:                   Yes
    wK tasked:                   No
    OpenMP threads:              20
    Memory [MiB]:             42915
    Algorithm:                 Core
    Schwarz Cutoff:           1E-12
    Mask sparsity (%):       0.7282
    Fitting Condition:        1E-10

   => Auxiliary Basis Set <=

  Basis Set: (AUG-CC-PVTZ AUX)
    Blend: AUG-CC-PVTZ-JKFIT
    Number of shells: 174
    Number of basis functions: 640
    Number of Cartesian functions: 811
    Spherical Harmonics?: true
    Max angular momentum: 4

  Minimum eigenvalue in the overlap matrix is 2.0126552172E-04.
  Reciprocal condition number of the overlap matrix is 1.8344324374E-05.
    Using symmetric orthogonalization.

  ==> Pre-Iterations <==

  SCF Guess: Superposition of Atomic Densities via on-the-fly atomic UHF (no occupation information).

   -------------------------
    Irrep   Nso     Nmo    
   -------------------------
     A        243     243 
   -------------------------
    Total     243     243
   -------------------------

  ==> Iterations <==

                           Total Energy        Delta E     RMS |[F,P]|

   @DF-RHF iter SAD: -2570.41423550671425   -2.57041e+03   0.00000e+00 
   @DF-RHF iter   1: -2572.25319623514270   -1.83896e+00   4.41966e-03 DIIS/ADIIS
   @DF-RHF iter   2: -2572.46305422778869   -2.09858e-01   2.46594e-03 DIIS/ADIIS
   @DF-RHF iter   3: -2572.53367012084573   -7.06159e-02   3.48883e-05 DIIS
   @DF-RHF iter   4: -2572.53370125005904   -3.11292e-05   5.02602e-06 DIIS
   @DF-RHF iter   5: -2572.53370261780765   -1.36775e-06   1.21471e-06 DIIS
   @DF-RHF iter   6: -2572.53370270945607   -9.16484e-08   2.38799e-07 DIIS
   @DF-RHF iter   7: -2572.53370272131724   -1.18612e-08   1.99752e-08 DIIS
   @DF-RHF iter   8: -2572.53370272137636   -5.91172e-11   5.48806e-09 DIIS
  Energy and wave function converged.


  ==> Post-Iterations <==

    Orbital Energies [Eh]
    ---------------------

    Doubly Occupied:                                                      

       1A   -489.721501     2A    -64.861257     3A    -58.215774  
       4A    -58.215771     5A    -58.215769     6A     -9.533109  
       7A     -7.140465     8A     -7.140441     9A     -7.140434  
      10A     -2.882148    11A     -2.882145    12A     -2.882141  
      13A     -2.882133    14A     -2.882118    15A     -0.685999  
      16A     -0.139344    17A     -0.139340    18A     -0.139339  

    Virtual:                                                              

      19A      0.131647    20A      0.148571    21A      0.158952  
      22A      0.166660    23A      0.231565    24A      0.249948  
      25A      0.256778    26A      0.262554    27A      0.264650  
      28A      0.278706    29A      0.281815    30A      0.289388  
      31A      0.304261    32A      0.315504    33A      0.347531  
      34A      0.349280    35A      0.406388    36A      0.424395  
      37A      0.452317    38A      0.458177    39A      0.469381  
      40A      0.488317    41A      0.501150    42A      0.508480  
      43A      0.526143    44A      0.532631    45A      0.550816  
      46A      0.573514    47A      0.575038    48A      0.586354  
      49A      0.595671    50A      0.599655    51A      0.608087  
      52A      0.620571    53A      0.645998    54A      0.677625  
      55A      0.686563    56A      0.772223    57A      0.783357  
      58A      0.826564    59A      0.871244    60A      0.879007  
      61A      0.880574    62A      0.897858    63A      0.922379  
      64A      0.924580    65A      0.948186    66A      0.957563  
      67A      0.974686    68A      0.977482    69A      0.986733  
      70A      0.999624    71A      1.017126    72A      1.021665  
      73A      1.042054    74A      1.050481    75A      1.060800  
      76A      1.090185    77A      1.092631    78A      1.093529  
      79A      1.103550    80A      1.109234    81A      1.142739  
      82A      1.156101    83A      1.171391    84A      1.206718  
      85A      1.223701    86A      1.235739    87A      1.261183  
      88A      1.268282    89A      1.271851    90A      1.288479  
      91A      1.316152    92A      1.326353    93A      1.362427  
      94A      1.392534    95A      1.425601    96A      1.457177  
      97A      1.461648    98A      1.500744    99A      1.534481  
     100A      1.541168   101A      1.550967   102A      1.608656  
     103A      1.633612   104A      1.669257   105A      1.684182  
     106A      1.709278   107A      1.710071   108A      1.729535  
     109A      1.755731   110A      1.792930   111A      1.817547  
     112A      1.835797   113A      1.852711   114A      1.896698  
     115A      1.934180   116A      1.970829   117A      2.003218  
     118A      2.029312   119A      2.032884   120A      2.046149  
     121A      2.092869   122A      2.094568   123A      2.145512  
     124A      2.313724   125A      2.315706   126A      2.479042  
     127A      2.556309   128A      2.591995   129A      2.617997  
     130A      2.622896   131A      2.634896   132A      2.640782  
     133A      2.648669   134A      2.669980   135A      2.678882  
     136A      2.684430   137A      2.687425   138A      2.696553  
     139A      2.719005   140A      2.737318   141A      2.749039  
     142A      2.786950   143A      2.797418   144A      2.821025  
     145A      2.823232   146A      2.871254   147A      2.888970  
     148A      2.896054   149A      2.921531   150A      2.950096  
     151A      2.962860   152A      3.044209   153A      3.074048  
     154A      3.087034   155A      3.122105   156A      3.144638  
     157A      3.207476   158A      3.258291   159A      3.380885  
     160A      3.397758   161A      3.409238   162A      3.457329  
     163A      3.575521   164A      3.583373   165A      3.605170  
     166A      3.607421   167A      3.635634   168A      3.657009  
     169A      3.802717   170A      3.810872   171A      3.961006  
     172A      3.987408   173A      4.626969   174A      4.639290  
     175A      4.640345   176A      4.704505   177A      4.714562  
     178A      4.749166   179A      4.777874   180A      4.827560  
     181A      4.872825   182A      4.905530   183A      4.978912  
     184A      5.086017   185A      5.095318   186A      5.159810  
     187A      5.161988   188A      5.242932   189A      5.318820  
     190A      5.319303   191A      5.452028   192A      5.475089  
     193A      5.481637   194A      5.771711   195A      5.775463  
     196A      5.798912   197A      5.817885   198A      5.856749  
     199A      5.863763   200A      6.073936   201A      6.119648  
     202A      6.329883   203A      6.349359   204A      6.577446  
     205A      6.611511   206A      6.806308   207A      6.819233  
     208A      7.244652   209A      7.263350   210A      7.921862  
     211A      7.928224   212A      8.080234   213A      8.112291  
     214A      8.280084   215A      8.288032   216A      8.334086  
     217A      8.366080   218A      8.474094   219A      8.486992  
     220A      8.923106   221A      8.974221   222A      9.079387  
     223A      9.080683   224A      9.876014   225A      9.954314  
     226A     10.053938   227A     10.101535   228A     10.232845  
     229A     10.243660   230A     10.501473   231A     10.505087  
     232A     11.390577   233A     11.400814   234A     11.926023  
     235A     11.942177   236A     12.263614   237A     12.274358  
     238A     13.807851   239A     13.839952   240A     14.072057  
     241A     14.110060   242A     66.135108   243A     66.238387  

    Final Occupation by Irrep:
              A 
    DOCC [    18 ]
    NA   [    18 ]
    NB   [    18 ]

  @DF-RHF Final Energy: -2572.53370272137636

   => Energetics <=

    Nuclear Repulsion Energy =              0.0000000000000000
    One-Electron Energy =               -3593.6689534215847743
    Two-Electron Energy =                1021.1352507002085304
    Total Energy =                      -2572.5337027213763577

Computation Completed


Properties will be evaluated at   0.000000,   0.000000,   0.000000 [a0]

Properties computed using the SCF density matrix


 Multipole Moments:

 ------------------------------------------------------------------------------------
     Multipole            Electronic (a.u.)      Nuclear  (a.u.)        Total (a.u.)
 ------------------------------------------------------------------------------------

 L = 1.  Multiply by 2.5417464519 to convert [e a0] to [Debye]
 Dipole X            :       -183.0816866          177.9960250           -5.0856617
 Dipole Y            :         -0.0000000            0.0000000           -0.0000000
 Dipole Z            :          0.0000000            0.0000000            0.0000000
 Magnitude           :                                                    5.0856617

 ------------------------------------------------------------------------------------

*** tstop() called on ddmfs1 at Mon Jan 22 11:22:27 2024
Module time:
	user time   =      45.53 seconds =       0.76 minutes
	system time =       7.44 seconds =       0.12 minutes
	total time  =          4 seconds =       0.07 minutes
Total time:
	user time   =      45.53 seconds =       0.76 minutes
	system time =       7.44 seconds =       0.12 minutes
	total time  =          4 seconds =       0.07 minutes

*** tstart() called on ddmfs1
*** at Mon Jan 22 11:22:27 2024


  //>>>>>>>>>>>>>>>>>>>>>>>>>>>>>>>>>>>//
  //               DFMP2               //
  //<<<<<<<<<<<<<<<<<<<<<<<<<<<<<<<<<<<//

   => Loading Basis Set <=

    Name: (AUG-CC-PVTZ AUX)
    Role: RIFIT
    Keyword: DF_BASIS_MP2
    atoms 1        entry BR         line  1248 file /ddmfs1b/softs/psi4conda/share/psi4/basis/aug-cc-pvtz-ri.gbs 
    atoms 2, 5     entry O          line   264 file /ddmfs1b/softs/psi4conda/share/psi4/basis/aug-cc-pvtz-ri.gbs 
    atoms 3-4, 6-7 entry H          line    30 file /ddmfs1b/softs/psi4conda/share/psi4/basis/aug-cc-pvtz-ri.gbs 

	 --------------------------------------------------------
	                          DF-MP2                         
	      2nd-Order Density-Fitted Moller-Plesset Theory     
	              RMP2 Wavefunction,  20 Threads             
	                                                         
	        Rob Parrish, Justin Turney, Andy Simmonett,      
	           Ed Hohenstein, and C. David Sherrill          
	 --------------------------------------------------------

   => Auxiliary Basis Set <=

  Basis Set: (AUG-CC-PVTZ AUX)
    Blend: AUG-CC-PVTZ-RI
    Number of shells: 155
    Number of basis functions: 587
    Number of Cartesian functions: 753
    Spherical Harmonics?: true
    Max angular momentum: 5

	 --------------------------------------------------------
	                 NBF =   243, NAUX =   587
	 --------------------------------------------------------
	   CLASS    FOCC     OCC    AOCC    AVIR     VIR    FVIR
	   PAIRS       0      18      18     225     225       0
	 --------------------------------------------------------

	-----------------------------------------------------------
	 ==================> DF-MP2 Energies <==================== 
	-----------------------------------------------------------
	 Reference Energy          =   -2572.5337027213763577 [Eh]
	 Singles Energy            =      -0.0000000000000000 [Eh]
	 Same-Spin Energy          =      -0.0895417837027605 [Eh]
	 Opposite-Spin Energy      =      -0.2084636300744537 [Eh]
	 Correlation Energy        =      -0.2980054137772142 [Eh]
	 Total Energy              =   -2572.8317081351533488 [Eh]
	-----------------------------------------------------------
	 ================> DF-SCS-MP2 Energies <================== 
	-----------------------------------------------------------
	 SCS Same-Spin Scale       =       0.3333333333333333 [-]
	 SCS Opposite-Spin Scale   =       1.2000000000000000 [-]
	 SCS Same-Spin Energy      =      -0.0298472612342535 [Eh]
	 SCS Opposite-Spin Energy  =      -0.2501563560893444 [Eh]
	 SCS Correlation Energy    =      -0.2800036173235979 [Eh]
	 SCS Total Energy          =   -2572.8137063386998307 [Eh]
	-----------------------------------------------------------


*** tstop() called on ddmfs1 at Mon Jan 22 11:22:34 2024
Module time:
	user time   =      17.11 seconds =       0.29 minutes
	system time =       1.65 seconds =       0.03 minutes
	total time  =          7 seconds =       0.12 minutes
Total time:
	user time   =      62.65 seconds =       1.04 minutes
	system time =       9.09 seconds =       0.15 minutes
	total time  =         11 seconds =       0.18 minutes

    Psi4 stopped on: Monday, 22 January 2024 11:22AM
    Psi4 wall time for execution: 0:00:11.53

*** Psi4 exiting successfully. Buy a developer a beer!
