
    -----------------------------------------------------------------------
          Psi4: An Open-Source Ab Initio Electronic Structure Package
                               Psi4 1.8.2 release

                         Git: Rev {} zzzzzzz 


    D. G. A. Smith, L. A. Burns, A. C. Simmonett, R. M. Parrish,
    M. C. Schieber, R. Galvelis, P. Kraus, H. Kruse, R. Di Remigio,
    A. Alenaizan, A. M. James, S. Lehtola, J. P. Misiewicz, M. Scheurer,
    R. A. Shaw, J. B. Schriber, Y. Xie, Z. L. Glick, D. A. Sirianni,
    J. S. O'Brien, J. M. Waldrop, A. Kumar, E. G. Hohenstein,
    B. P. Pritchard, B. R. Brooks, H. F. Schaefer III, A. Yu. Sokolov,
    K. Patkowski, A. E. DePrince III, U. Bozkaya, R. A. King,
    F. A. Evangelista, J. M. Turney, T. D. Crawford, C. D. Sherrill,
    J. Chem. Phys. 152(18) 184108 (2020). https://doi.org/10.1063/5.0006002

                            Additional Code Authors
    E. T. Seidl, C. L. Janssen, E. F. Valeev, M. L. Leininger,
    J. F. Gonthier, R. M. Richard, H. R. McAlexander, M. Saitow, X. Wang,
    P. Verma, M. H. Lechner, A. Jiang, S. Behnle, A. G. Heide,
    M. F. Herbst, and D. L. Poole

             Previous Authors, Complete List of Code Contributors,
                       and Citations for Specific Modules
    https://github.com/psi4/psi4/blob/master/codemeta.json
    https://github.com/psi4/psi4/graphs/contributors
    http://psicode.org/psi4manual/master/introduction.html#citing-psifour

    -----------------------------------------------------------------------


    Psi4 started on: Monday, 22 January 2024 03:26AM

    Process ID: 29809
    Host:       ddmfs1
    PSIDATADIR: /ddmfs1b/softs/psi4conda/share/psi4
    Memory:     500.0 MiB
    Threads:    20
    
  ==> Input File <==

--------------------------------------------------------------------------
MEMORY 60 GB

molecule dimer {
-1 1
Br     3.399390     0.000000     0.000000
--
0 1
O      0.000000    -0.112811     1.567716
H     -0.349529     0.578740     1.000386
H      0.921124    -0.169041     1.237825
--
0 1
O      0.000000     0.112811    -1.567716
H     -0.349529    -0.578740    -1.000386
H      0.921124     0.169041    -1.237825

units ang
no_reorient
no_com
symmetry c1
}

set {
basis        aug-cc-pVTZ
scf_type     df
}

energy("mp2", bsse_type="cp")
--------------------------------------------------------------------------

  Memory set to  55.879 GiB by Python driver.

Scratch directory: /ddmfs1a/scratch/

  //>>>>>>>>>>>>>>>>>>>>>>>>>>>>>>>>>>>>>>>>//
  // ManyBody Setup: N-Body Levels [1, 2, 3]//
  //<<<<<<<<<<<<<<<<<<<<<<<<<<<<<<<<<<<<<<<<//

        Number of 1-body computations:     3
        Number of 2-body computations:     3
        Number of 3-body computations:     1

    -----------------------------------------------------------------------
          Psi4: An Open-Source Ab Initio Electronic Structure Package
                               Psi4 1.8.2 release

                         Git: Rev {} zzzzzzz 


    D. G. A. Smith, L. A. Burns, A. C. Simmonett, R. M. Parrish,
    M. C. Schieber, R. Galvelis, P. Kraus, H. Kruse, R. Di Remigio,
    A. Alenaizan, A. M. James, S. Lehtola, J. P. Misiewicz, M. Scheurer,
    R. A. Shaw, J. B. Schriber, Y. Xie, Z. L. Glick, D. A. Sirianni,
    J. S. O'Brien, J. M. Waldrop, A. Kumar, E. G. Hohenstein,
    B. P. Pritchard, B. R. Brooks, H. F. Schaefer III, A. Yu. Sokolov,
    K. Patkowski, A. E. DePrince III, U. Bozkaya, R. A. King,
    F. A. Evangelista, J. M. Turney, T. D. Crawford, C. D. Sherrill,
    J. Chem. Phys. 152(18) 184108 (2020). https://doi.org/10.1063/5.0006002

                            Additional Code Authors
    E. T. Seidl, C. L. Janssen, E. F. Valeev, M. L. Leininger,
    J. F. Gonthier, R. M. Richard, H. R. McAlexander, M. Saitow, X. Wang,
    P. Verma, M. H. Lechner, A. Jiang, S. Behnle, A. G. Heide,
    M. F. Herbst, and D. L. Poole

             Previous Authors, Complete List of Code Contributors,
                       and Citations for Specific Modules
    https://github.com/psi4/psi4/blob/master/codemeta.json
    https://github.com/psi4/psi4/graphs/contributors
    http://psicode.org/psi4manual/master/introduction.html#citing-psifour

    -----------------------------------------------------------------------


    Psi4 started on: Monday, 22 January 2024 03:26AM

    Process ID: 29809
    Host:       ddmfs1
    PSIDATADIR: /ddmfs1b/softs/psi4conda/share/psi4
    Memory:     55.9 GiB
    Threads:    20
    
  ==> Input QCSchema <==

--------------------------------------------------------------------------
{'driver': 'energy',
 'extras': {'psiapi': True, 'wfn_qcvars_only': True},
 'id': None,
 'keywords': {'SCF_TYPE': 'DF', 'function_kwargs': {}},
 'model': {'basis': 'aug-cc-pvtz', 'method': 'mp2'},
 'molecule': {'atom_labels': ['', '', '', '', '', '', ''],
              'atomic_numbers': [35, 8, 1, 1, 8, 1, 1],
              'extras': {},
              'fix_com': True,
              'fix_orientation': True,
              'fix_symmetry': 'c1',
              'fragment_charges': [-1.0, 0.0, 0.0],
              'fragment_multiplicities': [1, 1, 1],
              'fragments': [[0], [1, 2, 3], [4, 5, 6]],
              'geometry': [6.423916093620086, 0.0, 0.0, 0.0, -0.21318189393902304, 2.962553882498245,
                           -0.660514082905149, 1.0936600978474635, 1.8904555597422548, 1.7406720875862163,
                           -0.3194411939735167, 2.339150241244836, 0.0, 0.21318189393902304, -2.962553882498245,
                           -0.660514082905149, -1.0936600978474635, -1.8904555597422548, 1.7406720875862163,
                           0.3194411939735167, -2.339150241244836],
              'mass_numbers': [79, 16, 1, 1, 16, 1, 1],
              'masses': [78.9183376, 15.99491461957, 1.00782503223, 1.00782503223, 15.99491461957, 1.00782503223,
                         1.00782503223],
              'molecular_charge': -1.0,
              'molecular_multiplicity': 1,
              'name': 'dimer',
              'provenance': {'creator': 'QCElemental',
                             'routine': 'qcelemental.molparse.from_string',
                             'version': '0.26.0'},
              'real': [True, False, False, False, False, False, False],
              'schema_name': 'qcschema_molecule',
              'schema_version': 2,
              'symbols': ['Br', 'O', 'H', 'H', 'O', 'H', 'H'],
              'validated': True},
 'protocols': {'stdout': True},
 'provenance': {'creator': 'QCElemental', 'routine': 'qcelemental.models.results', 'version': '0.26.0'},
 'schema_name': 'qcschema_input',
 'schema_version': 1}
--------------------------------------------------------------------------

Scratch directory: /ddmfs1a/scratch/
   => Libint2 <=

    Primary   basis highest AM E, G, H:  5, 4, 3
    Auxiliary basis highest AM E, G, H:  6, 5, 4
    Onebody   basis highest AM E, G, H:  6, 5, 4
    Solid Harmonics ordering:            gaussian

*** tstart() called on ddmfs1
*** at Mon Jan 22 03:27:01 2024

   => Loading Basis Set <=

    Name: AUG-CC-PVTZ
    Role: ORBITAL
    Keyword: BASIS
    atoms 1        entry BR         line  4208 file /ddmfs1b/softs/psi4conda/share/psi4/basis/aug-cc-pvtz.gbs 
    atoms 2, 5     entry O          line   331 file /ddmfs1b/softs/psi4conda/share/psi4/basis/aug-cc-pvtz.gbs 
    atoms 3-4, 6-7 entry H          line    40 file /ddmfs1b/softs/psi4conda/share/psi4/basis/aug-cc-pvtz.gbs 


         ---------------------------------------------------------
                                   SCF
               by Justin Turney, Rob Parrish, Andy Simmonett
                          and Daniel G. A. Smith
                              RHF Reference
                       20 Threads,  57220 MiB Core
         ---------------------------------------------------------

  ==> Geometry <==

    Molecular point group: c1
    Full point group: C2

    Geometry (in Bohr), charge = -1, multiplicity = 1:

       Center              X                  Y                   Z               Mass       
    ------------   -----------------  -----------------  -----------------  -----------------
         BR           6.423916093620     0.000000000000     0.000000000000    78.918337600000
      Gh(O)           0.000000000000    -0.213181893939     2.962553882498    15.994914619570
      Gh(H)          -0.660514082905     1.093660097847     1.890455559742     1.007825032230
      Gh(H)           1.740672087586    -0.319441193974     2.339150241245     1.007825032230
      Gh(O)           0.000000000000     0.213181893939    -2.962553882498    15.994914619570
      Gh(H)          -0.660514082905    -1.093660097847    -1.890455559742     1.007825032230
      Gh(H)           1.740672087586     0.319441193974    -2.339150241245     1.007825032230

  Running in c1 symmetry.

  Rotational constants: A =      0.19863  B =      0.01843  C =      0.01689 [cm^-1]
  Rotational constants: A =   5954.88914  B =    552.46336  C =    506.42002 [MHz]
  Nuclear repulsion =    0.000000000000000

  Charge       = -1
  Multiplicity = 1
  Electrons    = 36
  Nalpha       = 18
  Nbeta        = 18

  ==> Algorithm <==

  SCF Algorithm Type is DF.
  DIIS enabled.
  MOM disabled.
  Fractional occupation disabled.
  Guess Type is SAD.
  Energy threshold   = 1.00e-08
  Density threshold  = 1.00e-08
  Integral threshold = 1.00e-12

  ==> Primary Basis <==

  Basis Set: AUG-CC-PVTZ
    Blend: AUG-CC-PVTZ
    Number of shells: 83
    Number of basis functions: 243
    Number of Cartesian functions: 279
    Spherical Harmonics?: true
    Max angular momentum: 3

   => Loading Basis Set <=

    Name: (AUG-CC-PVTZ AUX)
    Role: JKFIT
    Keyword: DF_BASIS_SCF
    atoms 1        entry BR         line  1492 file /ddmfs1b/softs/psi4conda/share/psi4/basis/aug-cc-pvtz-jkfit.gbs 
    atoms 2, 5     entry O          line   286 file /ddmfs1b/softs/psi4conda/share/psi4/basis/aug-cc-pvtz-jkfit.gbs 
    atoms 3-4, 6-7 entry H          line    70 file /ddmfs1b/softs/psi4conda/share/psi4/basis/aug-cc-pvtz-jkfit.gbs 

  ==> Integral Setup <==

  DFHelper Memory: AOs need 0.302 GiB; user supplied 41.910 GiB. 
  Using in-core AOs.

  ==> MemDFJK: Density-Fitted J/K Matrices <==

    J tasked:                   Yes
    K tasked:                   Yes
    wK tasked:                   No
    OpenMP threads:              20
    Memory [MiB]:             42915
    Algorithm:                 Core
    Schwarz Cutoff:           1E-12
    Mask sparsity (%):       1.3175
    Fitting Condition:        1E-10

   => Auxiliary Basis Set <=

  Basis Set: (AUG-CC-PVTZ AUX)
    Blend: AUG-CC-PVTZ-JKFIT
    Number of shells: 174
    Number of basis functions: 640
    Number of Cartesian functions: 811
    Spherical Harmonics?: true
    Max angular momentum: 4

  Minimum eigenvalue in the overlap matrix is 2.6157837512E-04.
  Reciprocal condition number of the overlap matrix is 2.5032469041E-05.
    Using symmetric orthogonalization.

  ==> Pre-Iterations <==

  SCF Guess: Superposition of Atomic Densities via on-the-fly atomic UHF (no occupation information).

   -------------------------
    Irrep   Nso     Nmo    
   -------------------------
     A        243     243 
   -------------------------
    Total     243     243
   -------------------------

  ==> Iterations <==

                           Total Energy        Delta E     RMS |[F,P]|

   @DF-RHF iter SAD: -2570.41423535594959   -2.57041e+03   0.00000e+00 
   @DF-RHF iter   1: -2572.25482008312883   -1.84058e+00   4.35604e-03 ADIIS/DIIS
   @DF-RHF iter   2: -2572.46408321335593   -2.09263e-01   2.42129e-03 ADIIS/DIIS
   @DF-RHF iter   3: -2572.53365680533989   -6.95736e-02   3.27961e-05 DIIS
   @DF-RHF iter   4: -2572.53368546472711   -2.86594e-05   4.66413e-06 DIIS
   @DF-RHF iter   5: -2572.53368670416603   -1.23944e-06   1.22678e-06 DIIS
   @DF-RHF iter   6: -2572.53368678910192   -8.49359e-08   2.32555e-07 DIIS
   @DF-RHF iter   7: -2572.53368680004678   -1.09449e-08   1.89106e-08 DIIS
   @DF-RHF iter   8: -2572.53368680011226   -6.54836e-11   5.51806e-09 DIIS
  Energy and wave function converged.


  ==> Post-Iterations <==

    Orbital Energies [Eh]
    ---------------------

    Doubly Occupied:                                                      

       1A   -489.720865     2A    -64.860810     3A    -58.215301  
       4A    -58.215300     5A    -58.215298     6A     -9.532962  
       7A     -7.140315     8A     -7.140306     9A     -7.140294  
      10A     -2.881989    11A     -2.881988    12A     -2.881986  
      13A     -2.881971    14A     -2.881969    15A     -0.685997  
      16A     -0.139338    17A     -0.139337    18A     -0.139336  

    Virtual:                                                              

      19A      0.123171    20A      0.142178    21A      0.156025  
      22A      0.165958    23A      0.232765    24A      0.242955  
      25A      0.245143    26A      0.255035    27A      0.260090  
      28A      0.270148    29A      0.276645    30A      0.279839  
      31A      0.293246    32A      0.301567    33A      0.334032  
      34A      0.353982    35A      0.390448    36A      0.410730  
      37A      0.426081    38A      0.436222    39A      0.454613  
      40A      0.474578    41A      0.476326    42A      0.492040  
      43A      0.504570    44A      0.505852    45A      0.530927  
      46A      0.546776    47A      0.556566    48A      0.568244  
      49A      0.577302    50A      0.578259    51A      0.601557  
      52A      0.612285    53A      0.615341    54A      0.661493  
      55A      0.663455    56A      0.768544    57A      0.800525  
      58A      0.817510    59A      0.829759    60A      0.850444  
      61A      0.854199    62A      0.873991    63A      0.896415  
      64A      0.915780    65A      0.938412    66A      0.942362  
      67A      0.953914    68A      0.955633    69A      0.987525  
      70A      0.991517    71A      0.992633    72A      0.998184  
      73A      1.012179    74A      1.028746    75A      1.035809  
      76A      1.042404    77A      1.047995    78A      1.069655  
      79A      1.093509    80A      1.096309    81A      1.117811  
      82A      1.128000    83A      1.131606    84A      1.159087  
      85A      1.162616    86A      1.194693    87A      1.197384  
      88A      1.200845    89A      1.217687    90A      1.226410  
      91A      1.239192    92A      1.248549    93A      1.270352  
      94A      1.294691    95A      1.347196    96A      1.372648  
      97A      1.388310    98A      1.408494    99A      1.415710  
     100A      1.442496   101A      1.451001   102A      1.516040  
     103A      1.525940   104A      1.553633   105A      1.594904  
     106A      1.603775   107A      1.654728   108A      1.658611  
     109A      1.694691   110A      1.716043   111A      1.739927  
     112A      1.809277   113A      1.815735   114A      1.873517  
     115A      1.908984   116A      1.917369   117A      1.957051  
     118A      1.977125   119A      1.992584   120A      2.013265  
     121A      2.042522   122A      2.060260   123A      2.111499  
     124A      2.262428   125A      2.277280   126A      2.432738  
     127A      2.495671   128A      2.539437   129A      2.567808  
     130A      2.580857   131A      2.584100   132A      2.595398  
     133A      2.595967   134A      2.599112   135A      2.599187  
     136A      2.628073   137A      2.655835   138A      2.659233  
     139A      2.677185   140A      2.682152   141A      2.706639  
     142A      2.713601   143A      2.718477   144A      2.741321  
     145A      2.750742   146A      2.794432   147A      2.804281  
     148A      2.845139   149A      2.854573   150A      2.860776  
     151A      2.880305   152A      2.912051   153A      2.913022  
     154A      2.966816   155A      3.073526   156A      3.087976  
     157A      3.091487   158A      3.123375   159A      3.310831  
     160A      3.349663   161A      3.369568   162A      3.395831  
     163A      3.497669   164A      3.497910   165A      3.514793  
     166A      3.535370   167A      3.559144   168A      3.584154  
     169A      3.764646   170A      3.771367   171A      3.945611  
     172A      3.952835   173A      4.537698   174A      4.583209  
     175A      4.589991   176A      4.612437   177A      4.651963  
     178A      4.667941   179A      4.716601   180A      4.730993  
     181A      4.808173   182A      4.836104   183A      4.865063  
     184A      4.909486   185A      4.931066   186A      4.955862  
     187A      5.066110   188A      5.079452   189A      5.196950  
     190A      5.269380   191A      5.399861   192A      5.424464  
     193A      5.424733   194A      5.711169   195A      5.737503  
     196A      5.761064   197A      5.789100   198A      5.825120  
     199A      5.827088   200A      6.047549   201A      6.090280  
     202A      6.287072   203A      6.312478   204A      6.537672  
     205A      6.571432   206A      6.751000   207A      6.774265  
     208A      7.205443   209A      7.211734   210A      7.883287  
     211A      7.894675   212A      8.036075   213A      8.080260  
     214A      8.245610   215A      8.248426   216A      8.278445  
     217A      8.318112   218A      8.437297   219A      8.455201  
     220A      8.888055   221A      8.928747   222A      9.028971  
     223A      9.041621   224A      9.829773   225A      9.906944  
     226A     10.011218   227A     10.069425   228A     10.164970  
     229A     10.175445   230A     10.416324   231A     10.428955  
     232A     11.346035   233A     11.356239   234A     11.848065  
     235A     11.863096   236A     12.193341   237A     12.200338  
     238A     13.751141   239A     13.783092   240A     14.015517  
     241A     14.021725   242A     65.546696   243A     65.707212  

    Final Occupation by Irrep:
              A 
    DOCC [    18 ]
    NA   [    18 ]
    NB   [    18 ]

  @DF-RHF Final Energy: -2572.53368680011226

   => Energetics <=

    Nuclear Repulsion Energy =              0.0000000000000000
    One-Electron Energy =               -3593.6766444835484435
    Two-Electron Energy =                1021.1429576834359523
    Total Energy =                      -2572.5336868001122639

Computation Completed


Properties will be evaluated at   0.000000,   0.000000,   0.000000 [a0]

Properties computed using the SCF density matrix


 Multipole Moments:

 ------------------------------------------------------------------------------------
     Multipole            Electronic (a.u.)      Nuclear  (a.u.)        Total (a.u.)
 ------------------------------------------------------------------------------------

 L = 1.  Multiply by 2.5417464519 to convert [e a0] to [Debye]
 Dipole X            :       -231.2613224          224.8370633           -6.4242591
 Dipole Y            :          0.0000000            0.0000000            0.0000000
 Dipole Z            :          0.0000000            0.0000000            0.0000000
 Magnitude           :                                                    6.4242591

 ------------------------------------------------------------------------------------

*** tstop() called on ddmfs1 at Mon Jan 22 03:27:06 2024
Module time:
	user time   =      46.10 seconds =       0.77 minutes
	system time =       7.41 seconds =       0.12 minutes
	total time  =          5 seconds =       0.08 minutes
Total time:
	user time   =      46.10 seconds =       0.77 minutes
	system time =       7.41 seconds =       0.12 minutes
	total time  =          5 seconds =       0.08 minutes

*** tstart() called on ddmfs1
*** at Mon Jan 22 03:27:06 2024


  //>>>>>>>>>>>>>>>>>>>>>>>>>>>>>>>>>>>//
  //               DFMP2               //
  //<<<<<<<<<<<<<<<<<<<<<<<<<<<<<<<<<<<//

   => Loading Basis Set <=

    Name: (AUG-CC-PVTZ AUX)
    Role: RIFIT
    Keyword: DF_BASIS_MP2
    atoms 1        entry BR         line  1248 file /ddmfs1b/softs/psi4conda/share/psi4/basis/aug-cc-pvtz-ri.gbs 
    atoms 2, 5     entry O          line   264 file /ddmfs1b/softs/psi4conda/share/psi4/basis/aug-cc-pvtz-ri.gbs 
    atoms 3-4, 6-7 entry H          line    30 file /ddmfs1b/softs/psi4conda/share/psi4/basis/aug-cc-pvtz-ri.gbs 

	 --------------------------------------------------------
	                          DF-MP2                         
	      2nd-Order Density-Fitted Moller-Plesset Theory     
	              RMP2 Wavefunction,  20 Threads             
	                                                         
	        Rob Parrish, Justin Turney, Andy Simmonett,      
	           Ed Hohenstein, and C. David Sherrill          
	 --------------------------------------------------------

   => Auxiliary Basis Set <=

  Basis Set: (AUG-CC-PVTZ AUX)
    Blend: AUG-CC-PVTZ-RI
    Number of shells: 155
    Number of basis functions: 587
    Number of Cartesian functions: 753
    Spherical Harmonics?: true
    Max angular momentum: 5

	 --------------------------------------------------------
	                 NBF =   243, NAUX =   587
	 --------------------------------------------------------
	   CLASS    FOCC     OCC    AOCC    AVIR     VIR    FVIR
	   PAIRS       0      18      18     225     225       0
	 --------------------------------------------------------

	-----------------------------------------------------------
	 ==================> DF-MP2 Energies <==================== 
	-----------------------------------------------------------
	 Reference Energy          =   -2572.5336868001122639 [Eh]
	 Singles Energy            =      -0.0000000000000000 [Eh]
	 Same-Spin Energy          =      -0.0879790923890533 [Eh]
	 Opposite-Spin Energy      =      -0.2042128958507871 [Eh]
	 Correlation Energy        =      -0.2921919882398404 [Eh]
	 Total Energy              =   -2572.8258787883519290 [Eh]
	-----------------------------------------------------------
	 ================> DF-SCS-MP2 Energies <================== 
	-----------------------------------------------------------
	 SCS Same-Spin Scale       =       0.3333333333333333 [-]
	 SCS Opposite-Spin Scale   =       1.2000000000000000 [-]
	 SCS Same-Spin Energy      =      -0.0293263641296844 [Eh]
	 SCS Opposite-Spin Energy  =      -0.2450554750209445 [Eh]
	 SCS Correlation Energy    =      -0.2743818391506289 [Eh]
	 SCS Total Energy          =   -2572.8080686392627285 [Eh]
	-----------------------------------------------------------


*** tstop() called on ddmfs1 at Mon Jan 22 03:27:12 2024
Module time:
	user time   =      17.32 seconds =       0.29 minutes
	system time =       1.65 seconds =       0.03 minutes
	total time  =          6 seconds =       0.10 minutes
Total time:
	user time   =      63.44 seconds =       1.06 minutes
	system time =       9.06 seconds =       0.15 minutes
	total time  =         11 seconds =       0.18 minutes

    Psi4 stopped on: Monday, 22 January 2024 03:27AM
    Psi4 wall time for execution: 0:00:11.56


    -----------------------------------------------------------------------
          Psi4: An Open-Source Ab Initio Electronic Structure Package
                               Psi4 1.8.2 release

                         Git: Rev {} zzzzzzz 


    D. G. A. Smith, L. A. Burns, A. C. Simmonett, R. M. Parrish,
    M. C. Schieber, R. Galvelis, P. Kraus, H. Kruse, R. Di Remigio,
    A. Alenaizan, A. M. James, S. Lehtola, J. P. Misiewicz, M. Scheurer,
    R. A. Shaw, J. B. Schriber, Y. Xie, Z. L. Glick, D. A. Sirianni,
    J. S. O'Brien, J. M. Waldrop, A. Kumar, E. G. Hohenstein,
    B. P. Pritchard, B. R. Brooks, H. F. Schaefer III, A. Yu. Sokolov,
    K. Patkowski, A. E. DePrince III, U. Bozkaya, R. A. King,
    F. A. Evangelista, J. M. Turney, T. D. Crawford, C. D. Sherrill,
    J. Chem. Phys. 152(18) 184108 (2020). https://doi.org/10.1063/5.0006002

                            Additional Code Authors
    E. T. Seidl, C. L. Janssen, E. F. Valeev, M. L. Leininger,
    J. F. Gonthier, R. M. Richard, H. R. McAlexander, M. Saitow, X. Wang,
    P. Verma, M. H. Lechner, A. Jiang, S. Behnle, A. G. Heide,
    M. F. Herbst, and D. L. Poole

             Previous Authors, Complete List of Code Contributors,
                       and Citations for Specific Modules
    https://github.com/psi4/psi4/blob/master/codemeta.json
    https://github.com/psi4/psi4/graphs/contributors
    http://psicode.org/psi4manual/master/introduction.html#citing-psifour

    -----------------------------------------------------------------------


    Psi4 started on: Monday, 22 January 2024 03:26AM

    Process ID: 29809
    Host:       ddmfs1
    PSIDATADIR: /ddmfs1b/softs/psi4conda/share/psi4
    Memory:     55.9 GiB
    Threads:    20
    
  ==> Input QCSchema <==

--------------------------------------------------------------------------
{'driver': 'energy',
 'extras': {'psiapi': True, 'wfn_qcvars_only': True},
 'id': None,
 'keywords': {'SCF_TYPE': 'DF', 'function_kwargs': {}},
 'model': {'basis': 'aug-cc-pvtz', 'method': 'mp2'},
 'molecule': {'atom_labels': ['', '', '', '', '', '', ''],
              'atomic_numbers': [35, 8, 1, 1, 8, 1, 1],
              'extras': {},
              'fix_com': True,
              'fix_orientation': True,
              'fix_symmetry': 'c1',
              'fragment_charges': [0.0, 0.0, 0.0],
              'fragment_multiplicities': [1, 1, 1],
              'fragments': [[0], [1, 2, 3], [4, 5, 6]],
              'geometry': [6.423916093620086, 0.0, 0.0, 0.0, -0.21318189393902304, 2.962553882498245,
                           -0.660514082905149, 1.0936600978474635, 1.8904555597422548, 1.7406720875862163,
                           -0.3194411939735167, 2.339150241244836, 0.0, 0.21318189393902304, -2.962553882498245,
                           -0.660514082905149, -1.0936600978474635, -1.8904555597422548, 1.7406720875862163,
                           0.3194411939735167, -2.339150241244836],
              'mass_numbers': [79, 16, 1, 1, 16, 1, 1],
              'masses': [78.9183376, 15.99491461957, 1.00782503223, 1.00782503223, 15.99491461957, 1.00782503223,
                         1.00782503223],
              'molecular_charge': 0.0,
              'molecular_multiplicity': 1,
              'name': 'dimer',
              'provenance': {'creator': 'QCElemental',
                             'routine': 'qcelemental.molparse.from_string',
                             'version': '0.26.0'},
              'real': [False, True, True, True, False, False, False],
              'schema_name': 'qcschema_molecule',
              'schema_version': 2,
              'symbols': ['Br', 'O', 'H', 'H', 'O', 'H', 'H'],
              'validated': True},
 'protocols': {'stdout': True},
 'provenance': {'creator': 'QCElemental', 'routine': 'qcelemental.models.results', 'version': '0.26.0'},
 'schema_name': 'qcschema_input',
 'schema_version': 1}
--------------------------------------------------------------------------

Scratch directory: /ddmfs1a/scratch/
   => Libint2 <=

    Primary   basis highest AM E, G, H:  5, 4, 3
    Auxiliary basis highest AM E, G, H:  6, 5, 4
    Onebody   basis highest AM E, G, H:  6, 5, 4
    Solid Harmonics ordering:            gaussian

*** tstart() called on ddmfs1
*** at Mon Jan 22 03:27:12 2024

   => Loading Basis Set <=

    Name: AUG-CC-PVTZ
    Role: ORBITAL
    Keyword: BASIS
    atoms 1        entry BR         line  4208 file /ddmfs1b/softs/psi4conda/share/psi4/basis/aug-cc-pvtz.gbs 
    atoms 2, 5     entry O          line   331 file /ddmfs1b/softs/psi4conda/share/psi4/basis/aug-cc-pvtz.gbs 
    atoms 3-4, 6-7 entry H          line    40 file /ddmfs1b/softs/psi4conda/share/psi4/basis/aug-cc-pvtz.gbs 


         ---------------------------------------------------------
                                   SCF
               by Justin Turney, Rob Parrish, Andy Simmonett
                          and Daniel G. A. Smith
                              RHF Reference
                       20 Threads,  57220 MiB Core
         ---------------------------------------------------------

  ==> Geometry <==

    Molecular point group: c1
    Full point group: C1

    Geometry (in Bohr), charge = 0, multiplicity = 1:

       Center              X                  Y                   Z               Mass       
    ------------   -----------------  -----------------  -----------------  -----------------
      Gh(BR)          6.423916093620     0.000000000000     0.000000000000    78.918337600000
         O            0.000000000000    -0.213181893939     2.962553882498    15.994914619570
         H           -0.660514082905     1.093660097847     1.890455559742     1.007825032230
         H            1.740672087586    -0.319441193974     2.339150241245     1.007825032230
      Gh(O)           0.000000000000     0.213181893939    -2.962553882498    15.994914619570
      Gh(H)          -0.660514082905    -1.093660097847    -1.890455559742     1.007825032230
      Gh(H)           1.740672087586     0.319441193974    -2.339150241245     1.007825032230

  Running in c1 symmetry.

  Rotational constants: A =      0.19863  B =      0.01843  C =      0.01689 [cm^-1]
  Rotational constants: A =   5954.88914  B =    552.46336  C =    506.42002 [MHz]
  Nuclear repulsion =    9.082227045506999

  Charge       = 0
  Multiplicity = 1
  Electrons    = 10
  Nalpha       = 5
  Nbeta        = 5

  ==> Algorithm <==

  SCF Algorithm Type is DF.
  DIIS enabled.
  MOM disabled.
  Fractional occupation disabled.
  Guess Type is SAD.
  Energy threshold   = 1.00e-08
  Density threshold  = 1.00e-08
  Integral threshold = 1.00e-12

  ==> Primary Basis <==

  Basis Set: AUG-CC-PVTZ
    Blend: AUG-CC-PVTZ
    Number of shells: 83
    Number of basis functions: 243
    Number of Cartesian functions: 279
    Spherical Harmonics?: true
    Max angular momentum: 3

   => Loading Basis Set <=

    Name: (AUG-CC-PVTZ AUX)
    Role: JKFIT
    Keyword: DF_BASIS_SCF
    atoms 1        entry BR         line  1492 file /ddmfs1b/softs/psi4conda/share/psi4/basis/aug-cc-pvtz-jkfit.gbs 
    atoms 2, 5     entry O          line   286 file /ddmfs1b/softs/psi4conda/share/psi4/basis/aug-cc-pvtz-jkfit.gbs 
    atoms 3-4, 6-7 entry H          line    70 file /ddmfs1b/softs/psi4conda/share/psi4/basis/aug-cc-pvtz-jkfit.gbs 

  ==> Integral Setup <==

  DFHelper Memory: AOs need 0.302 GiB; user supplied 41.910 GiB. 
  Using in-core AOs.

  ==> MemDFJK: Density-Fitted J/K Matrices <==

    J tasked:                   Yes
    K tasked:                   Yes
    wK tasked:                   No
    OpenMP threads:              20
    Memory [MiB]:             42915
    Algorithm:                 Core
    Schwarz Cutoff:           1E-12
    Mask sparsity (%):       1.3175
    Fitting Condition:        1E-10

   => Auxiliary Basis Set <=

  Basis Set: (AUG-CC-PVTZ AUX)
    Blend: AUG-CC-PVTZ-JKFIT
    Number of shells: 174
    Number of basis functions: 640
    Number of Cartesian functions: 811
    Spherical Harmonics?: true
    Max angular momentum: 4

  Minimum eigenvalue in the overlap matrix is 2.6157837512E-04.
  Reciprocal condition number of the overlap matrix is 2.5032469041E-05.
    Using symmetric orthogonalization.

  ==> Pre-Iterations <==

  SCF Guess: Superposition of Atomic Densities via on-the-fly atomic UHF (no occupation information).

   -------------------------
    Irrep   Nso     Nmo    
   -------------------------
     A        243     243 
   -------------------------
    Total     243     243
   -------------------------

  ==> Iterations <==

                           Total Energy        Delta E     RMS |[F,P]|

   @DF-RHF iter SAD:   -75.46707188283287   -7.54671e+01   0.00000e+00 
   @DF-RHF iter   1:   -75.97344999460807   -5.06378e-01   1.92535e-03 ADIIS/DIIS
   @DF-RHF iter   2:   -76.02572108365601   -5.22711e-02   1.33388e-03 ADIIS/DIIS
   @DF-RHF iter   3:   -76.05832692095458   -3.26058e-02   9.06950e-05 DIIS
   @DF-RHF iter   4:   -76.05872911520122   -4.02194e-04   2.22277e-05 DIIS
   @DF-RHF iter   5:   -76.05875605125348   -2.69361e-05   5.17815e-06 DIIS
   @DF-RHF iter   6:   -76.05875832874771   -2.27749e-06   1.12266e-06 DIIS
   @DF-RHF iter   7:   -76.05875844444131   -1.15694e-07   1.91275e-07 DIIS
   @DF-RHF iter   8:   -76.05875844733337   -2.89207e-09   3.20874e-08 DIIS
   @DF-RHF iter   9:   -76.05875844739703   -6.36504e-11   7.77440e-09 DIIS
  Energy and wave function converged.


  ==> Post-Iterations <==

    Orbital Energies [Eh]
    ---------------------

    Doubly Occupied:                                                      

       1A    -20.571100     2A     -1.349826     3A     -0.703245  
       4A     -0.589969     5A     -0.510440  

    Virtual:                                                              

       6A      0.019837     7A      0.041628     8A      0.050013  
       9A      0.053093    10A      0.081169    11A      0.083291  
      12A      0.095691    13A      0.100244    14A      0.134550  
      15A      0.147165    16A      0.159142    17A      0.166152  
      18A      0.180936    19A      0.194233    20A      0.197332  
      21A      0.228735    22A      0.248655    23A      0.258108  
      24A      0.266148    25A      0.276829    26A      0.295243  
      27A      0.296164    28A      0.312002    29A      0.316255  
      30A      0.330315    31A      0.346575    32A      0.354459  
      33A      0.366509    34A      0.378877    35A      0.390181  
      36A      0.397845    37A      0.411772    38A      0.430372  
      39A      0.457890    40A      0.462862    41A      0.470872  
      42A      0.479060    43A      0.490901    44A      0.520053  
      45A      0.555176    46A      0.582951    47A      0.662700  
      48A      0.683034    49A      0.695678    50A      0.721553  
      51A      0.732966    52A      0.751916    53A      0.757455  
      54A      0.781904    55A      0.803291    56A      0.827277  
      57A      0.836069    58A      0.845867    59A      0.866029  
      60A      0.881582    61A      0.900138    62A      0.901783  
      63A      0.921828    64A      0.929911    65A      0.946869  
      66A      0.957995    67A      0.968821    68A      0.978453  
      69A      0.991157    70A      1.001790    71A      1.009072  
      72A      1.026558    73A      1.034207    74A      1.055719  
      75A      1.064818    76A      1.073125    77A      1.085248  
      78A      1.097892    79A      1.108789    80A      1.119588  
      81A      1.137033    82A      1.155059    83A      1.156348  
      84A      1.185003    85A      1.207184    86A      1.223440  
      87A      1.233380    88A      1.249320    89A      1.265121  
      90A      1.283639    91A      1.291664    92A      1.307076  
      93A      1.332045    94A      1.356155    95A      1.407431  
      96A      1.424650    97A      1.473894    98A      1.478235  
      99A      1.496959   100A      1.546369   101A      1.565442  
     102A      1.570944   103A      1.624496   104A      1.635137  
     105A      1.698525   106A      1.728652   107A      1.755270  
     108A      1.783655   109A      1.836355   110A      1.871201  
     111A      1.887968   112A      1.917183   113A      1.933430  
     114A      2.083164   115A      2.105740   116A      2.339427  
     117A      2.359963   118A      2.401107   119A      2.428236  
     120A      2.462789   121A      2.508322   122A      2.531018  
     123A      2.537845   124A      2.565445   125A      2.594071  
     126A      2.622981   127A      2.661604   128A      2.664772  
     129A      2.701489   130A      2.716210   131A      2.767175  
     132A      2.823306   133A      2.837095   134A      2.864633  
     135A      2.884362   136A      2.889022   137A      2.919055  
     138A      2.940123   139A      2.960192   140A      3.015636  
     141A      3.121738   142A      3.127444   143A      3.132967  
     144A      3.177366   145A      3.183450   146A      3.214946  
     147A      3.247571   148A      3.257420   149A      3.260126  
     150A      3.297768   151A      3.303537   152A      3.329397  
     153A      3.374945   154A      3.410099   155A      3.422982  
     156A      3.451371   157A      3.505961   158A      3.566949  
     159A      3.676308   160A      3.752119   161A      3.807443  
     162A      3.869257   163A      4.128550   164A      4.178306  
     165A      4.233890   166A      4.291494   167A      4.316851  
     168A      4.377575   169A      4.408825   170A      4.441286  
     171A      4.467353   172A      4.492229   173A      4.529899  
     174A      4.596855   175A      4.622111   176A      4.715893  
     177A      4.771891   178A      4.800863   179A      4.915465  
     180A      4.944483   181A      4.983582   182A      5.099413  
     183A      5.147719   184A      5.211769   185A      5.284109  
     186A      5.288145   187A      5.379260   188A      5.541674  
     189A      5.558039   190A      5.593604   191A      5.663771  
     192A      5.670575   193A      5.905061   194A      6.132945  
     195A      6.295951   196A      6.389056   197A      6.533338  
     198A      6.596406   199A      6.819014   200A      6.985777  
     201A      7.050730   202A      7.195379   203A      7.270706  
     204A      7.312219   205A      7.340026   206A      7.406973  
     207A      7.446405   208A      7.631804   209A      7.749291  
     210A      7.878123   211A      7.897474   212A      7.991973  
     213A      8.095297   214A      8.146400   215A      8.291368  
     216A      8.746000   217A      8.810582   218A      8.866799  
     219A      9.689767   220A      9.886289   221A      9.918755  
     222A     10.015342   223A     10.269385   224A     11.192147  
     225A     11.699467   226A     12.044067   227A     13.453198  
     228A     13.514796   229A     13.598304   230A     13.668732  
     231A     13.885815   232A     16.150774   233A     26.140820  
     234A     26.144646   235A     26.179983   236A     26.301376  
     237A     26.315681   238A     45.716942   239A     65.479706  
     240A    138.409584   241A    138.535717   242A    138.718175  
     243A    709.361983  

    Final Occupation by Irrep:
              A 
    DOCC [     5 ]
    NA   [     5 ]
    NB   [     5 ]

  @DF-RHF Final Energy:   -76.05875844739703

   => Energetics <=

    Nuclear Repulsion Energy =              9.0822270455069987
    One-Electron Energy =                -122.8328083708641572
    Two-Electron Energy =                  37.6918228779601421
    Total Energy =                        -76.0587584473970253

Computation Completed


Properties will be evaluated at   0.000000,   0.000000,   0.000000 [a0]

Properties computed using the SCF density matrix


 Multipole Moments:

 ------------------------------------------------------------------------------------
     Multipole            Electronic (a.u.)      Nuclear  (a.u.)        Total (a.u.)
 ------------------------------------------------------------------------------------

 L = 1.  Multiply by 2.5417464519 to convert [e a0] to [Debye]
 Dipole X            :         -0.7102658            1.0801580            0.3698922
 Dipole Y            :          1.3477462           -0.9312362            0.4165099
 Dipole Z            :        -28.5164144           27.9300369           -0.5863776
 Magnitude           :                                                    0.8087889

 ------------------------------------------------------------------------------------

*** tstop() called on ddmfs1 at Mon Jan 22 03:27:15 2024
Module time:
	user time   =      32.26 seconds =       0.54 minutes
	system time =       3.50 seconds =       0.06 minutes
	total time  =          3 seconds =       0.05 minutes
Total time:
	user time   =      96.88 seconds =       1.61 minutes
	system time =      12.60 seconds =       0.21 minutes
	total time  =         14 seconds =       0.23 minutes

*** tstart() called on ddmfs1
*** at Mon Jan 22 03:27:15 2024


  //>>>>>>>>>>>>>>>>>>>>>>>>>>>>>>>>>>>//
  //               DFMP2               //
  //<<<<<<<<<<<<<<<<<<<<<<<<<<<<<<<<<<<//

   => Loading Basis Set <=

    Name: (AUG-CC-PVTZ AUX)
    Role: RIFIT
    Keyword: DF_BASIS_MP2
    atoms 1        entry BR         line  1248 file /ddmfs1b/softs/psi4conda/share/psi4/basis/aug-cc-pvtz-ri.gbs 
    atoms 2, 5     entry O          line   264 file /ddmfs1b/softs/psi4conda/share/psi4/basis/aug-cc-pvtz-ri.gbs 
    atoms 3-4, 6-7 entry H          line    30 file /ddmfs1b/softs/psi4conda/share/psi4/basis/aug-cc-pvtz-ri.gbs 

	 --------------------------------------------------------
	                          DF-MP2                         
	      2nd-Order Density-Fitted Moller-Plesset Theory     
	              RMP2 Wavefunction,  20 Threads             
	                                                         
	        Rob Parrish, Justin Turney, Andy Simmonett,      
	           Ed Hohenstein, and C. David Sherrill          
	 --------------------------------------------------------

   => Auxiliary Basis Set <=

  Basis Set: (AUG-CC-PVTZ AUX)
    Blend: AUG-CC-PVTZ-RI
    Number of shells: 155
    Number of basis functions: 587
    Number of Cartesian functions: 753
    Spherical Harmonics?: true
    Max angular momentum: 5

	 --------------------------------------------------------
	                 NBF =   243, NAUX =   587
	 --------------------------------------------------------
	   CLASS    FOCC     OCC    AOCC    AVIR     VIR    FVIR
	   PAIRS       0       5       5     238     238       0
	 --------------------------------------------------------

	-----------------------------------------------------------
	 ==================> DF-MP2 Energies <==================== 
	-----------------------------------------------------------
	 Reference Energy          =     -76.0587584473970253 [Eh]
	 Singles Energy            =      -0.0000000000000000 [Eh]
	 Same-Spin Energy          =      -0.0686985304436123 [Eh]
	 Opposite-Spin Energy      =      -0.2166458890391761 [Eh]
	 Correlation Energy        =      -0.2853444194827884 [Eh]
	 Total Energy              =     -76.3441028668798083 [Eh]
	-----------------------------------------------------------
	 ================> DF-SCS-MP2 Energies <================== 
	-----------------------------------------------------------
	 SCS Same-Spin Scale       =       0.3333333333333333 [-]
	 SCS Opposite-Spin Scale   =       1.2000000000000000 [-]
	 SCS Same-Spin Energy      =      -0.0228995101478708 [Eh]
	 SCS Opposite-Spin Energy  =      -0.2599750668470113 [Eh]
	 SCS Correlation Energy    =      -0.2828745769948821 [Eh]
	 SCS Total Energy          =     -76.3416330243919106 [Eh]
	-----------------------------------------------------------


*** tstop() called on ddmfs1 at Mon Jan 22 03:27:22 2024
Module time:
	user time   =      15.92 seconds =       0.27 minutes
	system time =       1.49 seconds =       0.02 minutes
	total time  =          7 seconds =       0.12 minutes
Total time:
	user time   =     112.81 seconds =       1.88 minutes
	system time =      14.09 seconds =       0.23 minutes
	total time  =         21 seconds =       0.35 minutes

    Psi4 stopped on: Monday, 22 January 2024 03:27AM
    Psi4 wall time for execution: 0:00:09.53


    -----------------------------------------------------------------------
          Psi4: An Open-Source Ab Initio Electronic Structure Package
                               Psi4 1.8.2 release

                         Git: Rev {} zzzzzzz 


    D. G. A. Smith, L. A. Burns, A. C. Simmonett, R. M. Parrish,
    M. C. Schieber, R. Galvelis, P. Kraus, H. Kruse, R. Di Remigio,
    A. Alenaizan, A. M. James, S. Lehtola, J. P. Misiewicz, M. Scheurer,
    R. A. Shaw, J. B. Schriber, Y. Xie, Z. L. Glick, D. A. Sirianni,
    J. S. O'Brien, J. M. Waldrop, A. Kumar, E. G. Hohenstein,
    B. P. Pritchard, B. R. Brooks, H. F. Schaefer III, A. Yu. Sokolov,
    K. Patkowski, A. E. DePrince III, U. Bozkaya, R. A. King,
    F. A. Evangelista, J. M. Turney, T. D. Crawford, C. D. Sherrill,
    J. Chem. Phys. 152(18) 184108 (2020). https://doi.org/10.1063/5.0006002

                            Additional Code Authors
    E. T. Seidl, C. L. Janssen, E. F. Valeev, M. L. Leininger,
    J. F. Gonthier, R. M. Richard, H. R. McAlexander, M. Saitow, X. Wang,
    P. Verma, M. H. Lechner, A. Jiang, S. Behnle, A. G. Heide,
    M. F. Herbst, and D. L. Poole

             Previous Authors, Complete List of Code Contributors,
                       and Citations for Specific Modules
    https://github.com/psi4/psi4/blob/master/codemeta.json
    https://github.com/psi4/psi4/graphs/contributors
    http://psicode.org/psi4manual/master/introduction.html#citing-psifour

    -----------------------------------------------------------------------


    Psi4 started on: Monday, 22 January 2024 03:26AM

    Process ID: 29809
    Host:       ddmfs1
    PSIDATADIR: /ddmfs1b/softs/psi4conda/share/psi4
    Memory:     55.9 GiB
    Threads:    20
    
  ==> Input QCSchema <==

--------------------------------------------------------------------------
{'driver': 'energy',
 'extras': {'psiapi': True, 'wfn_qcvars_only': True},
 'id': None,
 'keywords': {'SCF_TYPE': 'DF', 'function_kwargs': {}},
 'model': {'basis': 'aug-cc-pvtz', 'method': 'mp2'},
 'molecule': {'atom_labels': ['', '', '', '', '', '', ''],
              'atomic_numbers': [35, 8, 1, 1, 8, 1, 1],
              'extras': {},
              'fix_com': True,
              'fix_orientation': True,
              'fix_symmetry': 'c1',
              'fragment_charges': [0.0, 0.0, 0.0],
              'fragment_multiplicities': [1, 1, 1],
              'fragments': [[0], [1, 2, 3], [4, 5, 6]],
              'geometry': [6.423916093620086, 0.0, 0.0, 0.0, -0.21318189393902304, 2.962553882498245,
                           -0.660514082905149, 1.0936600978474635, 1.8904555597422548, 1.7406720875862163,
                           -0.3194411939735167, 2.339150241244836, 0.0, 0.21318189393902304, -2.962553882498245,
                           -0.660514082905149, -1.0936600978474635, -1.8904555597422548, 1.7406720875862163,
                           0.3194411939735167, -2.339150241244836],
              'mass_numbers': [79, 16, 1, 1, 16, 1, 1],
              'masses': [78.9183376, 15.99491461957, 1.00782503223, 1.00782503223, 15.99491461957, 1.00782503223,
                         1.00782503223],
              'molecular_charge': 0.0,
              'molecular_multiplicity': 1,
              'name': 'dimer',
              'provenance': {'creator': 'QCElemental',
                             'routine': 'qcelemental.molparse.from_string',
                             'version': '0.26.0'},
              'real': [False, True, True, True, True, True, True],
              'schema_name': 'qcschema_molecule',
              'schema_version': 2,
              'symbols': ['Br', 'O', 'H', 'H', 'O', 'H', 'H'],
              'validated': True},
 'protocols': {'stdout': True},
 'provenance': {'creator': 'QCElemental', 'routine': 'qcelemental.models.results', 'version': '0.26.0'},
 'schema_name': 'qcschema_input',
 'schema_version': 1}
--------------------------------------------------------------------------

Scratch directory: /ddmfs1a/scratch/
   => Libint2 <=

    Primary   basis highest AM E, G, H:  5, 4, 3
    Auxiliary basis highest AM E, G, H:  6, 5, 4
    Onebody   basis highest AM E, G, H:  6, 5, 4
    Solid Harmonics ordering:            gaussian

*** tstart() called on ddmfs1
*** at Mon Jan 22 03:27:22 2024

   => Loading Basis Set <=

    Name: AUG-CC-PVTZ
    Role: ORBITAL
    Keyword: BASIS
    atoms 1        entry BR         line  4208 file /ddmfs1b/softs/psi4conda/share/psi4/basis/aug-cc-pvtz.gbs 
    atoms 2, 5     entry O          line   331 file /ddmfs1b/softs/psi4conda/share/psi4/basis/aug-cc-pvtz.gbs 
    atoms 3-4, 6-7 entry H          line    40 file /ddmfs1b/softs/psi4conda/share/psi4/basis/aug-cc-pvtz.gbs 


         ---------------------------------------------------------
                                   SCF
               by Justin Turney, Rob Parrish, Andy Simmonett
                          and Daniel G. A. Smith
                              RHF Reference
                       20 Threads,  57220 MiB Core
         ---------------------------------------------------------

  ==> Geometry <==

    Molecular point group: c1
    Full point group: C2

    Geometry (in Bohr), charge = 0, multiplicity = 1:

       Center              X                  Y                   Z               Mass       
    ------------   -----------------  -----------------  -----------------  -----------------
      Gh(BR)          6.423916093620     0.000000000000     0.000000000000    78.918337600000
         O            0.000000000000    -0.213181893939     2.962553882498    15.994914619570
         H           -0.660514082905     1.093660097847     1.890455559742     1.007825032230
         H            1.740672087586    -0.319441193974     2.339150241245     1.007825032230
         O            0.000000000000     0.213181893939    -2.962553882498    15.994914619570
         H           -0.660514082905    -1.093660097847    -1.890455559742     1.007825032230
         H            1.740672087586     0.319441193974    -2.339150241245     1.007825032230

  Running in c1 symmetry.

  Rotational constants: A =      0.19863  B =      0.01843  C =      0.01689 [cm^-1]
  Rotational constants: A =   5954.88914  B =    552.46336  C =    506.42002 [MHz]
  Nuclear repulsion =   35.854509788005693

  Charge       = 0
  Multiplicity = 1
  Electrons    = 20
  Nalpha       = 10
  Nbeta        = 10

  ==> Algorithm <==

  SCF Algorithm Type is DF.
  DIIS enabled.
  MOM disabled.
  Fractional occupation disabled.
  Guess Type is SAD.
  Energy threshold   = 1.00e-08
  Density threshold  = 1.00e-08
  Integral threshold = 1.00e-12

  ==> Primary Basis <==

  Basis Set: AUG-CC-PVTZ
    Blend: AUG-CC-PVTZ
    Number of shells: 83
    Number of basis functions: 243
    Number of Cartesian functions: 279
    Spherical Harmonics?: true
    Max angular momentum: 3

   => Loading Basis Set <=

    Name: (AUG-CC-PVTZ AUX)
    Role: JKFIT
    Keyword: DF_BASIS_SCF
    atoms 1        entry BR         line  1492 file /ddmfs1b/softs/psi4conda/share/psi4/basis/aug-cc-pvtz-jkfit.gbs 
    atoms 2, 5     entry O          line   286 file /ddmfs1b/softs/psi4conda/share/psi4/basis/aug-cc-pvtz-jkfit.gbs 
    atoms 3-4, 6-7 entry H          line    70 file /ddmfs1b/softs/psi4conda/share/psi4/basis/aug-cc-pvtz-jkfit.gbs 

  ==> Integral Setup <==

  DFHelper Memory: AOs need 0.302 GiB; user supplied 41.910 GiB. 
  Using in-core AOs.

  ==> MemDFJK: Density-Fitted J/K Matrices <==

    J tasked:                   Yes
    K tasked:                   Yes
    wK tasked:                   No
    OpenMP threads:              20
    Memory [MiB]:             42915
    Algorithm:                 Core
    Schwarz Cutoff:           1E-12
    Mask sparsity (%):       1.3175
    Fitting Condition:        1E-10

   => Auxiliary Basis Set <=

  Basis Set: (AUG-CC-PVTZ AUX)
    Blend: AUG-CC-PVTZ-JKFIT
    Number of shells: 174
    Number of basis functions: 640
    Number of Cartesian functions: 811
    Spherical Harmonics?: true
    Max angular momentum: 4

  Minimum eigenvalue in the overlap matrix is 2.6157837512E-04.
  Reciprocal condition number of the overlap matrix is 2.5032469041E-05.
    Using symmetric orthogonalization.

  ==> Pre-Iterations <==

  SCF Guess: Superposition of Atomic Densities via on-the-fly atomic UHF (no occupation information).

   -------------------------
    Irrep   Nso     Nmo    
   -------------------------
     A        243     243 
   -------------------------
    Total     243     243
   -------------------------

  ==> Iterations <==

                           Total Energy        Delta E     RMS |[F,P]|

   @DF-RHF iter SAD:  -151.00647688067332   -1.51006e+02   0.00000e+00 
   @DF-RHF iter   1:  -151.95256039714189   -9.46084e-01   2.67317e-03 ADIIS/DIIS
   @DF-RHF iter   2:  -152.05536795716768   -1.02808e-01   1.81874e-03 ADIIS/DIIS
   @DF-RHF iter   3:  -152.11592633106716   -6.05584e-02   1.31244e-04 ADIIS/DIIS
   @DF-RHF iter   4:  -152.11679677553641   -8.70444e-04   3.14498e-05 DIIS
   @DF-RHF iter   5:  -152.11685263538871   -5.58599e-05   7.87931e-06 DIIS
   @DF-RHF iter   6:  -152.11685786299032   -5.22760e-06   1.70981e-06 DIIS
   @DF-RHF iter   7:  -152.11685812651206   -2.63522e-07   3.08568e-07 DIIS
   @DF-RHF iter   8:  -152.11685813393262   -7.42057e-09   6.02786e-08 DIIS
   @DF-RHF iter   9:  -152.11685813420254   -2.69921e-10   1.75183e-08 DIIS
   @DF-RHF iter  10:  -152.11685813422883   -2.62901e-11   4.28770e-09 DIIS
  Energy and wave function converged.


  ==> Post-Iterations <==

    Orbital Energies [Eh]
    ---------------------

    Doubly Occupied:                                                      

       1A    -20.581866     2A    -20.581862     3A     -1.365485  
       4A     -1.358284     5A     -0.717889     6A     -0.711720  
       7A     -0.611026     8A     -0.594472     9A     -0.527586  
      10A     -0.515624  

    Virtual:                                                              

      11A      0.018136    12A      0.044541    13A      0.049881  
      14A      0.053671    15A      0.079214    16A      0.079270  
      17A      0.092543    18A      0.096224    19A      0.157549  
      20A      0.165012    21A      0.168507    22A      0.176100  
      23A      0.187649    24A      0.195388    25A      0.197774  
      26A      0.234980    27A      0.236944    28A      0.238328  
      29A      0.252863    30A      0.257474    31A      0.283473  
      32A      0.291981    33A      0.305829    34A      0.310052  
      35A      0.335339    36A      0.341256    37A      0.356417  
      38A      0.365541    39A      0.375780    40A      0.380076  
      41A      0.418803    42A      0.422409    43A      0.451778  
      44A      0.457453    45A      0.468980    46A      0.471176  
      47A      0.479525    48A      0.504411    49A      0.523571  
      50A      0.564553    51A      0.580682    52A      0.618584  
      53A      0.669809    54A      0.673336    55A      0.680776  
      56A      0.718230    57A      0.721021    58A      0.726751  
      59A      0.742996    60A      0.780122    61A      0.836841  
      62A      0.843134    63A      0.853302    64A      0.864072  
      65A      0.882543    66A      0.898497    67A      0.908448  
      68A      0.927328    69A      0.944434    70A      0.949951  
      71A      0.953620    72A      0.961640    73A      0.969134  
      74A      0.972905    75A      0.985809    76A      1.015341  
      77A      1.034286    78A      1.040936    79A      1.045363  
      80A      1.047510    81A      1.067434    82A      1.075705  
      83A      1.097765    84A      1.108741    85A      1.123494  
      86A      1.126155    87A      1.137829    88A      1.163739  
      89A      1.183135    90A      1.193171    91A      1.199610  
      92A      1.216577    93A      1.245672    94A      1.252601  
      95A      1.262449    96A      1.292199    97A      1.296570  
      98A      1.316201    99A      1.327515   100A      1.346657  
     101A      1.376777   102A      1.440368   103A      1.442373  
     104A      1.510542   105A      1.537006   106A      1.548384  
     107A      1.563202   108A      1.583831   109A      1.601642  
     110A      1.630982   111A      1.631485   112A      1.702729  
     113A      1.726756   114A      1.870174   115A      1.886990  
     116A      1.905176   117A      1.905573   118A      2.063774  
     119A      2.073485   120A      2.268733   121A      2.322597  
     122A      2.355049   123A      2.364811   124A      2.386591  
     125A      2.398975   126A      2.443668   127A      2.478947  
     128A      2.494999   129A      2.512338   130A      2.543676  
     131A      2.553312   132A      2.567269   133A      2.605423  
     134A      2.700297   135A      2.704326   136A      2.710862  
     137A      2.715013   138A      2.774509   139A      2.803950  
     140A      2.846469   141A      2.848565   142A      2.855962  
     143A      2.871188   144A      2.889370   145A      2.906413  
     146A      2.936103   147A      2.973726   148A      3.047833  
     149A      3.109481   150A      3.112103   151A      3.118922  
     152A      3.187759   153A      3.235904   154A      3.239362  
     155A      3.293302   156A      3.298671   157A      3.345765  
     158A      3.392828   159A      3.403275   160A      3.478077  
     161A      3.586144   162A      3.690398   163A      3.752340  
     164A      3.835391   165A      3.867986   166A      4.081650  
     167A      4.140588   168A      4.143198   169A      4.172143  
     170A      4.177128   171A      4.258210   172A      4.272290  
     173A      4.291898   174A      4.292528   175A      4.304893  
     176A      4.349588   177A      4.393761   178A      4.419389  
     179A      4.488417   180A      4.577608   181A      4.577981  
     182A      4.663962   183A      4.672847   184A      4.777377  
     185A      4.802168   186A      4.917953   187A      4.947964  
     188A      5.130789   189A      5.141099   190A      5.211088  
     191A      5.250869   192A      5.268549   193A      5.283268  
     194A      5.338030   195A      5.409009   196A      5.512052  
     197A      5.551937   198A      5.643340   199A      5.647103  
     200A      6.283969   201A      6.285094   202A      6.516469  
     203A      6.525253   204A      6.795983   205A      6.805731  
     206A      6.955927   207A      7.006931   208A      7.167556  
     209A      7.197693   210A      7.234917   211A      7.269247  
     212A      7.279216   213A      7.321674   214A      7.327586  
     215A      7.349234   216A      7.384492   217A      7.406836  
     218A      7.425064   219A      7.453383   220A      7.622226  
     221A      7.640695   222A      7.855054   223A      7.880905  
     224A      7.980799   225A      7.984726   226A      8.795524  
     227A      8.807906   228A      9.867827   229A     13.438297  
     230A     13.518815   231A     13.639771   232A     16.083525  
     233A     16.192030   234A     26.125743   235A     26.129580  
     236A     26.164700   237A     26.288334   238A     26.302904  
     239A     45.706758   240A    138.394384   241A    138.520284  
     242A    138.702560   243A    709.346392  

    Final Occupation by Irrep:
              A 
    DOCC [    10 ]
    NA   [    10 ]
    NB   [    10 ]

  @DF-RHF Final Energy:  -152.11685813422883

   => Energetics <=

    Nuclear Repulsion Energy =             35.8545097880056929
    One-Electron Energy =                -280.8111045586262549
    Two-Electron Energy =                  92.8397366363917058
    Total Energy =                       -152.1168581342288633

Computation Completed


Properties will be evaluated at   0.000000,   0.000000,   0.000000 [a0]

Properties computed using the SCF density matrix


 Multipole Moments:

 ------------------------------------------------------------------------------------
     Multipole            Electronic (a.u.)      Nuclear  (a.u.)        Total (a.u.)
 ------------------------------------------------------------------------------------

 L = 1.  Multiply by 2.5417464519 to convert [e a0] to [Debye]
 Dipole X            :         -1.4582103            2.1603160            0.7021057
 Dipole Y            :         -0.0000000            0.0000000           -0.0000000
 Dipole Z            :          0.0000000            0.0000000            0.0000000
 Magnitude           :                                                    0.7021057

 ------------------------------------------------------------------------------------

*** tstop() called on ddmfs1 at Mon Jan 22 03:27:25 2024
Module time:
	user time   =      33.67 seconds =       0.56 minutes
	system time =       3.39 seconds =       0.06 minutes
	total time  =          3 seconds =       0.05 minutes
Total time:
	user time   =     147.69 seconds =       2.46 minutes
	system time =      17.50 seconds =       0.29 minutes
	total time  =         24 seconds =       0.40 minutes

*** tstart() called on ddmfs1
*** at Mon Jan 22 03:27:25 2024


  //>>>>>>>>>>>>>>>>>>>>>>>>>>>>>>>>>>>//
  //               DFMP2               //
  //<<<<<<<<<<<<<<<<<<<<<<<<<<<<<<<<<<<//

   => Loading Basis Set <=

    Name: (AUG-CC-PVTZ AUX)
    Role: RIFIT
    Keyword: DF_BASIS_MP2
    atoms 1        entry BR         line  1248 file /ddmfs1b/softs/psi4conda/share/psi4/basis/aug-cc-pvtz-ri.gbs 
    atoms 2, 5     entry O          line   264 file /ddmfs1b/softs/psi4conda/share/psi4/basis/aug-cc-pvtz-ri.gbs 
    atoms 3-4, 6-7 entry H          line    30 file /ddmfs1b/softs/psi4conda/share/psi4/basis/aug-cc-pvtz-ri.gbs 

	 --------------------------------------------------------
	                          DF-MP2                         
	      2nd-Order Density-Fitted Moller-Plesset Theory     
	              RMP2 Wavefunction,  20 Threads             
	                                                         
	        Rob Parrish, Justin Turney, Andy Simmonett,      
	           Ed Hohenstein, and C. David Sherrill          
	 --------------------------------------------------------

   => Auxiliary Basis Set <=

  Basis Set: (AUG-CC-PVTZ AUX)
    Blend: AUG-CC-PVTZ-RI
    Number of shells: 155
    Number of basis functions: 587
    Number of Cartesian functions: 753
    Spherical Harmonics?: true
    Max angular momentum: 5

	 --------------------------------------------------------
	                 NBF =   243, NAUX =   587
	 --------------------------------------------------------
	   CLASS    FOCC     OCC    AOCC    AVIR     VIR    FVIR
	   PAIRS       0      10      10     233     233       0
	 --------------------------------------------------------

	-----------------------------------------------------------
	 ==================> DF-MP2 Energies <==================== 
	-----------------------------------------------------------
	 Reference Energy          =    -152.1168581342288348 [Eh]
	 Singles Energy            =      -0.0000000000000000 [Eh]
	 Same-Spin Energy          =      -0.1383022508343167 [Eh]
	 Opposite-Spin Energy      =      -0.4340876443094753 [Eh]
	 Correlation Energy        =      -0.5723898951437920 [Eh]
	 Total Energy              =    -152.6892480293726351 [Eh]
	-----------------------------------------------------------
	 ================> DF-SCS-MP2 Energies <================== 
	-----------------------------------------------------------
	 SCS Same-Spin Scale       =       0.3333333333333333 [-]
	 SCS Opposite-Spin Scale   =       1.2000000000000000 [-]
	 SCS Same-Spin Energy      =      -0.0461007502781056 [Eh]
	 SCS Opposite-Spin Energy  =      -0.5209051731713704 [Eh]
	 SCS Correlation Energy    =      -0.5670059234494760 [Eh]
	 SCS Total Energy          =    -152.6838640576783064 [Eh]
	-----------------------------------------------------------


*** tstop() called on ddmfs1 at Mon Jan 22 03:27:31 2024
Module time:
	user time   =      16.52 seconds =       0.28 minutes
	system time =       1.35 seconds =       0.02 minutes
	total time  =          6 seconds =       0.10 minutes
Total time:
	user time   =     164.23 seconds =       2.74 minutes
	system time =      18.86 seconds =       0.31 minutes
	total time  =         30 seconds =       0.50 minutes

    Psi4 stopped on: Monday, 22 January 2024 03:27AM
    Psi4 wall time for execution: 0:00:09.56


    -----------------------------------------------------------------------
          Psi4: An Open-Source Ab Initio Electronic Structure Package
                               Psi4 1.8.2 release

                         Git: Rev {} zzzzzzz 


    D. G. A. Smith, L. A. Burns, A. C. Simmonett, R. M. Parrish,
    M. C. Schieber, R. Galvelis, P. Kraus, H. Kruse, R. Di Remigio,
    A. Alenaizan, A. M. James, S. Lehtola, J. P. Misiewicz, M. Scheurer,
    R. A. Shaw, J. B. Schriber, Y. Xie, Z. L. Glick, D. A. Sirianni,
    J. S. O'Brien, J. M. Waldrop, A. Kumar, E. G. Hohenstein,
    B. P. Pritchard, B. R. Brooks, H. F. Schaefer III, A. Yu. Sokolov,
    K. Patkowski, A. E. DePrince III, U. Bozkaya, R. A. King,
    F. A. Evangelista, J. M. Turney, T. D. Crawford, C. D. Sherrill,
    J. Chem. Phys. 152(18) 184108 (2020). https://doi.org/10.1063/5.0006002

                            Additional Code Authors
    E. T. Seidl, C. L. Janssen, E. F. Valeev, M. L. Leininger,
    J. F. Gonthier, R. M. Richard, H. R. McAlexander, M. Saitow, X. Wang,
    P. Verma, M. H. Lechner, A. Jiang, S. Behnle, A. G. Heide,
    M. F. Herbst, and D. L. Poole

             Previous Authors, Complete List of Code Contributors,
                       and Citations for Specific Modules
    https://github.com/psi4/psi4/blob/master/codemeta.json
    https://github.com/psi4/psi4/graphs/contributors
    http://psicode.org/psi4manual/master/introduction.html#citing-psifour

    -----------------------------------------------------------------------


    Psi4 started on: Monday, 22 January 2024 03:26AM

    Process ID: 29809
    Host:       ddmfs1
    PSIDATADIR: /ddmfs1b/softs/psi4conda/share/psi4
    Memory:     55.9 GiB
    Threads:    20
    
  ==> Input QCSchema <==

--------------------------------------------------------------------------
{'driver': 'energy',
 'extras': {'psiapi': True, 'wfn_qcvars_only': True},
 'id': None,
 'keywords': {'SCF_TYPE': 'DF', 'function_kwargs': {}},
 'model': {'basis': 'aug-cc-pvtz', 'method': 'mp2'},
 'molecule': {'atom_labels': ['', '', '', '', '', '', ''],
              'atomic_numbers': [35, 8, 1, 1, 8, 1, 1],
              'extras': {},
              'fix_com': True,
              'fix_orientation': True,
              'fix_symmetry': 'c1',
              'fragment_charges': [-1.0, 0.0, 0.0],
              'fragment_multiplicities': [1, 1, 1],
              'fragments': [[0], [1, 2, 3], [4, 5, 6]],
              'geometry': [6.423916093620086, 0.0, 0.0, 0.0, -0.21318189393902304, 2.962553882498245,
                           -0.660514082905149, 1.0936600978474635, 1.8904555597422548, 1.7406720875862163,
                           -0.3194411939735167, 2.339150241244836, 0.0, 0.21318189393902304, -2.962553882498245,
                           -0.660514082905149, -1.0936600978474635, -1.8904555597422548, 1.7406720875862163,
                           0.3194411939735167, -2.339150241244836],
              'mass_numbers': [79, 16, 1, 1, 16, 1, 1],
              'masses': [78.9183376, 15.99491461957, 1.00782503223, 1.00782503223, 15.99491461957, 1.00782503223,
                         1.00782503223],
              'molecular_charge': -1.0,
              'molecular_multiplicity': 1,
              'name': 'dimer',
              'provenance': {'creator': 'QCElemental',
                             'routine': 'qcelemental.molparse.from_string',
                             'version': '0.26.0'},
              'real': [True, False, False, False, True, True, True],
              'schema_name': 'qcschema_molecule',
              'schema_version': 2,
              'symbols': ['Br', 'O', 'H', 'H', 'O', 'H', 'H'],
              'validated': True},
 'protocols': {'stdout': True},
 'provenance': {'creator': 'QCElemental', 'routine': 'qcelemental.models.results', 'version': '0.26.0'},
 'schema_name': 'qcschema_input',
 'schema_version': 1}
--------------------------------------------------------------------------

Scratch directory: /ddmfs1a/scratch/
   => Libint2 <=

    Primary   basis highest AM E, G, H:  5, 4, 3
    Auxiliary basis highest AM E, G, H:  6, 5, 4
    Onebody   basis highest AM E, G, H:  6, 5, 4
    Solid Harmonics ordering:            gaussian

*** tstart() called on ddmfs1
*** at Mon Jan 22 03:27:31 2024

   => Loading Basis Set <=

    Name: AUG-CC-PVTZ
    Role: ORBITAL
    Keyword: BASIS
    atoms 1        entry BR         line  4208 file /ddmfs1b/softs/psi4conda/share/psi4/basis/aug-cc-pvtz.gbs 
    atoms 2, 5     entry O          line   331 file /ddmfs1b/softs/psi4conda/share/psi4/basis/aug-cc-pvtz.gbs 
    atoms 3-4, 6-7 entry H          line    40 file /ddmfs1b/softs/psi4conda/share/psi4/basis/aug-cc-pvtz.gbs 


         ---------------------------------------------------------
                                   SCF
               by Justin Turney, Rob Parrish, Andy Simmonett
                          and Daniel G. A. Smith
                              RHF Reference
                       20 Threads,  57220 MiB Core
         ---------------------------------------------------------

  ==> Geometry <==

    Molecular point group: c1
    Full point group: C1

    Geometry (in Bohr), charge = -1, multiplicity = 1:

       Center              X                  Y                   Z               Mass       
    ------------   -----------------  -----------------  -----------------  -----------------
         BR           6.423916093620     0.000000000000     0.000000000000    78.918337600000
      Gh(O)           0.000000000000    -0.213181893939     2.962553882498    15.994914619570
      Gh(H)          -0.660514082905     1.093660097847     1.890455559742     1.007825032230
      Gh(H)           1.740672087586    -0.319441193974     2.339150241245     1.007825032230
         O            0.000000000000     0.213181893939    -2.962553882498    15.994914619570
         H           -0.660514082905    -1.093660097847    -1.890455559742     1.007825032230
         H            1.740672087586     0.319441193974    -2.339150241245     1.007825032230

  Running in c1 symmetry.

  Rotational constants: A =      0.19863  B =      0.01843  C =      0.01689 [cm^-1]
  Rotational constants: A =   5954.88914  B =    552.46336  C =    506.42002 [MHz]
  Nuclear repulsion =   60.039675815785593

  Charge       = -1
  Multiplicity = 1
  Electrons    = 46
  Nalpha       = 23
  Nbeta        = 23

  ==> Algorithm <==

  SCF Algorithm Type is DF.
  DIIS enabled.
  MOM disabled.
  Fractional occupation disabled.
  Guess Type is SAD.
  Energy threshold   = 1.00e-08
  Density threshold  = 1.00e-08
  Integral threshold = 1.00e-12

  ==> Primary Basis <==

  Basis Set: AUG-CC-PVTZ
    Blend: AUG-CC-PVTZ
    Number of shells: 83
    Number of basis functions: 243
    Number of Cartesian functions: 279
    Spherical Harmonics?: true
    Max angular momentum: 3

   => Loading Basis Set <=

    Name: (AUG-CC-PVTZ AUX)
    Role: JKFIT
    Keyword: DF_BASIS_SCF
    atoms 1        entry BR         line  1492 file /ddmfs1b/softs/psi4conda/share/psi4/basis/aug-cc-pvtz-jkfit.gbs 
    atoms 2, 5     entry O          line   286 file /ddmfs1b/softs/psi4conda/share/psi4/basis/aug-cc-pvtz-jkfit.gbs 
    atoms 3-4, 6-7 entry H          line    70 file /ddmfs1b/softs/psi4conda/share/psi4/basis/aug-cc-pvtz-jkfit.gbs 

  ==> Integral Setup <==

  DFHelper Memory: AOs need 0.302 GiB; user supplied 41.910 GiB. 
  Using in-core AOs.

  ==> MemDFJK: Density-Fitted J/K Matrices <==

    J tasked:                   Yes
    K tasked:                   Yes
    wK tasked:                   No
    OpenMP threads:              20
    Memory [MiB]:             42915
    Algorithm:                 Core
    Schwarz Cutoff:           1E-12
    Mask sparsity (%):       1.3175
    Fitting Condition:        1E-10

   => Auxiliary Basis Set <=

  Basis Set: (AUG-CC-PVTZ AUX)
    Blend: AUG-CC-PVTZ-JKFIT
    Number of shells: 174
    Number of basis functions: 640
    Number of Cartesian functions: 811
    Spherical Harmonics?: true
    Max angular momentum: 4

  Minimum eigenvalue in the overlap matrix is 2.6157837512E-04.
  Reciprocal condition number of the overlap matrix is 2.5032469041E-05.
    Using symmetric orthogonalization.

  ==> Pre-Iterations <==

  SCF Guess: Superposition of Atomic Densities via on-the-fly atomic UHF (no occupation information).

   -------------------------
    Irrep   Nso     Nmo    
   -------------------------
     A        243     243 
   -------------------------
    Total     243     243
   -------------------------

  ==> Iterations <==

                           Total Energy        Delta E     RMS |[F,P]|

   @DF-RHF iter SAD: -2645.90974877642293   -2.64591e+03   0.00000e+00 
   @DF-RHF iter   1: -2648.26157507659354   -2.35183e+00   4.71890e-03 ADIIS/DIIS
   @DF-RHF iter   2: -2648.51489050293321   -2.53315e-01   2.68313e-03 ADIIS/DIIS
   @DF-RHF iter   3: -2648.60801668208251   -9.31262e-02   1.36494e-04 ADIIS/DIIS
   @DF-RHF iter   4: -2648.60850427468131   -4.87593e-04   7.34652e-05 DIIS
   @DF-RHF iter   5: -2648.60862103268801   -1.16758e-04   1.14413e-05 DIIS
   @DF-RHF iter   6: -2648.60862991056865   -8.87788e-06   2.33386e-06 DIIS
   @DF-RHF iter   7: -2648.60863038840125   -4.77833e-07   5.92035e-07 DIIS
   @DF-RHF iter   8: -2648.60863041851508   -3.01138e-08   1.36856e-07 DIIS
   @DF-RHF iter   9: -2648.60863042007804   -1.56297e-09   2.45667e-08 DIIS
   @DF-RHF iter  10: -2648.60863042011124   -3.31966e-11   7.51817e-09 DIIS
  Energy and wave function converged.


  ==> Post-Iterations <==

    Orbital Energies [Eh]
    ---------------------

    Doubly Occupied:                                                      

       1A   -489.737919     2A    -64.877943     3A    -58.232449  
       4A    -58.232426     5A    -58.232421     6A    -20.416173  
       7A     -9.550162     8A     -7.157655     9A     -7.157479  
      10A     -7.157452    11A     -2.899352    12A     -2.899289  
      13A     -2.899254    14A     -2.899031    15A     -2.899027  
      16A     -1.197047    17A     -0.704803    18A     -0.550721  
      19A     -0.441413    20A     -0.359146    21A     -0.160448  
      22A     -0.156736    23A     -0.156517  

    Virtual:                                                              

      24A      0.126360    25A      0.145244    26A      0.157364  
      27A      0.169927    28A      0.231391    29A      0.241735  
      30A      0.249909    31A      0.255621    32A      0.261486  
      33A      0.270016    34A      0.285074    35A      0.295936  
      36A      0.304184    37A      0.330138    38A      0.343979  
      39A      0.346798    40A      0.384293    41A      0.400783  
      42A      0.411766    43A      0.437067    44A      0.450583  
      45A      0.462082    46A      0.471940    47A      0.487076  
      48A      0.503044    49A      0.512768    50A      0.526166  
      51A      0.549948    52A      0.561959    53A      0.574891  
      54A      0.586585    55A      0.593934    56A      0.598413  
      57A      0.614229    58A      0.631686    59A      0.647945  
      60A      0.696296    61A      0.756323    62A      0.779266  
      63A      0.799157    64A      0.815596    65A      0.823600  
      66A      0.848807    67A      0.857216    68A      0.881674  
      69A      0.896055    70A      0.904150    71A      0.919084  
      72A      0.936630    73A      0.963511    74A      0.967730  
      75A      0.982662    76A      0.988671    77A      1.007745  
      78A      1.014953    79A      1.020699    80A      1.023056  
      81A      1.031731    82A      1.058203    83A      1.078067  
      84A      1.090103    85A      1.099675    86A      1.117371  
      87A      1.121408    88A      1.136335    89A      1.157593  
      90A      1.162855    91A      1.191276    92A      1.198380  
      93A      1.204424    94A      1.211607    95A      1.221257  
      96A      1.236628    97A      1.245704    98A      1.256610  
      99A      1.319620   100A      1.331132   101A      1.361187  
     102A      1.366930   103A      1.389666   104A      1.413236  
     105A      1.418832   106A      1.432523   107A      1.441330  
     108A      1.499265   109A      1.535455   110A      1.562195  
     111A      1.589633   112A      1.622844   113A      1.645103  
     114A      1.677409   115A      1.698224   116A      1.705901  
     117A      1.751564   118A      1.784755   119A      1.820482  
     120A      1.853817   121A      1.891902   122A      1.923041  
     123A      1.971241   124A      2.014858   125A      2.026777  
     126A      2.055978   127A      2.070728   128A      2.209247  
     129A      2.256258   130A      2.409021   131A      2.415217  
     132A      2.476507   133A      2.479985   134A      2.509779  
     135A      2.533401   136A      2.549596   137A      2.570790  
     138A      2.574240   139A      2.576861   140A      2.581611  
     141A      2.589472   142A      2.602303   143A      2.625573  
     144A      2.652693   145A      2.666874   146A      2.669347  
     147A      2.686189   148A      2.694551   149A      2.715110  
     150A      2.731517   151A      2.754638   152A      2.756608  
     153A      2.795593   154A      2.817243   155A      2.834445  
     156A      2.853866   157A      2.873974   158A      2.913966  
     159A      2.929083   160A      2.935845   161A      2.989250  
     162A      3.030630   163A      3.072020   164A      3.098366  
     165A      3.115037   166A      3.140222   167A      3.329949  
     168A      3.373363   169A      3.491221   170A      3.504238  
     171A      3.543611   172A      3.746388   173A      3.893313  
     174A      3.928805   175A      4.009395   176A      4.287540  
     177A      4.335721   178A      4.385001   179A      4.436374  
     180A      4.467239   181A      4.531974   182A      4.537788  
     183A      4.594117   184A      4.622743   185A      4.642944  
     186A      4.655386   187A      4.685225   188A      4.761851  
     189A      4.785646   190A      4.884606   191A      4.931438  
     192A      4.958599   193A      5.086238   194A      5.106716  
     195A      5.134678   196A      5.267147   197A      5.304916  
     198A      5.372232   199A      5.440965   200A      5.447068  
     201A      5.539312   202A      5.695252   203A      5.721359  
     204A      5.761063   205A      5.806371   206A      5.822160  
     207A      6.058130   208A      6.289064   209A      6.448651  
     210A      6.540762   211A      6.684942   212A      6.749369  
     213A      6.969954   214A      7.139010   215A      7.201804  
     216A      7.347774   217A      7.423138   218A      7.464368  
     219A      7.489965   220A      7.558639   221A      7.597955  
     222A      7.791667   223A      7.892227   224A      8.029178  
     225A      8.045984   226A      8.143751   227A      8.238591  
     228A      8.291553   229A      8.434095   230A      8.898058  
     231A      8.965996   232A      9.023916   233A      9.858262  
     234A     10.027574   235A     10.156916   236A     10.410335  
     237A     11.338851   238A     11.842299   239A     12.185166  
     240A     13.753960   241A     14.004561   242A     16.298675  
     243A     65.614570  

    Final Occupation by Irrep:
              A 
    DOCC [    23 ]
    NA   [    23 ]
    NB   [    23 ]

  @DF-RHF Final Energy: -2648.60863042011124

   => Energetics <=

    Nuclear Repulsion Energy =             60.0396758157855928
    One-Electron Energy =               -3819.3468795442345254
    Two-Electron Energy =                1110.6985733083374726
    Total Energy =                      -2648.6086304201112398

Computation Completed


Properties will be evaluated at   0.000000,   0.000000,   0.000000 [a0]

Properties computed using the SCF density matrix


 Multipole Moments:

 ------------------------------------------------------------------------------------
     Multipole            Electronic (a.u.)      Nuclear  (a.u.)        Total (a.u.)
 ------------------------------------------------------------------------------------

 L = 1.  Multiply by 2.5417464519 to convert [e a0] to [Debye]
 Dipole X            :       -231.6004534          225.9172213           -5.6832321
[...]

    -----------------------------------------------------------------------


    Psi4 started on: Monday, 22 January 2024 03:26AM

    Process ID: 29809
    Host:       ddmfs1
    PSIDATADIR: /ddmfs1b/softs/psi4conda/share/psi4
    Memory:     55.9 GiB
    Threads:    20
    
  ==> Input QCSchema <==

--------------------------------------------------------------------------
{'driver': 'energy',
 'extras': {'psiapi': True, 'wfn_qcvars_only': True},
 'id': None,
 'keywords': {'SCF_TYPE': 'DF', 'function_kwargs': {}},
 'model': {'basis': 'aug-cc-pvtz', 'method': 'mp2'},
 'molecule': {'atom_labels': ['', '', '', '', '', '', ''],
              'atomic_numbers': [35, 8, 1, 1, 8, 1, 1],
              'extras': {},
              'fix_com': True,
              'fix_orientation': True,
              'fix_symmetry': 'c1',
              'fragment_charges': [-1.0, 0.0, 0.0],
              'fragment_multiplicities': [1, 1, 1],
              'fragments': [[0], [1, 2, 3], [4, 5, 6]],
              'geometry': [6.423916093620086, 0.0, 0.0, 0.0, -0.21318189393902304, 2.962553882498245,
                           -0.660514082905149, 1.0936600978474635, 1.8904555597422548, 1.7406720875862163,
                           -0.3194411939735167, 2.339150241244836, 0.0, 0.21318189393902304, -2.962553882498245,
                           -0.660514082905149, -1.0936600978474635, -1.8904555597422548, 1.7406720875862163,
                           0.3194411939735167, -2.339150241244836],
              'mass_numbers': [79, 16, 1, 1, 16, 1, 1],
              'masses': [78.9183376, 15.99491461957, 1.00782503223, 1.00782503223, 15.99491461957, 1.00782503223,
                         1.00782503223],
              'molecular_charge': -1.0,
              'molecular_multiplicity': 1,
              'name': 'dimer',
              'provenance': {'creator': 'QCElemental',
                             'routine': 'qcelemental.molparse.from_string',
                             'version': '0.26.0'},
              'real': [True, True, True, True, True, True, True],
              'schema_name': 'qcschema_molecule',
              'schema_version': 2,
              'symbols': ['Br', 'O', 'H', 'H', 'O', 'H', 'H'],
              'validated': True},
 'protocols': {'stdout': True},
 'provenance': {'creator': 'QCElemental', 'routine': 'qcelemental.models.results', 'version': '0.26.0'},
 'schema_name': 'qcschema_input',
 'schema_version': 1}
--------------------------------------------------------------------------

Scratch directory: /ddmfs1a/scratch/
   => Libint2 <=

    Primary   basis highest AM E, G, H:  5, 4, 3
    Auxiliary basis highest AM E, G, H:  6, 5, 4
    Onebody   basis highest AM E, G, H:  6, 5, 4
    Solid Harmonics ordering:            gaussian

*** tstart() called on ddmfs1
*** at Mon Jan 22 03:28:03 2024

   => Loading Basis Set <=

    Name: AUG-CC-PVTZ
    Role: ORBITAL
    Keyword: BASIS
    atoms 1        entry BR         line  4208 file /ddmfs1b/softs/psi4conda/share/psi4/basis/aug-cc-pvtz.gbs 
    atoms 2, 5     entry O          line   331 file /ddmfs1b/softs/psi4conda/share/psi4/basis/aug-cc-pvtz.gbs 
    atoms 3-4, 6-7 entry H          line    40 file /ddmfs1b/softs/psi4conda/share/psi4/basis/aug-cc-pvtz.gbs 


         ---------------------------------------------------------
                                   SCF
               by Justin Turney, Rob Parrish, Andy Simmonett
                          and Daniel G. A. Smith
                              RHF Reference
                       20 Threads,  57220 MiB Core
         ---------------------------------------------------------

  ==> Geometry <==

    Molecular point group: c1
    Full point group: C2

    Geometry (in Bohr), charge = -1, multiplicity = 1:

       Center              X                  Y                   Z               Mass       
    ------------   -----------------  -----------------  -----------------  -----------------
         BR           6.423916093620     0.000000000000     0.000000000000    78.918337600000
         O            0.000000000000    -0.213181893939     2.962553882498    15.994914619570
         H           -0.660514082905     1.093660097847     1.890455559742     1.007825032230
         H            1.740672087586    -0.319441193974     2.339150241245     1.007825032230
         O            0.000000000000     0.213181893939    -2.962553882498    15.994914619570
         H           -0.660514082905    -1.093660097847    -1.890455559742     1.007825032230
         H            1.740672087586     0.319441193974    -2.339150241245     1.007825032230

  Running in c1 symmetry.

  Rotational constants: A =      0.19863  B =      0.01843  C =      0.01689 [cm^-1]
  Rotational constants: A =   5954.88914  B =    552.46336  C =    506.42002 [MHz]
  Nuclear repulsion =  137.769407328562892

  Charge       = -1
  Multiplicity = 1
  Electrons    = 56
  Nalpha       = 28
  Nbeta        = 28

  ==> Algorithm <==

  SCF Algorithm Type is DF.
  DIIS enabled.
  MOM disabled.
  Fractional occupation disabled.
  Guess Type is SAD.
  Energy threshold   = 1.00e-08
  Density threshold  = 1.00e-08
  Integral threshold = 1.00e-12

  ==> Primary Basis <==

  Basis Set: AUG-CC-PVTZ
    Blend: AUG-CC-PVTZ
    Number of shells: 83
    Number of basis functions: 243
    Number of Cartesian functions: 279
    Spherical Harmonics?: true
    Max angular momentum: 3

   => Loading Basis Set <=

    Name: (AUG-CC-PVTZ AUX)
    Role: JKFIT
    Keyword: DF_BASIS_SCF
    atoms 1        entry BR         line  1492 file /ddmfs1b/softs/psi4conda/share/psi4/basis/aug-cc-pvtz-jkfit.gbs 
    atoms 2, 5     entry O          line   286 file /ddmfs1b/softs/psi4conda/share/psi4/basis/aug-cc-pvtz-jkfit.gbs 
    atoms 3-4, 6-7 entry H          line    70 file /ddmfs1b/softs/psi4conda/share/psi4/basis/aug-cc-pvtz-jkfit.gbs 

  ==> Integral Setup <==

  DFHelper Memory: AOs need 0.302 GiB; user supplied 41.910 GiB. 
  Using in-core AOs.

  ==> MemDFJK: Density-Fitted J/K Matrices <==

    J tasked:                   Yes
    K tasked:                   Yes
    wK tasked:                   No
    OpenMP threads:              20
    Memory [MiB]:             42915
    Algorithm:                 Core
    Schwarz Cutoff:           1E-12
    Mask sparsity (%):       1.3175
    Fitting Condition:        1E-10

   => Auxiliary Basis Set <=

  Basis Set: (AUG-CC-PVTZ AUX)
    Blend: AUG-CC-PVTZ-JKFIT
    Number of shells: 174
    Number of basis functions: 640
    Number of Cartesian functions: 811
    Spherical Harmonics?: true
    Max angular momentum: 4

  Minimum eigenvalue in the overlap matrix is 2.6157837512E-04.
  Reciprocal condition number of the overlap matrix is 2.5032469041E-05.
    Using symmetric orthogonalization.

  ==> Pre-Iterations <==

  SCF Guess: Superposition of Atomic Densities via on-the-fly atomic UHF (no occupation information).

   -------------------------
    Irrep   Nso     Nmo    
   -------------------------
     A        243     243 
   -------------------------
    Total     243     243
   -------------------------

  ==> Iterations <==

                           Total Energy        Delta E     RMS |[F,P]|

   @DF-RHF iter SAD: -2721.47759526378923   -2.72148e+03   0.00000e+00 
   @DF-RHF iter   1: -2724.27346519721550   -2.79587e+00   5.02830e-03 ADIIS/DIIS
   @DF-RHF iter   2: -2724.56761960125004   -2.94154e-01   2.88637e-03 ADIIS/DIIS
   @DF-RHF iter   3: -2724.68119274843639   -1.13573e-01   1.80414e-04 ADIIS/DIIS
   @DF-RHF iter   4: -2724.68214112648548   -9.48378e-04   9.26580e-05 DIIS
   @DF-RHF iter   5: -2724.68234312508548   -2.01999e-04   1.44644e-05 DIIS
   @DF-RHF iter   6: -2724.68235802566915   -1.49006e-05   3.36200e-06 DIIS
   @DF-RHF iter   7: -2724.68235902719925   -1.00153e-06   8.75274e-07 DIIS
   @DF-RHF iter   8: -2724.68235909473697   -6.75377e-08   1.96415e-07 DIIS
   @DF-RHF iter   9: -2724.68235909747864   -2.74167e-09   4.64257e-08 DIIS
   @DF-RHF iter  10: -2724.68235909760142   -1.22782e-10   1.22843e-08 DIIS
   @DF-RHF iter  11: -2724.68235909761370   -1.22782e-11   3.03168e-09 DIIS
  Energy and wave function converged.


  ==> Post-Iterations <==

    Orbital Energies [Eh]
    ---------------------

    Doubly Occupied:                                                      

       1A   -489.754458     2A    -64.894544     3A    -58.249060  
       4A    -58.249023     5A    -58.249013     6A    -20.426027  
       7A    -20.426023     8A     -9.566820     9A     -7.174400  
      10A     -7.174138    11A     -7.174069    12A     -2.916112  
      13A     -2.916020    14A     -2.915936    15A     -2.915603  
      16A     -2.915596    17A     -1.211854    18A     -1.204771  
      19A     -0.722912    20A     -0.564473    21A     -0.558673  
      22A     -0.460936    23A     -0.445612    24A     -0.375527  
      25A     -0.363553    26A     -0.179190    27A     -0.174600  
      28A     -0.173176  

    Virtual:                                                              

      29A      0.133249    30A      0.147959    31A      0.165172  
      32A      0.165599    33A      0.231673    34A      0.242519  
      35A      0.252566    36A      0.266825    37A      0.278306  
      38A      0.286627    39A      0.290330    40A      0.304238  
      41A      0.322001    42A      0.334573    43A      0.338744  
      44A      0.348036    45A      0.377281    46A      0.388959  
      47A      0.398154    48A      0.428845    49A      0.443284  
      50A      0.448377    51A      0.470958    52A      0.491979  
      53A      0.499202    54A      0.509665    55A      0.556435  
      56A      0.558399    57A      0.563406    58A      0.582571  
      59A      0.597344    60A      0.597398    61A      0.604983  
      62A      0.607607    63A      0.628945    64A      0.678413  
      65A      0.688453    66A      0.745436    67A      0.767341  
      68A      0.769897    69A      0.804646    70A      0.812392  
      71A      0.829863    72A      0.845356    73A      0.862142  
      74A      0.872099    75A      0.875283    76A      0.890003  
      77A      0.925329    78A      0.946558    79A      0.977014  
      80A      0.983717    81A      0.992598    82A      0.994204  
      83A      1.003057    84A      1.008433    85A      1.028262  
      86A      1.033484    87A      1.063604    88A      1.089117  
      89A      1.102487    90A      1.106281    91A      1.110806  
      92A      1.115390    93A      1.125338    94A      1.138824  
      95A      1.177671    96A      1.184456    97A      1.185936  
      98A      1.203114    99A      1.213648   100A      1.225339  
     101A      1.228131   102A      1.260558   103A      1.286261  
     104A      1.296306   105A      1.333526   106A      1.336305  
     107A      1.362253   108A      1.367817   109A      1.395697  
     110A      1.403494   111A      1.416352   112A      1.421739  
     113A      1.440641   114A      1.491340   115A      1.524669  
     116A      1.577105   117A      1.579014   118A      1.642366  
     119A      1.661751   120A      1.675730   121A      1.697587  
     122A      1.728478   123A      1.745720   124A      1.761504  
     125A      1.776190   126A      1.844340   127A      1.870595  
     128A      2.018575   129A      2.032150   130A      2.043720  
     131A      2.047235   132A      2.197000   133A      2.197529  
     134A      2.384871   135A      2.390139   136A      2.397038  
     137A      2.413759   138A      2.472215   139A      2.497981  
     140A      2.500479   141A      2.506178   142A      2.525917  
     143A      2.549622   144A      2.553384   145A      2.565867  
     146A      2.567334   147A      2.583562   148A      2.594015  
     149A      2.603766   150A      2.616533   151A      2.651973  
     152A      2.662995   153A      2.676436   154A      2.689710  
     155A      2.693342   156A      2.716768   157A      2.719126  
     158A      2.755035   159A      2.777335   160A      2.823087  
     161A      2.831115   162A      2.840845   163A      2.883429  
     164A      2.891108   165A      2.908348   166A      2.926629  
     167A      2.927454   168A      3.016447   169A      3.032427  
     170A      3.050091   171A      3.067763   172A      3.068488  
     173A      3.138415   174A      3.166436   175A      3.838146  
     176A      3.878719   177A      3.983940   178A      4.004739  
     179A      4.240246   180A      4.301497   181A      4.303582  
     182A      4.328494   183A      4.331194   184A      4.414360  
     185A      4.424532   186A      4.427989   187A      4.442798  
     188A      4.449779   189A      4.490656   190A      4.558626  
     191A      4.574571   192A      4.620040   193A      4.648348  
     194A      4.738377   195A      4.739303   196A      4.826660  
     197A      4.831617   198A      4.939605   199A      4.954702  
     200A      5.077572   201A      5.105433   202A      5.289708  
     203A      5.298177   204A      5.379571   205A      5.407517  
     206A      5.426008   207A      5.444618   208A      5.493818  
     209A      5.568016   210A      5.667820   211A      5.705762  
     212A      5.797237   213A      5.802242   214A      6.437412  
     215A      6.438620   216A      6.669667   217A      6.676819  
     218A      6.947778   219A      6.957828   220A      7.108934  
     221A      7.162870   222A      7.320655   223A      7.351306  
     224A      7.388046   225A      7.423579   226A      7.431556  
     227A      7.473197   228A      7.480761   229A      7.499489  
     230A      7.537534   231A      7.558937   232A      7.577344  
     233A      7.606046   234A      7.776373   235A      7.810565  
     236A      8.008453   237A      8.034057   238A      8.137204  
     239A      8.137682   240A      8.951535   241A      8.964016  
     242A     16.225412   243A     16.347173  

    Final Occupation by Irrep:
              A 
    DOCC [    28 ]
    NA   [    28 ]
    NB   [    28 ]

  @DF-RHF Final Energy: -2724.68235909761370

   => Energetics <=

    Nuclear Repulsion Energy =            137.7694073285628917
    One-Electron Energy =               -4080.1992958501932662
    Two-Electron Energy =                1217.7475294240164203
    Total Energy =                      -2724.6823590976136984

Computation Completed


Properties will be evaluated at   0.000000,   0.000000,   0.000000 [a0]

Properties computed using the SCF density matrix


 Multipole Moments:

 ------------------------------------------------------------------------------------
     Multipole            Electronic (a.u.)      Nuclear  (a.u.)        Total (a.u.)
 ------------------------------------------------------------------------------------

 L = 1.  Multiply by 2.5417464519 to convert [e a0] to [Debye]
 Dipole X            :       -232.0009771          226.9973793           -5.0035978
 Dipole Y            :          0.0000000            0.0000000            0.0000000
 Dipole Z            :         -0.0000000            0.0000000           -0.0000000
 Magnitude           :                                                    5.0035978

 ------------------------------------------------------------------------------------

*** tstop() called on ddmfs1 at Mon Jan 22 03:28:07 2024
Module time:
	user time   =      48.58 seconds =       0.81 minutes
	system time =       6.51 seconds =       0.11 minutes
	total time  =          4 seconds =       0.07 minutes
Total time:
	user time   =     396.42 seconds =       6.61 minutes
	system time =      46.60 seconds =       0.78 minutes
	total time  =         66 seconds =       1.10 minutes

*** tstart() called on ddmfs1
*** at Mon Jan 22 03:28:07 2024


  //>>>>>>>>>>>>>>>>>>>>>>>>>>>>>>>>>>>//
  //               DFMP2               //
  //<<<<<<<<<<<<<<<<<<<<<<<<<<<<<<<<<<<//

   => Loading Basis Set <=

    Name: (AUG-CC-PVTZ AUX)
    Role: RIFIT
    Keyword: DF_BASIS_MP2
    atoms 1        entry BR         line  1248 file /ddmfs1b/softs/psi4conda/share/psi4/basis/aug-cc-pvtz-ri.gbs 
    atoms 2, 5     entry O          line   264 file /ddmfs1b/softs/psi4conda/share/psi4/basis/aug-cc-pvtz-ri.gbs 
    atoms 3-4, 6-7 entry H          line    30 file /ddmfs1b/softs/psi4conda/share/psi4/basis/aug-cc-pvtz-ri.gbs 

	 --------------------------------------------------------
	                          DF-MP2                         
	      2nd-Order Density-Fitted Moller-Plesset Theory     
	              RMP2 Wavefunction,  20 Threads             
	                                                         
	        Rob Parrish, Justin Turney, Andy Simmonett,      
	           Ed Hohenstein, and C. David Sherrill          
	 --------------------------------------------------------

   => Auxiliary Basis Set <=

  Basis Set: (AUG-CC-PVTZ AUX)
    Blend: AUG-CC-PVTZ-RI
    Number of shells: 155
    Number of basis functions: 587
    Number of Cartesian functions: 753
    Spherical Harmonics?: true
    Max angular momentum: 5

	 --------------------------------------------------------
	                 NBF =   243, NAUX =   587
	 --------------------------------------------------------
	   CLASS    FOCC     OCC    AOCC    AVIR     VIR    FVIR
	   PAIRS       0      28      28     215     215       0
	 --------------------------------------------------------

	-----------------------------------------------------------
	 ==================> DF-MP2 Energies <==================== 
	-----------------------------------------------------------
	 Reference Energy          =   -2724.6823590976136984 [Eh]
	 Singles Energy            =      -0.0000000000000000 [Eh]
	 Same-Spin Energy          =      -0.2288134078361689 [Eh]
	 Opposite-Spin Energy      =      -0.6398000623223906 [Eh]
	 Correlation Energy        =      -0.8686134701585595 [Eh]
	 Total Energy              =   -2725.5509725677720780 [Eh]
	-----------------------------------------------------------
	 ================> DF-SCS-MP2 Energies <================== 
	-----------------------------------------------------------
	 SCS Same-Spin Scale       =       0.3333333333333333 [-]
	 SCS Opposite-Spin Scale   =       1.2000000000000000 [-]
	 SCS Same-Spin Energy      =      -0.0762711359453896 [Eh]
	 SCS Opposite-Spin Energy  =      -0.7677600747868687 [Eh]
	 SCS Correlation Energy    =      -0.8440312107322583 [Eh]
	 SCS Total Energy          =   -2725.5263903083459809 [Eh]
	-----------------------------------------------------------


*** tstop() called on ddmfs1 at Mon Jan 22 03:28:14 2024
Module time:
	user time   =      18.55 seconds =       0.31 minutes
	system time =       1.48 seconds =       0.02 minutes
	total time  =          7 seconds =       0.12 minutes
Total time:
	user time   =     414.99 seconds =       6.92 minutes
	system time =      48.08 seconds =       0.80 minutes
	total time  =         73 seconds =       1.22 minutes

    Psi4 stopped on: Monday, 22 January 2024 03:28AM
    Psi4 wall time for execution: 0:00:11.07


  //>>>>>>>>>>>>>>>>>>>>>>>>>>>>>>>>>>>//
  //          ManyBody Results         //
  //<<<<<<<<<<<<<<<<<<<<<<<<<<<<<<<<<<<//


   ==> N-Body: Counterpoise Corrected (CP) energies <==

        n-Body     Total Energy            Interaction Energy                          N-body Contribution to Interaction Energy
                   [Eh]                    [Eh]                  [kcal/mol]            [Eh]                  [kcal/mol]
             1  N/A                         0.000000000000        0.000000000000        0.000000000000        0.000000000000
             2  N/A                        -0.037474476459      -23.515589002597       -0.037474476459      -23.515589002597
  FULL/RTN   3  N/A                        -0.036888045668      -23.147598125581        0.000586430791        0.367990877016


    Psi4 stopped on: Monday, 22 January 2024 03:28AM
    Psi4 wall time for execution: 0:01:16.07

*** Psi4 exiting successfully. Buy a developer a beer!
