
    -----------------------------------------------------------------------
          Psi4: An Open-Source Ab Initio Electronic Structure Package
                               Psi4 1.9.1 release

                         Git: Rev {} zzzzzzz 


    D. G. A. Smith, L. A. Burns, A. C. Simmonett, R. M. Parrish,
    M. C. Schieber, R. Galvelis, P. Kraus, H. Kruse, R. Di Remigio,
    A. Alenaizan, A. M. James, S. Lehtola, J. P. Misiewicz, M. Scheurer,
    R. A. Shaw, J. B. Schriber, Y. Xie, Z. L. Glick, D. A. Sirianni,
    J. S. O'Brien, J. M. Waldrop, A. Kumar, E. G. Hohenstein,
    B. P. Pritchard, B. R. Brooks, H. F. Schaefer III, A. Yu. Sokolov,
    K. Patkowski, A. E. DePrince III, U. Bozkaya, R. A. King,
    F. A. Evangelista, J. M. Turney, T. D. Crawford, C. D. Sherrill,
    J. Chem. Phys. 152(18) 184108 (2020). https://doi.org/10.1063/5.0006002

                            Additional Code Authors
    E. T. Seidl, C. L. Janssen, E. F. Valeev, M. L. Leininger,
    J. F. Gonthier, R. M. Richard, H. R. McAlexander, M. Saitow, X. Wang,
    P. Verma, M. H. Lechner, A. Jiang, S. Behnle, A. G. Heide,
    M. F. Herbst, and D. L. Poole

             Previous Authors, Complete List of Code Contributors,
                       and Citations for Specific Modules
    https://github.com/psi4/psi4/blob/master/codemeta.json
    https://github.com/psi4/psi4/graphs/contributors
    http://psicode.org/psi4manual/master/introduction.html#citing-psifour

    -----------------------------------------------------------------------


    Psi4 started on: Thursday, 25 April 2024 12:50PM

    Process ID: 1092699
    Host:       ivy
    PSIDATADIR: /home/kchung25/miniconda3/envs/p4env/share/psi4
    Memory:     500.0 MiB
    Threads:    6
    
  ==> Input File <==

--------------------------------------------------------------------------
MEMORY 60 GB

molecule dimer {
0 1
Gh(Li)     0.000000     0.000000     0.000000
Gh(O)      1.888392    -0.000000     0.000000
Gh(H)      2.474378     0.761371     0.000000
Gh(H)      2.474378    -0.761371     0.000000
Gh(O)     -0.944196     1.635395     0.000000
Gh(H)     -1.896556     1.762189     0.000000
Gh(H)     -0.577823     2.523560     0.000000
O         -0.944196    -1.635395     0.000000
H         -0.577823    -2.523560     0.000000
H         -1.896556    -1.762189     0.000000

units ang
no_reorient
no_com
symmetry c1
}

set {
basis        aug-cc-pVTZ
scf_type     df
}

energy("mp2")
--------------------------------------------------------------------------

  Memory set to  55.879 GiB by Python driver.

Scratch directory: /tmp/
   => Libint2 <=

    Primary   basis highest AM E, G, H:  6, 6, 3
    Auxiliary basis highest AM E, G, H:  7, 7, 4
    Onebody   basis highest AM E, G, H:  -, -, -
    Solid Harmonics ordering:            Gaussian

*** tstart() called on ivy
*** at Thu Apr 25 12:50:51 2024

   => Loading Basis Set <=

    Name: AUG-CC-PVTZ
    Role: ORBITAL
    Keyword: BASIS
    atoms 1              entry LI         line    85 file /home/kchung25/miniconda3/envs/p4env/share/psi4/basis/aug-cc-pvtz.gbs 
    atoms 2, 5, 8        entry O          line   331 file /home/kchung25/miniconda3/envs/p4env/share/psi4/basis/aug-cc-pvtz.gbs 
    atoms 3-4, 6-7, 9-10 entry H          line    40 file /home/kchung25/miniconda3/envs/p4env/share/psi4/basis/aug-cc-pvtz.gbs 


         ---------------------------------------------------------
                                   SCF
               by Justin Turney, Rob Parrish, Andy Simmonett
                          and Daniel G. A. Smith
                              RHF Reference
                        6 Threads,  57220 MiB Core
         ---------------------------------------------------------

  ==> Geometry <==

    Molecular point group: c1
    Full point group: Cs

    Geometry (in Angstrom), charge = 0, multiplicity = 1:

       Center              X                  Y                   Z               Mass       
    ------------   -----------------  -----------------  -----------------  -----------------
      Gh(LI)          0.000000000000     0.000000000000     0.000000000000     7.016003436600
      Gh(O)           1.888392000000     0.000000000000     0.000000000000    15.994914619570
      Gh(H)           2.474378000000     0.761371000000     0.000000000000     1.007825032230
      Gh(H)           2.474378000000    -0.761371000000     0.000000000000     1.007825032230
      Gh(O)          -0.944196000000     1.635395000000     0.000000000000    15.994914619570
      Gh(H)          -1.896556000000     1.762189000000     0.000000000000     1.007825032230
      Gh(H)          -0.577823000000     2.523560000000     0.000000000000     1.007825032230
         O           -0.944196000000    -1.635395000000     0.000000000000    15.994914619570
         H           -0.577823000000    -2.523560000000     0.000000000000     1.007825032230
         H           -1.896556000000    -1.762189000000     0.000000000000     1.007825032230

  Running in c1 symmetry.

  Rotational constants: A =      0.15930  B =      0.15930  C =      0.07965 [cm^-1]
  Rotational constants: A =   4775.77443  B =   4775.77236  C =   2387.88670 [MHz]
  Nuclear repulsion =    9.160128584342685

  Charge       = 0
  Multiplicity = 1
  Electrons    = 10
  Nalpha       = 5
  Nbeta        = 5

  ==> Algorithm <==

  SCF Algorithm Type is DF.
  DIIS enabled.
  MOM disabled.
  Fractional occupation disabled.
  Guess Type is SAD.
  Energy threshold   = 1.00e-08
  Density threshold  = 1.00e-08
  Integral threshold = 1.00e-12

  ==> Primary Basis <==

  Basis Set: AUG-CC-PVTZ
    Blend: AUG-CC-PVTZ
    Number of shells: 110
    Number of basis functions: 322
    Number of Cartesian functions: 370
    Spherical Harmonics?: true
    Max angular momentum: 3

   => Loading Basis Set <=

    Name: (AUG-CC-PVTZ AUX)
    Role: JKFIT
    Keyword: DF_BASIS_SCF
    atoms 1              entry LI         line    54 file /home/kchung25/miniconda3/envs/p4env/share/psi4/basis/def2-universal-jkfit.gbs 
    atoms 2, 5, 8        entry O          line   286 file /home/kchung25/miniconda3/envs/p4env/share/psi4/basis/aug-cc-pvtz-jkfit.gbs 
    atoms 3-4, 6-7, 9-10 entry H          line    70 file /home/kchung25/miniconda3/envs/p4env/share/psi4/basis/aug-cc-pvtz-jkfit.gbs 

  ==> Integral Setup <==

  DFHelper Memory: AOs need 0.498 GiB; user supplied 41.910 GiB. 
  Using in-core AOs.

  ==> MemDFJK: Density-Fitted J/K Matrices <==

    J tasked:                   Yes
    K tasked:                   Yes
    wK tasked:                   No
    OpenMP threads:               6
    Memory [MiB]:             42915
    Algorithm:                 Core
    Schwarz Cutoff:           1E-12
    Mask sparsity (%):       4.8532
    Fitting Condition:        1E-10

   => Auxiliary Basis Set <=

  Basis Set: (AUG-CC-PVTZ AUX)
    Blend: AUG-CC-PVTZ-JKFIT + DEF2-UNIVERSAL-JKFIT
    Number of shells: 191
    Number of basis functions: 639
    Number of Cartesian functions: 783
    Spherical Harmonics?: true
    Max angular momentum: 4

  Minimum eigenvalue in the overlap matrix is 2.3009993202E-05.
  Reciprocal condition number of the overlap matrix is 1.9339673298E-06.
    Using symmetric orthogonalization.

  ==> Pre-Iterations <==

  SCF Guess: Superposition of Atomic Densities via on-the-fly atomic UHF (no occupation information).

   -------------------------
    Irrep   Nso     Nmo    
   -------------------------
     A        322     322 
   -------------------------
    Total     322     322
   -------------------------

  ==> Iterations <==

                           Total Energy        Delta E     RMS |[F,P]|

   @DF-RHF iter SAD:   -75.47367425358220   -7.54737e+01   0.00000e+00 
   @DF-RHF iter   1:   -75.97610998399490   -5.02436e-01   1.45462e-03 DIIS/ADIIS
   @DF-RHF iter   2:   -76.02855909670315   -5.24491e-02   9.92462e-04 DIIS/ADIIS
   @DF-RHF iter   3:   -76.06005211569395   -3.14930e-02   6.75425e-05 DIIS
   @DF-RHF iter   4:   -76.06044416260472   -3.92047e-04   1.61705e-05 DIIS
   @DF-RHF iter   5:   -76.06046870694821   -2.45443e-05   3.67657e-06 DIIS
   @DF-RHF iter   6:   -76.06047072095915   -2.01401e-06   8.07203e-07 DIIS
   @DF-RHF iter   7:   -76.06047082797818   -1.07019e-07   1.46957e-07 DIIS
   @DF-RHF iter   8:   -76.06047083109920   -3.12102e-09   2.45799e-08 DIIS
   @DF-RHF iter   9:   -76.06047083116810   -6.89084e-11   6.08630e-09 DIIS
  Energy and wave function converged.


  ==> Post-Iterations <==

    Orbital Energies [Eh]
    ---------------------

    Doubly Occupied:                                                      

       1A    -20.567519     2A     -1.351460     3A     -0.716442  
       4A     -0.583587     5A     -0.509913  

    Virtual:                                                              

       6A      0.009863     7A      0.018048     8A      0.018286  
       9A      0.020462    10A      0.046955    11A      0.056448  
      12A      0.056731    13A      0.064899    14A      0.065714  
      15A      0.076160    16A      0.081746    17A      0.082326  
      18A      0.096504    19A      0.097262    20A      0.123123  
      21A      0.126761    22A      0.148430    23A      0.152770  
      24A      0.156718    25A      0.162318    26A      0.172503  
      27A      0.174967    28A      0.182719    29A      0.183180  
      30A      0.194705    31A      0.205055    32A      0.205945  
      33A      0.219050    34A      0.220843    35A      0.238428  
      36A      0.269161    37A      0.276997    38A      0.284412  
      39A      0.286546    40A      0.317429    41A      0.337647  
      42A      0.340163    43A      0.340751    44A      0.343768  
      45A      0.358401    46A      0.368857    47A      0.369021  
      48A      0.377317    49A      0.377501    50A      0.382725  
      51A      0.382924    52A      0.394475    53A      0.397634  
      54A      0.406175    55A      0.421242    56A      0.425980  
      57A      0.429809    58A      0.429993    59A      0.435175  
      60A      0.442053    61A      0.445605    62A      0.451978  
      63A      0.460916    64A      0.465487    65A      0.468240  
      66A      0.476635    67A      0.479449    68A      0.480926  
      69A      0.517607    70A      0.527796    71A      0.530167  
      72A      0.558786    73A      0.584609    74A      0.609108  
      75A      0.628882    76A      0.638592    77A      0.660695  
      78A      0.688610    79A      0.712427    80A      0.747863  
      81A      0.768458    82A      0.806576    83A      0.812577  
      84A      0.816149    85A      0.823448    86A      0.837688  
      87A      0.838467    88A      0.841236    89A      0.845104  
      90A      0.848004    91A      0.848636    92A      0.865968  
      93A      0.894522    94A      0.900993    95A      0.906868  
      96A      0.911512    97A      0.920621    98A      0.929945  
      99A      0.935530   100A      0.956873   101A      0.976901  
     102A      0.979753   103A      0.987788   104A      0.993742  
     105A      1.016639   106A      1.020416   107A      1.031916  
     108A      1.047696   109A      1.048062   110A      1.057988  
     111A      1.059156   112A      1.061328   113A      1.075933  
     114A      1.102725   115A      1.105335   116A      1.120039  
     117A      1.123124   118A      1.123977   119A      1.145622  
     120A      1.156826   121A      1.167847   122A      1.168333  
     123A      1.188710   124A      1.197495   125A      1.212064  
     126A      1.213122   127A      1.220037   128A      1.233422  
     129A      1.239930   130A      1.255062   131A      1.261463  
     132A      1.296917   133A      1.311142   134A      1.337932  
     135A      1.343591   136A      1.359366   137A      1.376717  
     138A      1.396990   139A      1.425618   140A      1.500820  
     141A      1.512396   142A      1.529558   143A      1.533728  
     144A      1.574097   145A      1.597280   146A      1.629601  
     147A      1.658582   148A      1.674417   149A      1.691797  
     150A      1.749643   151A      1.752922   152A      1.769215  
     153A      1.800516   154A      1.803415   155A      1.833669  
     156A      1.843067   157A      1.870448   158A      1.889812  
     159A      1.912361   160A      1.925211   161A      1.971623  
     162A      1.972772   163A      1.982638   164A      2.018709  
     165A      2.076932   166A      2.089731   167A      2.114976  
     168A      2.156683   169A      2.200253   170A      2.211216  
     171A      2.327449   172A      2.339100   173A      2.355120  
     174A      2.384128   175A      2.384677   176A      2.482683  
     177A      2.488249   178A      2.526513   179A      2.533794  
     180A      2.570378   181A      2.586994   182A      2.618089  
     183A      2.625267   184A      2.660902   185A      2.683158  
     186A      2.719743   187A      2.741391   188A      2.784159  
     189A      2.839211   190A      2.848745   191A      2.851629  
     192A      2.870174   193A      2.894615   194A      2.908694  
     195A      2.917162   196A      2.941549   197A      2.949273  
     198A      2.977438   199A      2.996939   200A      3.059185  
     201A      3.098412   202A      3.248794   203A      3.253275  
     204A      3.275315   205A      3.322384   206A      3.341466  
     207A      3.375608   208A      3.380102   209A      3.391077  
     210A      3.422986   211A      3.470410   212A      3.503549  
     213A      3.555099   214A      3.710210   215A      3.713309  
     216A      3.753340   217A      3.830387   218A      3.964924  
     219A      4.005290   220A      4.054481   221A      4.213833  
     222A      4.326365   223A      4.343713   224A      4.349886  
     225A      4.369642   226A      4.394406   227A      4.571033  
     228A      4.571578   229A      4.572990   230A      4.600332  
     231A      4.602397   232A      4.624948   233A      4.637699  
     234A      4.663420   235A      4.729324   236A      4.733214  
     237A      4.874066   238A      4.875999   239A      4.899304  
     240A      4.899935   241A      4.952702   242A      4.955397  
     243A      4.996854   244A      5.006071   245A      5.035802  
     246A      5.039196   247A      5.064721   248A      5.116603  
     249A      5.185870   250A      5.219518   251A      5.255711  
     252A      5.355023   253A      5.463098   254A      5.466993  
     255A      5.542696   256A      5.599872   257A      5.617253  
     258A      5.654682   259A      5.666882   260A      5.704434  
     261A      5.747528   262A      5.933105   263A      5.993259  
     264A      6.055594   265A      6.292008   266A      6.355472  
     267A      6.404975   268A      6.494318   269A      6.514843  
     270A      6.674332   271A      6.780234   272A      6.797681  
     273A      6.851781   274A      7.039825   275A      7.151331  
     276A      7.171518   277A      7.252723   278A      7.328365  
     279A      7.369402   280A      7.396779   281A      7.397863  
     282A      7.507985   283A      7.694109   284A      7.723182  
     285A      7.743397   286A      7.943096   287A      7.947129  
     288A      7.965448   289A      8.028806   290A      8.093933  
     291A      8.107809   292A      8.279830   293A      8.298671  
     294A      8.300309   295A      8.319844   296A      8.801469  
     297A      8.870185   298A      8.890795   299A      8.901533  
     300A      8.966298   301A      9.872357   302A      9.908217  
     303A      9.960353   304A      9.995962   305A     10.026143  
     306A     10.045557   307A     10.272145   308A     10.309110  
     309A     11.283606   310A     11.311850   311A     11.707184  
     312A     11.760033   313A     12.150697   314A     12.345800  
     315A     12.713086   316A     13.640459   317A     13.739218  
     318A     13.883291   319A     14.001021   320A     16.171086  
     321A     65.340572   322A     65.397944  

    Final Occupation by Irrep:
              A 
    DOCC [     5 ]
    NA   [     5 ]
    NB   [     5 ]

  @DF-RHF Final Energy:   -76.06047083116810

   => Energetics <=

    Nuclear Repulsion Energy =              9.1601285843426847
    One-Electron Energy =                -122.9833531746533879
    Two-Electron Energy =                  37.7627537591425906
    Total Energy =                        -76.0604708311681179

Computation Completed


Properties will be evaluated at   0.000000,   0.000000,   0.000000 [a0]

Properties computed using the SCF density matrix


 Multipole Moments:

 ------------------------------------------------------------------------------------
     Multipole            Electronic (a.u.)      Nuclear  (a.u.)        Total (a.u.)
 ------------------------------------------------------------------------------------

 L = 1.  Multiply by 2.5417464519 to convert [e a0] to [Debye]
 Dipole X            :         18.5608506          -18.9500734           -0.3892228
 Dipole Y            :         32.1483275          -32.8224811           -0.6741536
 Dipole Z            :         -0.0000000            0.0000000           -0.0000000
 Magnitude           :                                                    0.7784455

 ------------------------------------------------------------------------------------

*** tstop() called on ivy at Thu Apr 25 12:50:52 2024
Module time:
	user time   =       2.86 seconds =       0.05 minutes
	system time =       0.36 seconds =       0.01 minutes
	total time  =          1 seconds =       0.02 minutes
Total time:
	user time   =       2.86 seconds =       0.05 minutes
	system time =       0.36 seconds =       0.01 minutes
	total time  =          1 seconds =       0.02 minutes

*** tstart() called on ivy
*** at Thu Apr 25 12:50:52 2024


  //>>>>>>>>>>>>>>>>>>>>>>>>>>>>>>>>>>>//
  //               DFMP2               //
  //<<<<<<<<<<<<<<<<<<<<<<<<<<<<<<<<<<<//

   => Loading Basis Set <=

    Name: (AUG-CC-PVTZ AUX)
    Role: RIFIT
    Keyword: DF_BASIS_MP2
    atoms 1              entry LI         line    90 file /home/kchung25/miniconda3/envs/p4env/share/psi4/basis/def2-qzvpp-ri.gbs 
    atoms 2, 5, 8        entry O          line   264 file /home/kchung25/miniconda3/envs/p4env/share/psi4/basis/aug-cc-pvtz-ri.gbs 
    atoms 3-4, 6-7, 9-10 entry H          line    30 file /home/kchung25/miniconda3/envs/p4env/share/psi4/basis/aug-cc-pvtz-ri.gbs 

	 --------------------------------------------------------
	                          DF-MP2                         
	      2nd-Order Density-Fitted Moller-Plesset Theory     
	              RMP2 Wavefunction,   6 Threads             
	                                                         
	        Rob Parrish, Justin Turney, Andy Simmonett,      
	           Ed Hohenstein, and C. David Sherrill          
	 --------------------------------------------------------

   => Auxiliary Basis Set <=

  Basis Set: (AUG-CC-PVTZ AUX)
    Blend: AUG-CC-PVTZ-RI + DEF2-QZVPP-RI
    Number of shells: 195
    Number of basis functions: 695
    Number of Cartesian functions: 868
    Spherical Harmonics?: true
    Max angular momentum: 4

	 --------------------------------------------------------
	                 NBF =   322, NAUX =   695
	 --------------------------------------------------------
	   CLASS    FOCC     OCC    AOCC    AVIR     VIR    FVIR
	   PAIRS       0       5       5     317     317       0
	 --------------------------------------------------------

	-----------------------------------------------------------
	 ==================> DF-MP2 Energies <==================== 
	-----------------------------------------------------------
	 Reference Energy          =     -76.0604708311681037 [Eh]
	 Singles Energy            =      -0.0000000000000000 [Eh]
	 Same-Spin Energy          =      -0.0684595272960690 [Eh]
	 Opposite-Spin Energy      =      -0.2159394667943804 [Eh]
	 Correlation Energy        =      -0.2843989940904494 [Eh]
	 Total Energy              =     -76.3448698252585558 [Eh]
	-----------------------------------------------------------
	 ================> DF-SCS-MP2 Energies <================== 
	-----------------------------------------------------------
	 SCS Same-Spin Scale       =       0.3333333333333333 [-]
	 SCS Opposite-Spin Scale   =       1.2000000000000000 [-]
	 SCS Same-Spin Energy      =      -0.0228198424320230 [Eh]
	 SCS Opposite-Spin Energy  =      -0.2591273601532565 [Eh]
	 SCS Correlation Energy    =      -0.2819472025852795 [Eh]
	 SCS Total Energy          =     -76.3424180337533898 [Eh]
	-----------------------------------------------------------


*** tstop() called on ivy at Thu Apr 25 12:50:53 2024
Module time:
	user time   =       1.36 seconds =       0.02 minutes
	system time =       0.17 seconds =       0.00 minutes
	total time  =          1 seconds =       0.02 minutes
Total time:
	user time   =       4.22 seconds =       0.07 minutes
	system time =       0.53 seconds =       0.01 minutes
	total time  =          2 seconds =       0.03 minutes

    Psi4 stopped on: Thursday, 25 April 2024 12:50PM
    Psi4 wall time for execution: 0:00:01.55

*** Psi4 exiting successfully. Buy a developer a beer!
