
    -----------------------------------------------------------------------
          Psi4: An Open-Source Ab Initio Electronic Structure Package
                               Psi4 1.9.1 release

                         Git: Rev {} zzzzzzz 


    D. G. A. Smith, L. A. Burns, A. C. Simmonett, R. M. Parrish,
    M. C. Schieber, R. Galvelis, P. Kraus, H. Kruse, R. Di Remigio,
    A. Alenaizan, A. M. James, S. Lehtola, J. P. Misiewicz, M. Scheurer,
    R. A. Shaw, J. B. Schriber, Y. Xie, Z. L. Glick, D. A. Sirianni,
    J. S. O'Brien, J. M. Waldrop, A. Kumar, E. G. Hohenstein,
    B. P. Pritchard, B. R. Brooks, H. F. Schaefer III, A. Yu. Sokolov,
    K. Patkowski, A. E. DePrince III, U. Bozkaya, R. A. King,
    F. A. Evangelista, J. M. Turney, T. D. Crawford, C. D. Sherrill,
    J. Chem. Phys. 152(18) 184108 (2020). https://doi.org/10.1063/5.0006002

                            Additional Code Authors
    E. T. Seidl, C. L. Janssen, E. F. Valeev, M. L. Leininger,
    J. F. Gonthier, R. M. Richard, H. R. McAlexander, M. Saitow, X. Wang,
    P. Verma, M. H. Lechner, A. Jiang, S. Behnle, A. G. Heide,
    M. F. Herbst, and D. L. Poole

             Previous Authors, Complete List of Code Contributors,
                       and Citations for Specific Modules
    https://github.com/psi4/psi4/blob/master/codemeta.json
    https://github.com/psi4/psi4/graphs/contributors
    http://psicode.org/psi4manual/master/introduction.html#citing-psifour

    -----------------------------------------------------------------------


    Psi4 started on: Thursday, 25 April 2024 12:52PM

    Process ID: 1093292
    Host:       ivy
    PSIDATADIR: /home/kchung25/miniconda3/envs/p4env/share/psi4
    Memory:     500.0 MiB
    Threads:    6
    
  ==> Input File <==

--------------------------------------------------------------------------
MEMORY 60 GB

molecule dimer {
0 1
Gh(Li)     0.000000     0.000000     0.000000
Gh(O)      2.105125     0.004064     0.000073
Gh(H)      2.692086     0.763743     0.003931
Gh(H)      2.695323    -0.753099    -0.003791
O         -0.005881     2.202644     0.005709
H         -0.759055     2.797230     0.004681
H          0.749729     2.794134     0.004461
Gh(O)     -2.103286     0.002241    -0.000014
Gh(H)     -2.698007    -0.751365    -0.003850
Gh(H)     -2.685658     0.765424     0.003881
Gh(O)      0.001016    -2.196479    -0.005695
Gh(H)      0.753343    -2.792129    -0.004557
Gh(H)     -0.755808    -2.786400    -0.004582
Gh(O)      0.003099    -0.001488     2.050341
Gh(H)     -0.759215    -0.007697     2.631837
Gh(H)      0.768379    -0.011643     2.627869
Gh(O)      0.003145     0.008130    -2.050319
Gh(H)     -0.759192     0.007978    -2.631818
Gh(H)      0.768403     0.003906    -2.627951

units ang
no_reorient
no_com
symmetry c1
}

set {
basis        aug-cc-pVTZ
scf_type     df
}

energy("mp2")
--------------------------------------------------------------------------

  Memory set to  55.879 GiB by Python driver.

Scratch directory: /tmp/
   => Libint2 <=

    Primary   basis highest AM E, G, H:  6, 6, 3
    Auxiliary basis highest AM E, G, H:  7, 7, 4
    Onebody   basis highest AM E, G, H:  -, -, -
    Solid Harmonics ordering:            Gaussian

*** tstart() called on ivy
*** at Thu Apr 25 12:52:03 2024

   => Loading Basis Set <=

    Name: AUG-CC-PVTZ
    Role: ORBITAL
    Keyword: BASIS
    atoms 1                                   entry LI         line    85 file /home/kchung25/miniconda3/envs/p4env/share/psi4/basis/aug-cc-pvtz.gbs 
    atoms 2, 5, 8, 11, 14, 17                 entry O          line   331 file /home/kchung25/miniconda3/envs/p4env/share/psi4/basis/aug-cc-pvtz.gbs 
    atoms 3-4, 6-7, 9-10, 12-13, 15-16, 18-19 entry H          line    40 file /home/kchung25/miniconda3/envs/p4env/share/psi4/basis/aug-cc-pvtz.gbs 


         ---------------------------------------------------------
                                   SCF
               by Justin Turney, Rob Parrish, Andy Simmonett
                          and Daniel G. A. Smith
                              RHF Reference
                        6 Threads,  57220 MiB Core
         ---------------------------------------------------------

  ==> Geometry <==

    Molecular point group: c1
    Full point group: C1

    Geometry (in Angstrom), charge = 0, multiplicity = 1:

       Center              X                  Y                   Z               Mass       
    ------------   -----------------  -----------------  -----------------  -----------------
      Gh(LI)          0.000000000000     0.000000000000     0.000000000000     7.016003436600
      Gh(O)           2.105125000000     0.004064000000     0.000073000000    15.994914619570
      Gh(H)           2.692086000000     0.763743000000     0.003931000000     1.007825032230
      Gh(H)           2.695323000000    -0.753099000000    -0.003791000000     1.007825032230
         O           -0.005881000000     2.202644000000     0.005709000000    15.994914619570
         H           -0.759055000000     2.797230000000     0.004681000000     1.007825032230
         H            0.749729000000     2.794134000000     0.004461000000     1.007825032230
      Gh(O)          -2.103286000000     0.002241000000    -0.000014000000    15.994914619570
      Gh(H)          -2.698007000000    -0.751365000000    -0.003850000000     1.007825032230
      Gh(H)          -2.685658000000     0.765424000000     0.003881000000     1.007825032230
      Gh(O)           0.001016000000    -2.196479000000    -0.005695000000    15.994914619570
      Gh(H)           0.753343000000    -2.792129000000    -0.004557000000     1.007825032230
      Gh(H)          -0.755808000000    -2.786400000000    -0.004582000000     1.007825032230
      Gh(O)           0.003099000000    -0.001488000000     2.050341000000    15.994914619570
      Gh(H)          -0.759215000000    -0.007697000000     2.631837000000     1.007825032230
      Gh(H)           0.768379000000    -0.011643000000     2.627869000000     1.007825032230
      Gh(O)           0.003145000000     0.008130000000    -2.050319000000    15.994914619570
      Gh(H)          -0.759192000000     0.007978000000    -2.631818000000     1.007825032230
      Gh(H)           0.768403000000     0.003906000000    -2.627951000000     1.007825032230

  Running in c1 symmetry.

  Rotational constants: A =      0.04989  B =      0.04804  C =      0.04631 [cm^-1]
  Rotational constants: A =   1495.74065  B =   1440.26790  C =   1388.23092 [MHz]
  Nuclear repulsion =    9.174149453310873

  Charge       = 0
  Multiplicity = 1
  Electrons    = 10
  Nalpha       = 5
  Nbeta        = 5

  ==> Algorithm <==

  SCF Algorithm Type is DF.
  DIIS enabled.
  MOM disabled.
  Fractional occupation disabled.
  Guess Type is SAD.
  Energy threshold   = 1.00e-08
  Density threshold  = 1.00e-08
  Integral threshold = 1.00e-12

  ==> Primary Basis <==

  Basis Set: AUG-CC-PVTZ
    Blend: AUG-CC-PVTZ
    Number of shells: 206
    Number of basis functions: 598
    Number of Cartesian functions: 685
    Spherical Harmonics?: true
    Max angular momentum: 3

   => Loading Basis Set <=

    Name: (AUG-CC-PVTZ AUX)
    Role: JKFIT
    Keyword: DF_BASIS_SCF
    atoms 1                                   entry LI         line    54 file /home/kchung25/miniconda3/envs/p4env/share/psi4/basis/def2-universal-jkfit.gbs 
    atoms 2, 5, 8, 11, 14, 17                 entry O          line   286 file /home/kchung25/miniconda3/envs/p4env/share/psi4/basis/aug-cc-pvtz-jkfit.gbs 
    atoms 3-4, 6-7, 9-10, 12-13, 15-16, 18-19 entry H          line    70 file /home/kchung25/miniconda3/envs/p4env/share/psi4/basis/aug-cc-pvtz-jkfit.gbs 

  ==> Integral Setup <==

  DFHelper Memory: AOs need 3.153 GiB; user supplied 41.910 GiB. 
  Using in-core AOs.

  ==> MemDFJK: Density-Fitted J/K Matrices <==

    J tasked:                   Yes
    K tasked:                   Yes
    wK tasked:                   No
    OpenMP threads:               6
    Memory [MiB]:             42915
    Algorithm:                 Core
    Schwarz Cutoff:           1E-12
    Mask sparsity (%):       6.5799
    Fitting Condition:        1E-10

   => Auxiliary Basis Set <=

  Basis Set: (AUG-CC-PVTZ AUX)
    Blend: AUG-CC-PVTZ-JKFIT + DEF2-UNIVERSAL-JKFIT
    Number of shells: 365
    Number of basis functions: 1227
    Number of Cartesian functions: 1506
    Spherical Harmonics?: true
    Max angular momentum: 4

  Minimum eigenvalue in the overlap matrix is 6.1227290457E-06.
  Reciprocal condition number of the overlap matrix is 3.5471794708E-07.
    Using symmetric orthogonalization.

  ==> Pre-Iterations <==

  SCF Guess: Superposition of Atomic Densities via on-the-fly atomic UHF (no occupation information).

   -------------------------
    Irrep   Nso     Nmo    
   -------------------------
     A        598     598 
   -------------------------
    Total     598     598
   -------------------------

  ==> Iterations <==

                           Total Energy        Delta E     RMS |[F,P]|

   @DF-RHF iter SAD:   -75.47624141746201   -7.54762e+01   0.00000e+00 
   @DF-RHF iter   1:   -75.97610588368596   -4.99864e-01   7.83515e-04 ADIIS/DIIS
   @DF-RHF iter   2:   -76.02864124576510   -5.25354e-02   5.34404e-04 ADIIS/DIIS
   @DF-RHF iter   3:   -76.06012507636056   -3.14838e-02   3.63164e-05 DIIS
   @DF-RHF iter   4:   -76.06051395315959   -3.88877e-04   8.69803e-06 DIIS
   @DF-RHF iter   5:   -76.06053832210560   -2.43689e-05   1.97825e-06 DIIS
   @DF-RHF iter   6:   -76.06054031821058   -1.99610e-06   4.32746e-07 DIIS
   @DF-RHF iter   7:   -76.06054042327291   -1.05062e-07   7.78879e-08 DIIS
   @DF-RHF iter   8:   -76.06054042626779   -2.99488e-09   1.30389e-08 DIIS
   @DF-RHF iter   9:   -76.06054042633316   -6.53699e-11   3.18592e-09 DIIS
  Energy and wave function converged.


  ==> Post-Iterations <==

    Orbital Energies [Eh]
    ---------------------

    Doubly Occupied:                                                      

       1A    -20.567729     2A     -1.352853     3A     -0.714748  
       4A     -0.586064     5A     -0.510343  

    Virtual:                                                              

       6A      0.008496     7A      0.017273     8A      0.017713  
       9A      0.019037    10A      0.041902    11A      0.050027  
      12A      0.054729    13A      0.055231    14A      0.061088  
      15A      0.061234    16A      0.062563    17A      0.064938  
      18A      0.076346    19A      0.077571    20A      0.082221  
      21A      0.085631    22A      0.087526    23A      0.103951  
      24A      0.106077    25A      0.119478    26A      0.135633  
      27A      0.143114    28A      0.147609    29A      0.152269  
      30A      0.156431    31A      0.163103    32A      0.163303  
      33A      0.165479    34A      0.167518    35A      0.187040  
      36A      0.194941    37A      0.195178    38A      0.199910  
      39A      0.207026    40A      0.208254    41A      0.209829  
      42A      0.211894    43A      0.216112    44A      0.216980  
      45A      0.217113    46A      0.220839    47A      0.225727  
      48A      0.239927    49A      0.248527    50A      0.261989  
      51A      0.271188    52A      0.275449    53A      0.283374  
      54A      0.293508    55A      0.301277    56A      0.319992  
      57A      0.333024    58A      0.337520    59A      0.348850  
      60A      0.351152    61A      0.357194    62A      0.357898  
      63A      0.366641    64A      0.371842    65A      0.375339  
      66A      0.378660    67A      0.385013    68A      0.387516  
      69A      0.394141    70A      0.400914    71A      0.405773  
      72A      0.412158    73A      0.412378    74A      0.417173  
      75A      0.418493    76A      0.421681    77A      0.424234  
      78A      0.428422    79A      0.429257    80A      0.440409  
      81A      0.442162    82A      0.445364    83A      0.448041  
      84A      0.453466    85A      0.459421    86A      0.470616  
      87A      0.472908    88A      0.475084    89A      0.487046  
      90A      0.488136    91A      0.492323    92A      0.498871  
      93A      0.499127    94A      0.508514    95A      0.511636  
      96A      0.512107    97A      0.514297    98A      0.520276  
      99A      0.522240   100A      0.522308   101A      0.533186  
     102A      0.550829   103A      0.554286   104A      0.564172  
     105A      0.569128   106A      0.574669   107A      0.598707  
     108A      0.600168   109A      0.601475   110A      0.613816  
     111A      0.624675   112A      0.625708   113A      0.633417  
     114A      0.645035   115A      0.657618   116A      0.678491  
     117A      0.711260   118A      0.724202   119A      0.752720  
     120A      0.765692   121A      0.775967   122A      0.783868  
     123A      0.792490   124A      0.794962   125A      0.805219  
     126A      0.809037   127A      0.810556   128A      0.815428  
     129A      0.820726   130A      0.839982   131A      0.842168  
     132A      0.850218   133A      0.862427   134A      0.865482  
     135A      0.872200   136A      0.874403   137A      0.885172  
     138A      0.889340   139A      0.893056   140A      0.900946  
     141A      0.901193   142A      0.914329   143A      0.917100  
     144A      0.918486   145A      0.920989   146A      0.926382  
     147A      0.936824   148A      0.946756   149A      0.952361  
     150A      0.970738   151A      0.976570   152A      0.981205  
     153A      0.983738   154A      0.991267   155A      0.999129  
     156A      1.006471   157A      1.016790   158A      1.023593  
     159A      1.024102   160A      1.027258   161A      1.028220  
     162A      1.035245   163A      1.038004   164A      1.057564  
     165A      1.058757   166A      1.067749   167A      1.076864  
     168A      1.085138   169A      1.089981   170A      1.090496  
     171A      1.095072   172A      1.103490   173A      1.107537  
     174A      1.110791   175A      1.123909   176A      1.125179  
     177A      1.131082   178A      1.139260   179A      1.142332  
     180A      1.155136   181A      1.159184   182A      1.167807  
     183A      1.171015   184A      1.175729   185A      1.176776  
     186A      1.192260   187A      1.196231   188A      1.199783  
     189A      1.201178   190A      1.209802   191A      1.226289  
     192A      1.239874   193A      1.241982   194A      1.242834  
     195A      1.258071   196A      1.261012   197A      1.266829  
     198A      1.272358   199A      1.274448   200A      1.275192  
     201A      1.289740   202A      1.305201   203A      1.311927  
     204A      1.322123   205A      1.324290   206A      1.335618  
     207A      1.350042   208A      1.359975   209A      1.370594  
     210A      1.381182   211A      1.394510   212A      1.403845  
     213A      1.407258   214A      1.414711   215A      1.417058  
     216A      1.431353   217A      1.433169   218A      1.443142  
     219A      1.453403   220A      1.456492   221A      1.458100  
     222A      1.466865   223A      1.489383   224A      1.520535  
     225A      1.526210   226A      1.542988   227A      1.546537  
     228A      1.549327   229A      1.560793   230A      1.569785  
     231A      1.576762   232A      1.579866   233A      1.596142  
     234A      1.620320   235A      1.623178   236A      1.627486  
     237A      1.629349   238A      1.636705   239A      1.662897  
     240A      1.674173   241A      1.690746   242A      1.693815  
     243A      1.717735   244A      1.727001   245A      1.733312  
     246A      1.749800   247A      1.764990   248A      1.783708  
     249A      1.788798   250A      1.796345   251A      1.804290  
     252A      1.806714   253A      1.815617   254A      1.840511  
     255A      1.842568   256A      1.867270   257A      1.875156  
     258A      1.883767   259A      1.893421   260A      1.895290  
     261A      1.901246   262A      1.924528   263A      1.924685  
     264A      1.928341   265A      1.928630   266A      1.940988  
     267A      1.941499   268A      1.973668   269A      1.984910  
     270A      1.991313   271A      1.996693   272A      1.999252  
     273A      2.000851   274A      2.024859   275A      2.031173  
     276A      2.063828   277A      2.092307   278A      2.093410  
     279A      2.095459   280A      2.103799   281A      2.124211  
     282A      2.126418   283A      2.133698   284A      2.144129  
     285A      2.155588   286A      2.202120   287A      2.231248  
     288A      2.232641   289A      2.249618   290A      2.265004  
     291A      2.340583   292A      2.357286   293A      2.388469  
     294A      2.389514   295A      2.457248   296A      2.460964  
     297A      2.518087   298A      2.544276   299A      2.554888  
     300A      2.555272   301A      2.559565   302A      2.570532  
     303A      2.587052   304A      2.587810   305A      2.601464  
     306A      2.605983   307A      2.642436   308A      2.648104  
     309A      2.658851   310A      2.676944   311A      2.680657  
     312A      2.692883   313A      2.746700   314A      2.748030  
     315A      2.757094   316A      2.760328   317A      2.780307  
     318A      2.793646   319A      2.794780   320A      2.829213  
     321A      2.858840   322A      2.864707   323A      2.867942  
     324A      2.879133   325A      2.885645   326A      2.895650  
     327A      2.920460   328A      2.923857   329A      2.932098  
     330A      2.938921   331A      2.946021   332A      2.954197  
     333A      2.996497   334A      3.007630   335A      3.008050  
     336A      3.017621   337A      3.038607   338A      3.049038  
     339A      3.069126   340A      3.094410   341A      3.111466  
     342A      3.122807   343A      3.124525   344A      3.184031  
     345A      3.184910   346A      3.203397   347A      3.217724  
     348A      3.257138   349A      3.275581   350A      3.284971  
     351A      3.297921   352A      3.328316   353A      3.334828  
     354A      3.345255   355A      3.357937   356A      3.358647  
     357A      3.365363   358A      3.367109   359A      3.368956  
     360A      3.369819   361A      3.403338   362A      3.419088  
     363A      3.428912   364A      3.433387   365A      3.433783  
     366A      3.441023   367A      3.442381   368A      3.461037  
     369A      3.500252   370A      3.501856   371A      3.511268  
     372A      3.571570   373A      3.573663   374A      3.603483  
     375A      3.617994   376A      3.647630   377A      3.656253  
     378A      3.674177   379A      3.745788   380A      3.764646  
     381A      3.798208   382A      3.827764   383A      3.847486  
     384A      3.968151   385A      3.999570   386A      4.041031  
     387A      4.123222   388A      4.125265   389A      4.126589  
     390A      4.165895   391A      4.223731   392A      4.335615  
     393A      4.375384   394A      4.380270   395A      4.387288  
     396A      4.400724   397A      4.444790   398A      4.460834  
     399A      4.472802   400A      4.496227   401A      4.587400  
     402A      4.613149   403A      4.648378   404A      4.652089  
     405A      4.652149   406A      4.665789   407A      4.672915  
     408A      4.685515   409A      4.692204   410A      4.697762  
     411A      4.728250   412A      4.771656   413A      4.781544  
     414A      4.782675   415A      4.786698   416A      4.816665  
     417A      4.821830   418A      4.864976   419A      4.895631  
     420A      4.896688   421A      4.912111   422A      4.933842  
     423A      4.934953   424A      4.939312   425A      4.962675  
     426A      4.975561   427A      4.984231   428A      4.990061  
     429A      5.004624   430A      5.005870   431A      5.025130  
     432A      5.030512   433A      5.047902   434A      5.050073  
     435A      5.064270   436A      5.074624   437A      5.089281  
     438A      5.101371   439A      5.131820   440A      5.138949  
     441A      5.172940   442A      5.184950   443A      5.205790  
     444A      5.205871   445A      5.229125   446A      5.234411  
     447A      5.260014   448A      5.273126   449A      5.301474  
     450A      5.325793   451A      5.336088   452A      5.391859  
     453A      5.409843   454A      5.452389   455A      5.541020  
     456A      5.589060   457A      5.608604   458A      5.609204  
     459A      5.617459   460A      5.645266   461A      5.672193  
     462A      5.686275   463A      5.695146   464A      5.711923  
     465A      5.727072   466A      5.749978   467A      5.779355  
     468A      5.780601   469A      5.823970   470A      5.831672  
     471A      5.912291   472A      5.987150   473A      6.095133  
     474A      6.127521   475A      6.171203   476A      6.218143  
     477A      6.249796   478A      6.331290   479A      6.334383  
     480A      6.369912   481A      6.407260   482A      6.426100  
     483A      6.452815   484A      6.502393   485A      6.545446  
     486A      6.573082   487A      6.574356   488A      6.676869  
     489A      6.695993   490A      6.817731   491A      6.898997  
     492A      6.934213   493A      6.962080   494A      6.966986  
     495A      7.081599   496A      7.119276   497A      7.166740  
     498A      7.180881   499A      7.218658   500A      7.236437  
     501A      7.295796   502A      7.349304   503A      7.411707  
     504A      7.420820   505A      7.438256   506A      7.458264  
     507A      7.590264   508A      7.763973   509A      7.784820  
     510A      7.811967   511A      7.822499   512A      7.828889  
     513A      7.850494   514A      7.932048   515A      8.030791  
     516A      8.048779   517A      8.068370   518A      8.083855  
     519A      8.090252   520A      8.093978   521A      8.138503  
     522A      8.171533   523A      8.177718   524A      8.199451  
     525A      8.199961   526A      8.269253   527A      8.296765  
     528A      8.298217   529A      8.299452   530A      8.325570  
     531A      8.337183   532A      8.345577   533A      8.352843  
     534A      8.383547   535A      8.399287   536A      8.838635  
     537A      8.844409   538A      8.893193   539A      8.924179  
     540A      8.926854   541A      8.936098   542A      8.966414  
     543A      8.982047   544A      8.982601   545A      8.989202  
     546A      9.015265   547A      9.952323   548A      9.953676  
     549A     10.005208   550A     10.019662   551A     10.036897  
     552A     10.040159   553A     10.040717   554A     10.053355  
     555A     10.075039   556A     10.078801   557A     10.088922  
     558A     10.108169   559A     10.127927   560A     10.134975  
     561A     10.144394   562A     10.295845   563A     10.330384  
     564A     10.331835   565A     10.342594   566A     10.361226  
     567A     11.288937   568A     11.299835   569A     11.334005  
     570A     11.345686   571A     11.413190   572A     11.779361  
     573A     11.840502   574A     11.861501   575A     12.193207  
     576A     12.225141   577A     12.369141   578A     12.440446  
     579A     12.504537   580A     12.533876   581A     12.781243  
     582A     13.304328   583A     13.786760   584A     13.793024  
     585A     13.799051   586A     13.808477   587A     13.913700  
     588A     13.957098   589A     13.963328   590A     13.986917  
     591A     14.001593   592A     14.100883   593A     16.488262  
     594A     65.839599   595A     65.883122   596A     66.104798  
     597A     66.610885   598A     67.450284  

    Final Occupation by Irrep:
              A 
    DOCC [     5 ]
    NA   [     5 ]
    NB   [     5 ]

  @DF-RHF Final Energy:   -76.06054042633316

   => Energetics <=

    Nuclear Repulsion Energy =              9.1741494533108732
    One-Electron Energy =                -123.0058999660347467
    Two-Electron Energy =                  37.7712100863907025
    Total Energy =                        -76.0605404263331764

Computation Completed


Properties will be evaluated at   0.000000,   0.000000,   0.000000 [a0]

Properties computed using the SCF density matrix


 Multipole Moments:

 ------------------------------------------------------------------------------------
     Multipole            Electronic (a.u.)      Nuclear  (a.u.)        Total (a.u.)
 ------------------------------------------------------------------------------------

 L = 1.  Multiply by 2.5417464519 to convert [e a0] to [Debye]
 Dipole X            :          0.1081422           -0.1065314            0.0016108
 Dipole Y            :        -43.0799065           43.8652979            0.7853914
 Dipole Z            :         -0.1050891            0.1035834           -0.0015057
 Magnitude           :                                                    0.7853945

 ------------------------------------------------------------------------------------

*** tstop() called on ivy at Thu Apr 25 12:52:08 2024
Module time:
	user time   =      19.85 seconds =       0.33 minutes
	system time =       1.27 seconds =       0.02 minutes
	total time  =          5 seconds =       0.08 minutes
Total time:
	user time   =      19.85 seconds =       0.33 minutes
	system time =       1.27 seconds =       0.02 minutes
	total time  =          5 seconds =       0.08 minutes

*** tstart() called on ivy
*** at Thu Apr 25 12:52:08 2024


  //>>>>>>>>>>>>>>>>>>>>>>>>>>>>>>>>>>>//
  //               DFMP2               //
  //<<<<<<<<<<<<<<<<<<<<<<<<<<<<<<<<<<<//

   => Loading Basis Set <=

    Name: (AUG-CC-PVTZ AUX)
    Role: RIFIT
    Keyword: DF_BASIS_MP2
    atoms 1                                   entry LI         line    90 file /home/kchung25/miniconda3/envs/p4env/share/psi4/basis/def2-qzvpp-ri.gbs 
    atoms 2, 5, 8, 11, 14, 17                 entry O          line   264 file /home/kchung25/miniconda3/envs/p4env/share/psi4/basis/aug-cc-pvtz-ri.gbs 
    atoms 3-4, 6-7, 9-10, 12-13, 15-16, 18-19 entry H          line    30 file /home/kchung25/miniconda3/envs/p4env/share/psi4/basis/aug-cc-pvtz-ri.gbs 

	 --------------------------------------------------------
	                          DF-MP2                         
	      2nd-Order Density-Fitted Moller-Plesset Theory     
	              RMP2 Wavefunction,   6 Threads             
	                                                         
	        Rob Parrish, Justin Turney, Andy Simmonett,      
	           Ed Hohenstein, and C. David Sherrill          
	 --------------------------------------------------------

   => Auxiliary Basis Set <=

  Basis Set: (AUG-CC-PVTZ AUX)
    Blend: AUG-CC-PVTZ-RI + DEF2-QZVPP-RI
    Number of shells: 363
    Number of basis functions: 1289
    Number of Cartesian functions: 1606
    Spherical Harmonics?: true
    Max angular momentum: 4

	 --------------------------------------------------------
	                 NBF =   598, NAUX =  1289
	 --------------------------------------------------------
	   CLASS    FOCC     OCC    AOCC    AVIR     VIR    FVIR
	   PAIRS       0       5       5     593     593       0
	 --------------------------------------------------------

	-----------------------------------------------------------
	 ==================> DF-MP2 Energies <==================== 
	-----------------------------------------------------------
	 Reference Energy          =     -76.0605404263331621 [Eh]
	 Singles Energy            =      -0.0000000000000000 [Eh]
	 Same-Spin Energy          =      -0.0685083915628286 [Eh]
	 Opposite-Spin Energy      =      -0.2163296029929864 [Eh]
	 Correlation Energy        =      -0.2848379945558150 [Eh]
	 Total Energy              =     -76.3453784208889772 [Eh]
	-----------------------------------------------------------
	 ================> DF-SCS-MP2 Energies <================== 
	-----------------------------------------------------------
	 SCS Same-Spin Scale       =       0.3333333333333333 [-]
	 SCS Opposite-Spin Scale   =       1.2000000000000000 [-]
	 SCS Same-Spin Energy      =      -0.0228361305209429 [Eh]
	 SCS Opposite-Spin Energy  =      -0.2595955235915837 [Eh]
	 SCS Correlation Energy    =      -0.2824316541125266 [Eh]
	 SCS Total Energy          =     -76.3429720804456906 [Eh]
	-----------------------------------------------------------


*** tstop() called on ivy at Thu Apr 25 12:52:10 2024
Module time:
	user time   =       7.71 seconds =       0.13 minutes
	system time =       0.83 seconds =       0.01 minutes
	total time  =          2 seconds =       0.03 minutes
Total time:
	user time   =      27.56 seconds =       0.46 minutes
	system time =       2.10 seconds =       0.04 minutes
	total time  =          7 seconds =       0.12 minutes

    Psi4 stopped on: Thursday, 25 April 2024 12:52PM
    Psi4 wall time for execution: 0:00:07.42

*** Psi4 exiting successfully. Buy a developer a beer!
