
    -----------------------------------------------------------------------
          Psi4: An Open-Source Ab Initio Electronic Structure Package
                               Psi4 1.9.1 release

                         Git: Rev {} zzzzzzz 


    D. G. A. Smith, L. A. Burns, A. C. Simmonett, R. M. Parrish,
    M. C. Schieber, R. Galvelis, P. Kraus, H. Kruse, R. Di Remigio,
    A. Alenaizan, A. M. James, S. Lehtola, J. P. Misiewicz, M. Scheurer,
    R. A. Shaw, J. B. Schriber, Y. Xie, Z. L. Glick, D. A. Sirianni,
    J. S. O'Brien, J. M. Waldrop, A. Kumar, E. G. Hohenstein,
    B. P. Pritchard, B. R. Brooks, H. F. Schaefer III, A. Yu. Sokolov,
    K. Patkowski, A. E. DePrince III, U. Bozkaya, R. A. King,
    F. A. Evangelista, J. M. Turney, T. D. Crawford, C. D. Sherrill,
    J. Chem. Phys. 152(18) 184108 (2020). https://doi.org/10.1063/5.0006002

                            Additional Code Authors
    E. T. Seidl, C. L. Janssen, E. F. Valeev, M. L. Leininger,
    J. F. Gonthier, R. M. Richard, H. R. McAlexander, M. Saitow, X. Wang,
    P. Verma, M. H. Lechner, A. Jiang, S. Behnle, A. G. Heide,
    M. F. Herbst, and D. L. Poole

             Previous Authors, Complete List of Code Contributors,
                       and Citations for Specific Modules
    https://github.com/psi4/psi4/blob/master/codemeta.json
    https://github.com/psi4/psi4/graphs/contributors
    http://psicode.org/psi4manual/master/introduction.html#citing-psifour

    -----------------------------------------------------------------------


    Psi4 started on: Thursday, 25 April 2024 01:25PM

    Process ID: 1098507
    Host:       ivy
    PSIDATADIR: /home/kchung25/miniconda3/envs/p4env/share/psi4
    Memory:     500.0 MiB
    Threads:    6
    
  ==> Input File <==

--------------------------------------------------------------------------
MEMORY 60 GB

molecule dimer {
0 1
Gh(K)      0.000000     0.000000     0.000000
Gh(O)      2.562815    -0.694898     0.542792
Gh(H)      3.373617    -0.354851     0.152568
Gh(H)      2.804903    -1.571329     0.856340
Gh(O)     -2.014501     1.400138    -0.990096
Gh(H)     -2.534077     0.586214    -1.045531
Gh(H)     -2.644148     2.124800    -0.955822
Gh(O)     -1.898623    -1.351254    -1.253490
Gh(H)     -1.423068    -1.204159    -2.082933
Gh(H)     -2.473179    -2.106495    -1.402920
Gh(O)      0.874127     0.783880     2.274824
Gh(H)      0.884597     1.204885     3.136562
Gh(H)      1.766396     0.455027     2.125638
O         -0.113837     0.285375    -2.618088
H         -0.754411     0.991430    -2.446719
H          0.230518     0.441625    -3.500921

units ang
no_reorient
no_com
symmetry c1
}

set {
basis        aug-cc-pVTZ
scf_type     df
}

energy("mp2")
--------------------------------------------------------------------------

  Memory set to  55.879 GiB by Python driver.

Scratch directory: /tmp/
   => Libint2 <=

    Primary   basis highest AM E, G, H:  6, 6, 3
    Auxiliary basis highest AM E, G, H:  7, 7, 4
    Onebody   basis highest AM E, G, H:  -, -, -
    Solid Harmonics ordering:            Gaussian

*** tstart() called on ivy
*** at Thu Apr 25 13:25:39 2024

   => Loading Basis Set <=

    Name: AUG-CC-PVTZ
    Role: ORBITAL
    Keyword: BASIS
    atoms 1                            entry K          line  1152 file /home/kchung25/miniconda3/envs/p4env/share/psi4/basis/aug-cc-pvtz.gbs 
    atoms 2, 5, 8, 11, 14              entry O          line   331 file /home/kchung25/miniconda3/envs/p4env/share/psi4/basis/aug-cc-pvtz.gbs 
    atoms 3-4, 6-7, 9-10, 12-13, 15-16 entry H          line    40 file /home/kchung25/miniconda3/envs/p4env/share/psi4/basis/aug-cc-pvtz.gbs 


         ---------------------------------------------------------
                                   SCF
               by Justin Turney, Rob Parrish, Andy Simmonett
                          and Daniel G. A. Smith
                              RHF Reference
                        6 Threads,  57220 MiB Core
         ---------------------------------------------------------

  ==> Geometry <==

    Molecular point group: c1
    Full point group: C1

    Geometry (in Angstrom), charge = 0, multiplicity = 1:

       Center              X                  Y                   Z               Mass       
    ------------   -----------------  -----------------  -----------------  -----------------
      Gh(K)           0.000000000000     0.000000000000     0.000000000000    38.963706486400
      Gh(O)           2.562815000000    -0.694898000000     0.542792000000    15.994914619570
      Gh(H)           3.373617000000    -0.354851000000     0.152568000000     1.007825032230
      Gh(H)           2.804903000000    -1.571329000000     0.856340000000     1.007825032230
      Gh(O)          -2.014501000000     1.400138000000    -0.990096000000    15.994914619570
      Gh(H)          -2.534077000000     0.586214000000    -1.045531000000     1.007825032230
      Gh(H)          -2.644148000000     2.124800000000    -0.955822000000     1.007825032230
      Gh(O)          -1.898623000000    -1.351254000000    -1.253490000000    15.994914619570
      Gh(H)          -1.423068000000    -1.204159000000    -2.082933000000     1.007825032230
      Gh(H)          -2.473179000000    -2.106495000000    -1.402920000000     1.007825032230
      Gh(O)           0.874127000000     0.783880000000     2.274824000000    15.994914619570
      Gh(H)           0.884597000000     1.204885000000     3.136562000000     1.007825032230
      Gh(H)           1.766396000000     0.455027000000     2.125638000000     1.007825032230
         O           -0.113837000000     0.285375000000    -2.618088000000    15.994914619570
         H           -0.754411000000     0.991430000000    -2.446719000000     1.007825032230
         H            0.230518000000     0.441625000000    -3.500921000000     1.007825032230

  Running in c1 symmetry.

  Rotational constants: A =      0.07416  B =      0.03295  C =      0.02887 [cm^-1]
  Rotational constants: A =   2223.12312  B =    987.92736  C =    865.55391 [MHz]
  Nuclear repulsion =    9.121258382146507

  Charge       = 0
  Multiplicity = 1
  Electrons    = 10
  Nalpha       = 5
  Nbeta        = 5

  ==> Algorithm <==

  SCF Algorithm Type is DF.
  DIIS enabled.
  MOM disabled.
  Fractional occupation disabled.
  Guess Type is SAD.
  Energy threshold   = 1.00e-08
  Density threshold  = 1.00e-08
  Integral threshold = 1.00e-12

  ==> Primary Basis <==

  Basis Set: AUG-CC-PVTZ
    Blend: AUG-CC-PVTZ
    Number of shells: 179
    Number of basis functions: 519
    Number of Cartesian functions: 594
    Spherical Harmonics?: true
    Max angular momentum: 3

   => Loading Basis Set <=

    Name: (AUG-CC-PVTZ AUX)
    Role: JKFIT
    Keyword: DF_BASIS_SCF
    atoms 1                            entry K          line  1152 file /home/kchung25/miniconda3/envs/p4env/share/psi4/basis/def2-universal-jkfit.gbs 
    atoms 2, 5, 8, 11, 14              entry O          line   286 file /home/kchung25/miniconda3/envs/p4env/share/psi4/basis/aug-cc-pvtz-jkfit.gbs 
    atoms 3-4, 6-7, 9-10, 12-13, 15-16 entry H          line    70 file /home/kchung25/miniconda3/envs/p4env/share/psi4/basis/aug-cc-pvtz-jkfit.gbs 

  ==> Integral Setup <==

  DFHelper Memory: AOs need 2.107 GiB; user supplied 41.910 GiB. 
  Using in-core AOs.

  ==> MemDFJK: Density-Fitted J/K Matrices <==

    J tasked:                   Yes
    K tasked:                   Yes
    wK tasked:                   No
    OpenMP threads:               6
    Memory [MiB]:             42915
    Algorithm:                 Core
    Schwarz Cutoff:           1E-12
    Mask sparsity (%):      11.2199
    Fitting Condition:        1E-10

   => Auxiliary Basis Set <=

  Basis Set: (AUG-CC-PVTZ AUX)
    Blend: AUG-CC-PVTZ-JKFIT + DEF2-UNIVERSAL-JKFIT
    Number of shells: 334
    Number of basis functions: 1140
    Number of Cartesian functions: 1408
    Spherical Harmonics?: true
    Max angular momentum: 4

  Minimum eigenvalue in the overlap matrix is 2.4396915468E-05.
  Reciprocal condition number of the overlap matrix is 1.6356450543E-06.
    Using symmetric orthogonalization.

  ==> Pre-Iterations <==

  SCF Guess: Superposition of Atomic Densities via on-the-fly atomic UHF (no occupation information).

   -------------------------
    Irrep   Nso     Nmo    
   -------------------------
     A        519     519 
   -------------------------
    Total     519     519
   -------------------------

  ==> Iterations <==

                           Total Energy        Delta E     RMS |[F,P]|

   @DF-RHF iter SAD:   -75.46782964944710   -7.54678e+01   0.00000e+00 
   @DF-RHF iter   1:   -75.97577389011066   -5.07944e-01   9.01825e-04 ADIIS/DIIS
   @DF-RHF iter   2:   -76.02805066445698   -5.22768e-02   6.17034e-04 ADIIS/DIIS
   @DF-RHF iter   3:   -76.05971692597292   -3.16663e-02   4.20000e-05 DIIS
   @DF-RHF iter   4:   -76.06011539783042   -3.98472e-04   1.01685e-05 DIIS
   @DF-RHF iter   5:   -76.06014085951242   -2.54617e-05   2.31477e-06 DIIS
   @DF-RHF iter   6:   -76.06014296364890   -2.10414e-06   5.12342e-07 DIIS
   @DF-RHF iter   7:   -76.06014307747509   -1.13826e-07   9.44599e-08 DIIS
   @DF-RHF iter   8:   -76.06014308088159   -3.40650e-09   1.58658e-08 DIIS
   @DF-RHF iter   9:   -76.06014308095808   -7.64970e-11   3.98474e-09 DIIS
  Energy and wave function converged.


  ==> Post-Iterations <==

    Orbital Energies [Eh]
    ---------------------

    Doubly Occupied:                                                      

       1A    -20.567445     2A     -1.348473     3A     -0.717188  
       4A     -0.579897     5A     -0.509176  

    Virtual:                                                              

       6A      0.006658     7A      0.009551     8A      0.009883  
       9A      0.011003    10A      0.017758    11A      0.017967  
      12A      0.018396    13A      0.019133    14A      0.019253  
      15A      0.031264    16A      0.035270    17A      0.035957  
      18A      0.039729    19A      0.053642    20A      0.056222  
      21A      0.058863    22A      0.063520    23A      0.064382  
      24A      0.070098    25A      0.072191    26A      0.075012  
      27A      0.077232    28A      0.079912    29A      0.082651  
      30A      0.091277    31A      0.094548    32A      0.100239  
      33A      0.103147    34A      0.105772    35A      0.108713  
      36A      0.115175    37A      0.128741    38A      0.140600  
      39A      0.151871    40A      0.155261    41A      0.168689  
      42A      0.169680    43A      0.171551    44A      0.177415  
      45A      0.179238    46A      0.182919    47A      0.191911  
      48A      0.193512    49A      0.196749    50A      0.207089  
      51A      0.209996    52A      0.213900    53A      0.216591  
      54A      0.224058    55A      0.228720    56A      0.235181  
      57A      0.237987    58A      0.241397    59A      0.247417  
      60A      0.257009    61A      0.264256    62A      0.271105  
      63A      0.275174    64A      0.283222    65A      0.291012  
      66A      0.304504    67A      0.306912    68A      0.328025  
      69A      0.338873    70A      0.342294    71A      0.345103  
      72A      0.354196    73A      0.360130    74A      0.363717  
      75A      0.369563    76A      0.378197    77A      0.386018  
      78A      0.391593    79A      0.401226    80A      0.402770  
      81A      0.410133    82A      0.412751    83A      0.418551  
      84A      0.421994    85A      0.425194    86A      0.430266  
      87A      0.434494    88A      0.440347    89A      0.444185  
      90A      0.446302    91A      0.452359    92A      0.455116  
      93A      0.461288    94A      0.465674    95A      0.472439  
      96A      0.478524    97A      0.482154    98A      0.487766  
      99A      0.494258   100A      0.503371   101A      0.509233  
     102A      0.513227   103A      0.518493   104A      0.524785  
     105A      0.537541   106A      0.542190   107A      0.550722  
     108A      0.556333   109A      0.558029   110A      0.577098  
     111A      0.583228   112A      0.595469   113A      0.597864  
     114A      0.604639   115A      0.613905   116A      0.628159  
     117A      0.641266   118A      0.654664   119A      0.667042  
     120A      0.689467   121A      0.719136   122A      0.742038  
     123A      0.753569   124A      0.764571   125A      0.771745  
     126A      0.780061   127A      0.793361   128A      0.814332  
     129A      0.820818   130A      0.824856   131A      0.833092  
     132A      0.849711   133A      0.851852   134A      0.855255  
     135A      0.864298   136A      0.876224   137A      0.879477  
     138A      0.890968   139A      0.898430   140A      0.904309  
     141A      0.907429   142A      0.915193   143A      0.921255  
     144A      0.926908   145A      0.935007   146A      0.937012  
     147A      0.941895   148A      0.951680   149A      0.956143  
     150A      0.964614   151A      0.972465   152A      0.977585  
     153A      0.982166   154A      0.983504   155A      0.993681  
     156A      0.998462   157A      1.006537   158A      1.014077  
     159A      1.021267   160A      1.023344   161A      1.035882  
     162A      1.036111   163A      1.042942   164A      1.059217  
     165A      1.064325   166A      1.072776   167A      1.078325  
     168A      1.089976   169A      1.092081   170A      1.101999  
     171A      1.111047   172A      1.120870   173A      1.124787  
     174A      1.128900   175A      1.132581   176A      1.136717  
     177A      1.145325   178A      1.155281   179A      1.170727  
     180A      1.174883   181A      1.185236   182A      1.193640  
     183A      1.198068   184A      1.211856   185A      1.215295  
     186A      1.218407   187A      1.239597   188A      1.243748  
     189A      1.250909   190A      1.257088   191A      1.268003  
     192A      1.270949   193A      1.281213   194A      1.295735  
     195A      1.305941   196A      1.316984   197A      1.330342  
     198A      1.345691   199A      1.358485   200A      1.361819  
     201A      1.391373   202A      1.401969   203A      1.407949  
     204A      1.413863   205A      1.441078   206A      1.446621  
     207A      1.449988   208A      1.470687   209A      1.484194  
     210A      1.501227   211A      1.512984   212A      1.540281  
     213A      1.552959   214A      1.578987   215A      1.590798  
     216A      1.607556   217A      1.619949   218A      1.627350  
     219A      1.637867   220A      1.644336   221A      1.662820  
     222A      1.689435   223A      1.690359   224A      1.715319  
     225A      1.732948   226A      1.749082   227A      1.768361  
     228A      1.784289   229A      1.809683   230A      1.822999  
     231A      1.833773   232A      1.850670   233A      1.863943  
     234A      1.869832   235A      1.883889   236A      1.886531  
     237A      1.891364   238A      1.910480   239A      1.920274  
     240A      1.934993   241A      1.943607   242A      1.965980  
     243A      1.981010   244A      1.993442   245A      2.007894  
     246A      2.057298   247A      2.080184   248A      2.101540  
     249A      2.110444   250A      2.134775   251A      2.158114  
     252A      2.180780   253A      2.235450   254A      2.284980  
     255A      2.321027   256A      2.357618   257A      2.388821  
     258A      2.404285   259A      2.423727   260A      2.429153  
     261A      2.462943   262A      2.486926   263A      2.492013  
     264A      2.504763   265A      2.515402   266A      2.536860  
     267A      2.541573   268A      2.553323   269A      2.563623  
     270A      2.569415   271A      2.576178   272A      2.581942  
     273A      2.604467   274A      2.611798   275A      2.630500  
     276A      2.634234   277A      2.641462   278A      2.661066  
     279A      2.664197   280A      2.691076   281A      2.695365  
     282A      2.707643   283A      2.725888   284A      2.733138  
     285A      2.738355   286A      2.755281   287A      2.773403  
     288A      2.789326   289A      2.799578   290A      2.800390  
     291A      2.820323   292A      2.837765   293A      2.867993  
     294A      2.874177   295A      2.887964   296A      2.910737  
     297A      2.914050   298A      2.931847   299A      2.956271  
     300A      2.973105   301A      2.991376   302A      3.002913  
     303A      3.018236   304A      3.046637   305A      3.047957  
     306A      3.069285   307A      3.137898   308A      3.140592  
     309A      3.170472   310A      3.227916   311A      3.242402  
     312A      3.261442   313A      3.275405   314A      3.283487  
     315A      3.299627   316A      3.329476   317A      3.340012  
     318A      3.344485   319A      3.352794   320A      3.371894  
     321A      3.389738   322A      3.409524   323A      3.414618  
     324A      3.440160   325A      3.451915   326A      3.493866  
     327A      3.503396   328A      3.524961   329A      3.539982  
     330A      3.575196   331A      3.596980   332A      3.672106  
     333A      3.698242   334A      3.733280   335A      3.747433  
     336A      3.755908   337A      3.776101   338A      3.834050  
     339A      3.850868   340A      3.911108   341A      3.994946  
     342A      4.083810   343A      4.140126   344A      4.333542  
     345A      4.338032   346A      4.376068   347A      4.390369  
     348A      4.427810   349A      4.429555   350A      4.458342  
     351A      4.481208   352A      4.516805   353A      4.554396  
     354A      4.555701   355A      4.558178   356A      4.574314  
     357A      4.585334   358A      4.594813   359A      4.613770  
     360A      4.652180   361A      4.660574   362A      4.669164  
     363A      4.680253   364A      4.708502   365A      4.718571  
     366A      4.737896   367A      4.754769   368A      4.780745  
     369A      4.817057   370A      4.819863   371A      4.836212  
     372A      4.844429   373A      4.889934   374A      4.921785  
     375A      4.950313   376A      4.963641   377A      4.988968  
     378A      5.002565   379A      5.009158   380A      5.064565  
     381A      5.068791   382A      5.089636   383A      5.098649  
     384A      5.106394   385A      5.130563   386A      5.150442  
     387A      5.164393   388A      5.206915   389A      5.218585  
     390A      5.249111   391A      5.282706   392A      5.293556  
     393A      5.335159   394A      5.365763   395A      5.395514  
     396A      5.469069   397A      5.498637   398A      5.547740  
     399A      5.570061   400A      5.582834   401A      5.616958  
     402A      5.622413   403A      5.640047   404A      5.658415  
     405A      5.663106   406A      5.690083   407A      5.693812  
     408A      5.718056   409A      5.785974   410A      5.793405  
     411A      5.883964   412A      5.893638   413A      5.926161  
     414A      5.935014   415A      5.960621   416A      6.159269  
     417A      6.241775   418A      6.299826   419A      6.316184  
     420A      6.371160   421A      6.373023   422A      6.436472  
     423A      6.538647   424A      6.581291   425A      6.715513  
     426A      6.752575   427A      6.769844   428A      6.796430  
     429A      6.852805   430A      6.860704   431A      7.014833  
     432A      7.107036   433A      7.108909   434A      7.122892  
     435A      7.166588   436A      7.243800   437A      7.377748  
     438A      7.411526   439A      7.443602   440A      7.468991  
     441A      7.490556   442A      7.726405   443A      7.754476  
     444A      7.778326   445A      7.802733   446A      7.817883  
     447A      7.831861   448A      7.884807   449A      7.937805  
     450A      7.944597   451A      7.993120   452A      8.041157  
     453A      8.102729   454A      8.151318   455A      8.167388  
     456A      8.208710   457A      8.210612   458A      8.231955  
     459A      8.239843   460A      8.270440   461A      8.295799  
     462A      8.310089   463A      8.356137   464A      8.379412  
     465A      8.755283   466A      8.856425   467A      8.861206  
     468A      8.865608   469A      8.870803   470A      8.894427  
     471A      8.932369   472A      8.954476   473A      9.004618  
     474A      9.811820   475A      9.873514   476A      9.887977  
     477A      9.932235   478A      9.953127   479A     10.005227  
     480A     10.021061   481A     10.035235   482A     10.039025  
     483A     10.054293   484A     10.068943   485A     10.099214  
     486A     10.278123   487A     10.333624   488A     10.337581  
     489A     10.372347   490A     10.546190   491A     11.220379  
     492A     11.236876   493A     11.253570   494A     11.256069  
     495A     11.709660   496A     11.869655   497A     11.913190  
     498A     11.932253   499A     12.149253   500A     12.283709  
     501A     12.358268   502A     12.469829   503A     13.605788  
     504A     13.643946   505A     13.662713   506A     13.676539  
     507A     13.902011   508A     13.925841   509A     13.978179  
     510A     14.014743   511A     16.416545   512A     30.921570  
     513A     31.314002   514A     32.009983   515A     64.936619  
     516A     65.521096   517A     65.813465   518A     66.596720  
     519A    198.340816  

    Final Occupation by Irrep:
              A 
    DOCC [     5 ]
    NA   [     5 ]
    NB   [     5 ]

  @DF-RHF Final Energy:   -76.06014308095808

   => Energetics <=

    Nuclear Repulsion Energy =              9.1212583821465074
    One-Electron Energy =                -122.9184387270015009
    Two-Electron Energy =                  37.7370372638969016
    Total Energy =                        -76.0601430809580847

Computation Completed


Properties will be evaluated at   0.000000,   0.000000,   0.000000 [a0]

Properties computed using the SCF density matrix


 Multipole Moments:

 ------------------------------------------------------------------------------------
     Multipole            Electronic (a.u.)      Nuclear  (a.u.)        Total (a.u.)
 ------------------------------------------------------------------------------------

 L = 1.  Multiply by 2.5417464519 to convert [e a0] to [Debye]
 Dipole X            :          2.5148358           -2.7109803           -0.1961445
 Dipole Y            :         -6.4487960            7.0223262            0.5735302
 Dipole Z            :         50.3447862          -50.8191650           -0.4743788
 Magnitude           :                                                    0.7697043

 ------------------------------------------------------------------------------------

*** tstop() called on ivy at Thu Apr 25 13:25:45 2024
Module time:
	user time   =      15.23 seconds =       0.25 minutes
	system time =       1.60 seconds =       0.03 minutes
	total time  =          6 seconds =       0.10 minutes
Total time:
	user time   =      15.23 seconds =       0.25 minutes
	system time =       1.60 seconds =       0.03 minutes
	total time  =          6 seconds =       0.10 minutes

*** tstart() called on ivy
*** at Thu Apr 25 13:25:45 2024


  //>>>>>>>>>>>>>>>>>>>>>>>>>>>>>>>>>>>//
  //               DFMP2               //
  //<<<<<<<<<<<<<<<<<<<<<<<<<<<<<<<<<<<//

   => Loading Basis Set <=

    Name: (AUG-CC-PVTZ AUX)
    Role: RIFIT
    Keyword: DF_BASIS_MP2
    atoms 1                            entry K          line  1282 file /home/kchung25/miniconda3/envs/p4env/share/psi4/basis/def2-qzvpp-ri.gbs 
    atoms 2, 5, 8, 11, 14              entry O          line   264 file /home/kchung25/miniconda3/envs/p4env/share/psi4/basis/aug-cc-pvtz-ri.gbs 
    atoms 3-4, 6-7, 9-10, 12-13, 15-16 entry H          line    30 file /home/kchung25/miniconda3/envs/p4env/share/psi4/basis/aug-cc-pvtz-ri.gbs 

	 --------------------------------------------------------
	                          DF-MP2                         
	      2nd-Order Density-Fitted Moller-Plesset Theory     
	              RMP2 Wavefunction,   6 Threads             
	                                                         
	        Rob Parrish, Justin Turney, Andy Simmonett,      
	           Ed Hohenstein, and C. David Sherrill          
	 --------------------------------------------------------

   => Auxiliary Basis Set <=

  Basis Set: (AUG-CC-PVTZ AUX)
    Blend: AUG-CC-PVTZ-RI + DEF2-QZVPP-RI
    Number of shells: 329
    Number of basis functions: 1189
    Number of Cartesian functions: 1492
    Spherical Harmonics?: true
    Max angular momentum: 4

	 --------------------------------------------------------
	                 NBF =   519, NAUX =  1189
	 --------------------------------------------------------
	   CLASS    FOCC     OCC    AOCC    AVIR     VIR    FVIR
	   PAIRS       0       5       5     514     514       0
	 --------------------------------------------------------

	-----------------------------------------------------------
	 ==================> DF-MP2 Energies <==================== 
	-----------------------------------------------------------
	 Reference Energy          =     -76.0601430809580847 [Eh]
	 Singles Energy            =      -0.0000000000000000 [Eh]
	 Same-Spin Energy          =      -0.0685407876096638 [Eh]
	 Opposite-Spin Energy      =      -0.2164408050735460 [Eh]
	 Correlation Energy        =      -0.2849815926832098 [Eh]
	 Total Energy              =     -76.3451246736412941 [Eh]
	-----------------------------------------------------------
	 ================> DF-SCS-MP2 Energies <================== 
	-----------------------------------------------------------
	 SCS Same-Spin Scale       =       0.3333333333333333 [-]
	 SCS Opposite-Spin Scale   =       1.2000000000000000 [-]
	 SCS Same-Spin Energy      =      -0.0228469292032213 [Eh]
	 SCS Opposite-Spin Energy  =      -0.2597289660882551 [Eh]
	 SCS Correlation Energy    =      -0.2825758952914764 [Eh]
	 SCS Total Energy          =     -76.3427189762495573 [Eh]
	-----------------------------------------------------------


*** tstop() called on ivy at Thu Apr 25 13:25:49 2024
Module time:
	user time   =       7.85 seconds =       0.13 minutes
	system time =       1.16 seconds =       0.02 minutes
	total time  =          4 seconds =       0.07 minutes
Total time:
	user time   =      23.08 seconds =       0.38 minutes
	system time =       2.76 seconds =       0.05 minutes
	total time  =         10 seconds =       0.17 minutes

    Psi4 stopped on: Thursday, 25 April 2024 01:25PM
    Psi4 wall time for execution: 0:00:10.30

*** Psi4 exiting successfully. Buy a developer a beer!
