
    -----------------------------------------------------------------------
          Psi4: An Open-Source Ab Initio Electronic Structure Package
                               Psi4 1.9 release

                         Git: Rev {} zzzzzzz 


    D. G. A. Smith, L. A. Burns, A. C. Simmonett, R. M. Parrish,
    M. C. Schieber, R. Galvelis, P. Kraus, H. Kruse, R. Di Remigio,
    A. Alenaizan, A. M. James, S. Lehtola, J. P. Misiewicz, M. Scheurer,
    R. A. Shaw, J. B. Schriber, Y. Xie, Z. L. Glick, D. A. Sirianni,
    J. S. O'Brien, J. M. Waldrop, A. Kumar, E. G. Hohenstein,
    B. P. Pritchard, B. R. Brooks, H. F. Schaefer III, A. Yu. Sokolov,
    K. Patkowski, A. E. DePrince III, U. Bozkaya, R. A. King,
    F. A. Evangelista, J. M. Turney, T. D. Crawford, C. D. Sherrill,
    J. Chem. Phys. 152(18) 184108 (2020). https://doi.org/10.1063/5.0006002

                            Additional Code Authors
    E. T. Seidl, C. L. Janssen, E. F. Valeev, M. L. Leininger,
    J. F. Gonthier, R. M. Richard, H. R. McAlexander, M. Saitow, X. Wang,
    P. Verma, M. H. Lechner, A. Jiang, S. Behnle, A. G. Heide,
    M. F. Herbst, and D. L. Poole

             Previous Authors, Complete List of Code Contributors,
                       and Citations for Specific Modules
    https://github.com/psi4/psi4/blob/master/codemeta.json
    https://github.com/psi4/psi4/graphs/contributors
    http://psicode.org/psi4manual/master/introduction.html#citing-psifour

    -----------------------------------------------------------------------


    Psi4 started on: Monday, 01 January 2024 05:54PM

    Process ID: 318267
    Host:       moses-razer
    PSIDATADIR: /home/kchung25/anaconda3/envs/psi4_19/share/psi4
    Memory:     500.0 MiB
    Threads:    6
    
  ==> Input File <==

--------------------------------------------------------------------------
MEMORY 60 GB

molecule dimer {
-1 1
F      0.000000     0.000000     0.000000
--
0 1
O      2.567370    -0.022237     0.000450
H      1.570237    -0.051088     0.000135
H      2.745287     0.918427     0.000641
O     -1.266676     2.233096     0.000390
H     -0.742110     1.384616     0.000221
H     -2.169908     1.915777     0.000517
O     -1.297827    -2.215389     0.000764
H     -0.826560    -1.336207    -0.000029
H     -0.570574    -2.837902     0.010786

units ang
no_reorient
no_com
symmetry c1
}

set {
basis        aug-cc-pVTZ
scf_type     df
}

energy("mp2", bsse_type="cp")
--------------------------------------------------------------------------

  Memory set to  55.879 GiB by Python driver.

Scratch directory: /scratch/

  //>>>>>>>>>>>>>>>>>>>>>>>>>>>>>>>>>>>>>//
  // ManyBody Setup: N-Body Levels [1, 2]//
  //<<<<<<<<<<<<<<<<<<<<<<<<<<<<<<<<<<<<<//

        Number of 1-body computations:     2
        Number of 2-body computations:     1

    -----------------------------------------------------------------------
          Psi4: An Open-Source Ab Initio Electronic Structure Package
                               Psi4 1.9 release

                         Git: Rev {} zzzzzzz 


    D. G. A. Smith, L. A. Burns, A. C. Simmonett, R. M. Parrish,
    M. C. Schieber, R. Galvelis, P. Kraus, H. Kruse, R. Di Remigio,
    A. Alenaizan, A. M. James, S. Lehtola, J. P. Misiewicz, M. Scheurer,
    R. A. Shaw, J. B. Schriber, Y. Xie, Z. L. Glick, D. A. Sirianni,
    J. S. O'Brien, J. M. Waldrop, A. Kumar, E. G. Hohenstein,
    B. P. Pritchard, B. R. Brooks, H. F. Schaefer III, A. Yu. Sokolov,
    K. Patkowski, A. E. DePrince III, U. Bozkaya, R. A. King,
    F. A. Evangelista, J. M. Turney, T. D. Crawford, C. D. Sherrill,
    J. Chem. Phys. 152(18) 184108 (2020). https://doi.org/10.1063/5.0006002

                            Additional Code Authors
    E. T. Seidl, C. L. Janssen, E. F. Valeev, M. L. Leininger,
    J. F. Gonthier, R. M. Richard, H. R. McAlexander, M. Saitow, X. Wang,
    P. Verma, M. H. Lechner, A. Jiang, S. Behnle, A. G. Heide,
    M. F. Herbst, and D. L. Poole

             Previous Authors, Complete List of Code Contributors,
                       and Citations for Specific Modules
    https://github.com/psi4/psi4/blob/master/codemeta.json
    https://github.com/psi4/psi4/graphs/contributors
    http://psicode.org/psi4manual/master/introduction.html#citing-psifour

    -----------------------------------------------------------------------


    Psi4 started on: Monday, 01 January 2024 05:54PM

    Process ID: 318267
    Host:       moses-razer
    PSIDATADIR: /home/kchung25/anaconda3/envs/psi4_19/share/psi4
    Memory:     55.9 GiB
    Threads:    6
    
  ==> Input QCSchema <==

--------------------------------------------------------------------------
{'driver': 'energy',
 'extras': {'psiapi': True, 'wfn_qcvars_only': True},
 'id': None,
 'keywords': {'SCF_TYPE': 'DF', 'function_kwargs': {}},
 'model': {'basis': 'aug-cc-pvtz', 'method': 'mp2'},
 'molecule': {'atom_labels': ['', '', '', '', '', '', '', '', '', ''],
              'atomic_numbers': [9, 8, 1, 1, 8, 1, 1, 8, 1, 1],
              'extras': {},
              'fix_com': True,
              'fix_orientation': True,
              'fix_symmetry': 'c1',
              'fragment_charges': [0.0, 0.0],
              'fragment_multiplicities': [1, 1],
              'fragments': [[0], [1, 2, 3, 4, 5, 6, 7, 8, 9]],
              'geometry': [0.0, 0.0, 0.0, 4.851626162716664, -0.04202183985180572, 0.0008503767564560226,
                           2.9673178820605237, -0.09654232829738953, 0.0002551130269368068, 5.187840565779744,
                           1.7355754962258567, 0.0012113144464184677, -2.39367072969042, 4.219939851855375,
                           0.000736993188928553, -1.4023846549635086, 2.6165450289269163, 0.00041762947372618,
                           -4.100531837439945, 3.620293847451222, 0.0009769884068616971, -2.452537588224557,
                           -4.186478471351893, 0.0014437507598497807, -1.5619720262584225, -2.5250652769196282,
                           -5.480205763827702e-05, -1.078228594306975, -5.3628575508890215, 0.020382585989188136],
              'mass_numbers': [19, 16, 1, 1, 16, 1, 1, 16, 1, 1],
              'masses': [18.99840316273, 15.99491461957, 1.00782503223, 1.00782503223, 15.99491461957, 1.00782503223,
                         1.00782503223, 15.99491461957, 1.00782503223, 1.00782503223],
              'molecular_charge': 0.0,
              'molecular_multiplicity': 1,
              'name': 'dimer',
              'provenance': {'creator': 'QCElemental',
                             'routine': 'qcelemental.molparse.from_string',
                             'version': '0.27.1'},
              'real': [False, True, True, True, True, True, True, True, True, True],
              'schema_name': 'qcschema_molecule',
              'schema_version': 2,
              'symbols': ['F', 'O', 'H', 'H', 'O', 'H', 'H', 'O', 'H', 'H'],
              'validated': True},
 'protocols': {'stdout': True},
 'provenance': {'creator': 'QCElemental', 'routine': 'qcelemental.models.results', 'version': '0.27.1'},
 'schema_name': 'qcschema_input',
 'schema_version': 1}
--------------------------------------------------------------------------

Scratch directory: /scratch/
   => Libint2 <=

    Primary   basis highest AM E, G, H:  5, 4, 3
    Auxiliary basis highest AM E, G, H:  6, 5, 4
    Onebody   basis highest AM E, G, H:  6, 5, 4
    Solid Harmonics ordering:            gaussian

*** tstart() called on moses-razer
*** at Mon Jan  1 17:54:21 2024

   => Loading Basis Set <=

    Name: AUG-CC-PVTZ
    Role: ORBITAL
    Keyword: BASIS
    atoms 1              entry F          line   377 file /home/kchung25/anaconda3/envs/p415env/share/psi4/basis/aug-cc-pvtz.gbs 
    atoms 2, 5, 8        entry O          line   331 file /home/kchung25/anaconda3/envs/p415env/share/psi4/basis/aug-cc-pvtz.gbs 
    atoms 3-4, 6-7, 9-10 entry H          line    40 file /home/kchung25/anaconda3/envs/p415env/share/psi4/basis/aug-cc-pvtz.gbs 


         ---------------------------------------------------------
                                   SCF
               by Justin Turney, Rob Parrish, Andy Simmonett
                          and Daniel G. A. Smith
                              RHF Reference
                        6 Threads,  57220 MiB Core
         ---------------------------------------------------------

  ==> Geometry <==

    Molecular point group: c1
    Full point group: C1

    Geometry (in Bohr), charge = 0, multiplicity = 1:

       Center              X                  Y                   Z               Mass       
    ------------   -----------------  -----------------  -----------------  -----------------
      Gh(F)           0.000000000000     0.000000000000     0.000000000000    18.998403162730
         O            4.851626162717    -0.042021839852     0.000850376756    15.994914619570
         H            2.967317882061    -0.096542328297     0.000255113027     1.007825032230
         H            5.187840565780     1.735575496226     0.001211314446     1.007825032230
         O           -2.393670729690     4.219939851855     0.000736993189    15.994914619570
         H           -1.402384654964     2.616545028927     0.000417629474     1.007825032230
         H           -4.100531837440     3.620293847451     0.000976988407     1.007825032230
         O           -2.452537588225    -4.186478471352     0.001443750760    15.994914619570
         H           -1.561972026258    -2.525065276920    -0.000054802058     1.007825032230
         H           -1.078228594307    -5.362857550889     0.020382585989     1.007825032230

  Running in c1 symmetry.

  Rotational constants: A =      0.09670  B =      0.09645  C =      0.04829 [cm^-1]
  Rotational constants: A =   2899.01029  B =   2891.59739  C =   1447.65056 [MHz]
  Nuclear repulsion =   64.126100882071540

  Charge       = 0
  Multiplicity = 1
  Electrons    = 30
  Nalpha       = 15
  Nbeta        = 15

  ==> Algorithm <==

  SCF Algorithm Type is DF.
  DIIS enabled.
  MOM disabled.
  Fractional occupation disabled.
  Guess Type is SAD.
  Energy threshold   = 1.00e-08
  Density threshold  = 1.00e-08
  Integral threshold = 1.00e-12

  ==> Primary Basis <==

  Basis Set: AUG-CC-PVTZ
    Blend: AUG-CC-PVTZ
    Number of shells: 110
    Number of basis functions: 322
    Number of Cartesian functions: 370
    Spherical Harmonics?: true
    Max angular momentum: 3

   => Loading Basis Set <=

    Name: (AUG-CC-PVTZ AUX)
    Role: JKFIT
    Keyword: DF_BASIS_SCF
    atoms 1              entry F          line   348 file /home/kchung25/anaconda3/envs/p415env/share/psi4/basis/aug-cc-pvtz-jkfit.gbs 
    atoms 2, 5, 8        entry O          line   286 file /home/kchung25/anaconda3/envs/p415env/share/psi4/basis/aug-cc-pvtz-jkfit.gbs 
    atoms 3-4, 6-7, 9-10 entry H          line    70 file /home/kchung25/anaconda3/envs/p415env/share/psi4/basis/aug-cc-pvtz-jkfit.gbs 

  ==> Integral Setup <==

  DFHelper Memory: AOs need 0.523 GiB; user supplied 41.910 GiB. 
  Using in-core AOs.

  ==> MemDFJK: Density-Fitted J/K Matrices <==

    J tasked:                   Yes
    K tasked:                   Yes
    wK tasked:                   No
    OpenMP threads:               6
    Memory [MiB]:             42915
    Algorithm:                 Core
    Schwarz Cutoff:           1E-12
    Mask sparsity (%):       7.5595
    Fitting Condition:        1E-10

   => Auxiliary Basis Set <=

  Basis Set: (AUG-CC-PVTZ AUX)
    Blend: AUG-CC-PVTZ-JKFIT
    Number of shells: 204
    Number of basis functions: 692
    Number of Cartesian functions: 854
    Spherical Harmonics?: true
    Max angular momentum: 4

  Minimum eigenvalue in the overlap matrix is 1.7924252469E-04.
  Reciprocal condition number of the overlap matrix is 1.7239919450E-05.
    Using symmetric orthogonalization.

  ==> Pre-Iterations <==

  SCF Guess: Superposition of Atomic Densities via on-the-fly atomic UHF (no occupation information).

   -------------------------
    Irrep   Nso     Nmo    
   -------------------------
     A        322     322 
   -------------------------
    Total     322     322
   -------------------------

  ==> Iterations <==

                           Total Energy        Delta E     RMS |[F,P]|

   @DF-RHF iter SAD:  -226.40014613841851   -2.26400e+02   0.00000e+00 
   @DF-RHF iter   1:  -227.90881774422647   -1.50867e+00   2.51650e-03 ADIIS/DIIS
   @DF-RHF iter   2:  -228.06605631978377   -1.57239e-01   1.76184e-03 ADIIS/DIIS
   @DF-RHF iter   3:  -228.16682650574671   -1.00770e-01   1.22035e-04 ADIIS/DIIS
   @DF-RHF iter   4:  -228.16812485161847   -1.29835e-03   2.99912e-05 DIIS
   @DF-RHF iter   5:  -228.16821193341488   -8.70818e-05   6.97333e-06 DIIS
   @DF-RHF iter   6:  -228.16821918917248   -7.25576e-06   1.49235e-06 DIIS
   @DF-RHF iter   7:  -228.16821955038802   -3.61216e-07   2.72988e-07 DIIS
   @DF-RHF iter   8:  -228.16821956036623   -9.97821e-09   5.86219e-08 DIIS
   @DF-RHF iter   9:  -228.16821956074682   -3.80595e-10   1.40808e-08 DIIS
   @DF-RHF iter  10:  -228.16821956077112   -2.43006e-11   4.94229e-09 DIIS
  Energy and wave function converged.


  ==> Post-Iterations <==

    Orbital Energies [Eh]
    ---------------------

    Doubly Occupied:                                                      

       1A    -20.588781     2A    -20.588765     3A    -20.588747  
       4A     -1.362369     5A     -1.361863     6A     -1.361847  
       7A     -0.722919     8A     -0.718936     9A     -0.718922  
      10A     -0.603576    11A     -0.600416    12A     -0.600396  
      13A     -0.526555    14A     -0.525656    15A     -0.525638  

    Virtual:                                                              

      16A      0.015544    17A      0.038566    18A      0.038610  
      19A      0.059596    20A      0.074844    21A      0.074896  
      22A      0.103903    23A      0.107712    24A      0.140169  
      25A      0.140230    26A      0.162793    27A      0.162850  
      28A      0.173070    29A      0.184855    30A      0.188766  
      31A      0.192249    32A      0.192302    33A      0.208636  
      34A      0.208725    35A      0.213207    36A      0.260187  
      37A      0.260261    38A      0.263098    39A      0.263296  
      40A      0.284957    41A      0.285070    42A      0.300626  
      43A      0.301689    44A      0.348508    45A      0.348590  
      46A      0.353058    47A      0.361439    48A      0.361537  
      49A      0.399663    50A      0.399671    51A      0.418283  
      52A      0.426146    53A      0.451853    54A      0.451997  
      55A      0.459596    56A      0.469818    57A      0.469923  
      58A      0.535654    59A      0.577585    60A      0.577669  
      61A      0.588970    62A      0.645402    63A      0.665766  
      64A      0.666020    65A      0.696348    66A      0.697853  
      67A      0.708346    68A      0.708382    69A      0.723972  
      70A      0.731937    71A      0.737777    72A      0.737843  
      73A      0.743496    74A      0.743751    75A      0.763761  
      76A      0.777852    77A      0.811700    78A      0.811907  
      79A      0.824253    80A      0.824454    81A      0.860361  
      82A      0.860493    83A      0.907686    84A      0.907828  
      85A      0.923090    86A      0.923189    87A      0.929848  
      88A      0.947533    89A      0.947643    90A      0.948122  
      91A      0.955333    92A      0.955650    93A      0.963674  
      94A      0.974921    95A      0.987201    96A      1.013912  
      97A      1.014048    98A      1.022688    99A      1.022835  
     100A      1.029847   101A      1.038747   102A      1.090760  
     103A      1.092167   104A      1.092290   105A      1.122509  
     106A      1.122918   107A      1.130375   108A      1.192576  
     109A      1.193199   110A      1.220958   111A      1.221308  
     112A      1.221642   113A      1.261708   114A      1.262145  
     115A      1.298818   116A      1.322962   117A      1.332907  
     118A      1.333115   119A      1.425236   120A      1.433599  
     121A      1.441221   122A      1.441572   123A      1.497652  
     124A      1.498094   125A      1.533999   126A      1.534098  
     127A      1.538068   128A      1.556524   129A      1.610652  
     130A      1.610803   131A      1.612686   132A      1.651651  
     133A      1.651968   134A      1.661504   135A      1.693283  
     136A      1.812976   137A      1.813530   138A      1.861154  
     139A      1.861555   140A      1.945041   141A      1.945238  
     142A      1.975454   143A      2.013582   144A      2.041098  
     145A      2.041224   146A      2.077818   147A      2.181059  
     148A      2.181316   149A      2.280300   150A      2.280365  
     151A      2.281208   152A      2.328969   153A      2.396572  
     154A      2.412932   155A      2.413117   156A      2.438002  
     157A      2.438181   158A      2.453585   159A      2.453747  
     160A      2.474997   161A      2.481913   162A      2.500059  
     163A      2.500299   164A      2.509661   165A      2.525368  
     166A      2.525603   167A      2.536111   168A      2.651053  
     169A      2.651159   170A      2.653748   171A      2.705185  
     172A      2.705310   173A      2.729230   174A      2.747037  
     175A      2.747722   176A      2.747782   177A      2.807555  
     178A      2.807715   179A      2.833531   180A      2.856849  
     181A      2.903440   182A      2.903893   183A      2.904406  
     184A      2.904484   185A      3.015206   186A      3.015796  
     187A      3.085074   188A      3.200089   189A      3.211781  
     190A      3.295010   191A      3.295179   192A      3.420192  
     193A      3.420612   194A      3.520170   195A      3.618887  
     196A      3.739552   197A      3.739757   198A      3.781213  
     199A      3.855962   200A      3.864721   201A      3.865201  
     202A      4.023521   203A      4.023927   204A      4.053580  
     205A      4.053750   206A      4.054709   207A      4.095012  
     208A      4.095293   209A      4.148979   210A      4.170609  
     211A      4.189154   212A      4.189217   213A      4.226387  
     214A      4.240072   215A      4.240233   216A      4.248257  
     217A      4.295621   218A      4.299489   219A      4.299595  
     220A      4.311158   221A      4.311507   222A      4.377235  
     223A      4.377791   224A      4.378665   225A      4.378718  
     226A      4.382809   227A      4.454950   228A      4.459751  
     229A      4.460211   230A      4.478947   231A      4.506305  
     232A      4.506384   233A      4.562598   234A      4.594592  
     235A      4.595234   236A      4.675135   237A      4.809993  
     238A      4.810167   239A      4.880834   240A      5.103724  
     241A      5.103797   242A      5.119664   243A      5.173075  
     244A      5.173248   245A      5.180333   246A      5.264959  
     247A      5.265059   248A      5.313648   249A      5.313714  
     250A      5.356294   251A      5.407985   252A      5.533811  
     253A      5.533866   254A      5.559302   255A      5.561927  
     256A      5.562091   257A      5.676617   258A      5.910950  
     259A      5.911341   260A      6.070551   261A      6.233536  
     262A      6.233646   263A      6.275699   264A      6.522828  
     265A      6.551384   266A      6.551415   267A      6.724942  
     268A      6.725200   269A      6.749720   270A      6.970429  
     271A      6.970633   272A      6.977639   273A      7.136608  
     274A      7.141718   275A      7.141762   276A      7.262913  
     277A      7.262940   278A      7.279500   279A      7.288490  
     280A      7.288724   281A      7.319356   282A      7.322533  
     283A      7.322612   284A      7.353420   285A      7.414316  
     286A      7.414421   287A      7.461607   288A      7.462982  
     289A      7.494120   290A      7.494243   291A      7.700046  
     292A      7.700169   293A      7.713874   294A      7.927008  
     295A      7.927123   296A      7.954561   297A      8.026453  
     298A      8.026508   299A      8.097169   300A      8.837573  
     301A      8.863147   302A      8.863304   303A     10.409074  
     304A     10.458271   305A     10.459183   306A     10.461999  
     307A     10.502129   308A     10.502374   309A     10.851788  
     310A     12.476394   311A     13.101824   312A     13.102503  
     313A     13.444581   314A     13.444611   315A     13.466282  
     316A     14.426450   317A     14.846466   318A     14.846557  
     319A     16.544404   320A     16.544791   321A     16.888599  
     322A     76.291846  

    Final Occupation by Irrep:
              A 
    DOCC [    15 ]
    NA   [    15 ]
    NB   [    15 ]

  @DF-RHF Final Energy:  -228.16821956077112

   => Energetics <=

    Nuclear Repulsion Energy =             64.1261008820715404
    One-Electron Energy =                -441.7978667879038994
    Two-Electron Energy =                 149.5035463450612099
    Total Energy =                       -228.1682195607711208

Computation Completed


Properties will be evaluated at   0.000000,   0.000000,   0.000000 [a0]

Properties computed using the SCF density matrix


 Multipole Moments:

 ------------------------------------------------------------------------------------
     Multipole            Electronic (a.u.)      Nuclear  (a.u.)        Total (a.u.)
 ------------------------------------------------------------------------------------

 L = 1.  Multiply by 2.5417464519 to convert [e a0] to [Debye]
 Dipole X            :         -0.0548146            0.0553841            0.0005695
 Dipole Y            :          0.0822220           -0.0805345            0.0016875
 Dipole Z            :         -0.0414696            0.0474378            0.0059682
 Magnitude           :                                                    0.0062282

 ------------------------------------------------------------------------------------

*** tstop() called on moses-razer at Mon Jan  1 17:54:23 2024
Module time:
	user time   =      13.23 seconds =       0.22 minutes
	system time =       0.67 seconds =       0.01 minutes
	total time  =          2 seconds =       0.03 minutes
Total time:
	user time   =      13.23 seconds =       0.22 minutes
	system time =       0.67 seconds =       0.01 minutes
	total time  =          2 seconds =       0.03 minutes

*** tstart() called on moses-razer
*** at Mon Jan  1 17:54:23 2024


  //>>>>>>>>>>>>>>>>>>>>>>>>>>>>>>>>>>>//
  //               DFMP2               //
  //<<<<<<<<<<<<<<<<<<<<<<<<<<<<<<<<<<<//

   => Loading Basis Set <=

    Name: (AUG-CC-PVTZ AUX)
    Role: RIFIT
    Keyword: DF_BASIS_MP2
    atoms 1              entry F          line   322 file /home/kchung25/anaconda3/envs/p415env/share/psi4/basis/aug-cc-pvtz-ri.gbs 
    atoms 2, 5, 8        entry O          line   264 file /home/kchung25/anaconda3/envs/p415env/share/psi4/basis/aug-cc-pvtz-ri.gbs 
    atoms 3-4, 6-7, 9-10 entry H          line    30 file /home/kchung25/anaconda3/envs/p415env/share/psi4/basis/aug-cc-pvtz-ri.gbs 

	 --------------------------------------------------------
	                          DF-MP2                         
	      2nd-Order Density-Fitted Moller-Plesset Theory     
	              RMP2 Wavefunction,   6 Threads             
	                                                         
	        Rob Parrish, Justin Turney, Andy Simmonett,      
	           Ed Hohenstein, and C. David Sherrill          
	 --------------------------------------------------------

   => Auxiliary Basis Set <=

  Basis Set: (AUG-CC-PVTZ AUX)
    Blend: AUG-CC-PVTZ-RI
    Number of shells: 196
    Number of basis functions: 700
    Number of Cartesian functions: 874
    Spherical Harmonics?: true
    Max angular momentum: 4

	 --------------------------------------------------------
	                 NBF =   322, NAUX =   700
	 --------------------------------------------------------
	   CLASS    FOCC     OCC    AOCC    AVIR     VIR    FVIR
	   PAIRS       0      15      15     307     307       0
	 --------------------------------------------------------

	-----------------------------------------------------------
	 ==================> DF-MP2 Energies <==================== 
	-----------------------------------------------------------
	 Reference Energy          =    -228.1682195607711208 [Eh]
	 Singles Energy            =      -0.0000000000000000 [Eh]
	 Same-Spin Energy          =      -0.2067540355945157 [Eh]
	 Opposite-Spin Energy      =      -0.6522903775114104 [Eh]
	 Correlation Energy        =      -0.8590444131059261 [Eh]
	 Total Energy              =    -229.0272639738770408 [Eh]
	-----------------------------------------------------------
	 ================> DF-SCS-MP2 Energies <================== 
	-----------------------------------------------------------
	 SCS Same-Spin Scale       =       0.3333333333333333 [-]
	 SCS Opposite-Spin Scale   =       1.2000000000000000 [-]
	 SCS Same-Spin Energy      =      -0.0689180118648386 [Eh]
	 SCS Opposite-Spin Energy  =      -0.7827484530136924 [Eh]
	 SCS Correlation Energy    =      -0.8516664648785310 [Eh]
	 SCS Total Energy          =    -229.0198860256496403 [Eh]
	-----------------------------------------------------------


*** tstop() called on moses-razer at Mon Jan  1 17:54:24 2024
Module time:
	user time   =       4.84 seconds =       0.08 minutes
	system time =       0.22 seconds =       0.00 minutes
	total time  =          1 seconds =       0.02 minutes
Total time:
	user time   =      18.07 seconds =       0.30 minutes
	system time =       0.89 seconds =       0.01 minutes
	total time  =          3 seconds =       0.05 minutes

    Psi4 stopped on: Monday, 01 January 2024 05:54PM
    Psi4 wall time for execution: 0:00:03.58


    -----------------------------------------------------------------------
          Psi4: An Open-Source Ab Initio Electronic Structure Package
                               Psi4 1.9 release

                         Git: Rev {} zzzzzzz 


    D. G. A. Smith, L. A. Burns, A. C. Simmonett, R. M. Parrish,
    M. C. Schieber, R. Galvelis, P. Kraus, H. Kruse, R. Di Remigio,
    A. Alenaizan, A. M. James, S. Lehtola, J. P. Misiewicz, M. Scheurer,
    R. A. Shaw, J. B. Schriber, Y. Xie, Z. L. Glick, D. A. Sirianni,
    J. S. O'Brien, J. M. Waldrop, A. Kumar, E. G. Hohenstein,
    B. P. Pritchard, B. R. Brooks, H. F. Schaefer III, A. Yu. Sokolov,
    K. Patkowski, A. E. DePrince III, U. Bozkaya, R. A. King,
    F. A. Evangelista, J. M. Turney, T. D. Crawford, C. D. Sherrill,
    J. Chem. Phys. 152(18) 184108 (2020). https://doi.org/10.1063/5.0006002

                            Additional Code Authors
    E. T. Seidl, C. L. Janssen, E. F. Valeev, M. L. Leininger,
    J. F. Gonthier, R. M. Richard, H. R. McAlexander, M. Saitow, X. Wang,
    P. Verma, M. H. Lechner, A. Jiang, S. Behnle, A. G. Heide,
    M. F. Herbst, and D. L. Poole

             Previous Authors, Complete List of Code Contributors,
                       and Citations for Specific Modules
    https://github.com/psi4/psi4/blob/master/codemeta.json
    https://github.com/psi4/psi4/graphs/contributors
    http://psicode.org/psi4manual/master/introduction.html#citing-psifour

    -----------------------------------------------------------------------


    Psi4 started on: Monday, 01 January 2024 05:54PM

    Process ID: 318267
    Host:       moses-razer
    PSIDATADIR: /home/kchung25/anaconda3/envs/psi4_19/share/psi4
    Memory:     55.9 GiB
    Threads:    6
    
  ==> Input QCSchema <==

--------------------------------------------------------------------------
{'driver': 'energy',
 'extras': {'psiapi': True, 'wfn_qcvars_only': True},
 'id': None,
 'keywords': {'SCF_TYPE': 'DF', 'function_kwargs': {}},
 'model': {'basis': 'aug-cc-pvtz', 'method': 'mp2'},
 'molecule': {'atom_labels': ['', '', '', '', '', '', '', '', '', ''],
              'atomic_numbers': [9, 8, 1, 1, 8, 1, 1, 8, 1, 1],
              'extras': {},
              'fix_com': True,
              'fix_orientation': True,
              'fix_symmetry': 'c1',
              'fragment_charges': [-1.0, 0.0],
              'fragment_multiplicities': [1, 1],
              'fragments': [[0], [1, 2, 3, 4, 5, 6, 7, 8, 9]],
              'geometry': [0.0, 0.0, 0.0, 4.851626162716664, -0.04202183985180572, 0.0008503767564560226,
                           2.9673178820605237, -0.09654232829738953, 0.0002551130269368068, 5.187840565779744,
                           1.7355754962258567, 0.0012113144464184677, -2.39367072969042, 4.219939851855375,
                           0.000736993188928553, -1.4023846549635086, 2.6165450289269163, 0.00041762947372618,
                           -4.100531837439945, 3.620293847451222, 0.0009769884068616971, -2.452537588224557,
                           -4.186478471351893, 0.0014437507598497807, -1.5619720262584225, -2.5250652769196282,
                           -5.480205763827702e-05, -1.078228594306975, -5.3628575508890215, 0.020382585989188136],
              'mass_numbers': [19, 16, 1, 1, 16, 1, 1, 16, 1, 1],
              'masses': [18.99840316273, 15.99491461957, 1.00782503223, 1.00782503223, 15.99491461957, 1.00782503223,
                         1.00782503223, 15.99491461957, 1.00782503223, 1.00782503223],
              'molecular_charge': -1.0,
              'molecular_multiplicity': 1,
              'name': 'dimer',
              'provenance': {'creator': 'QCElemental',
                             'routine': 'qcelemental.molparse.from_string',
                             'version': '0.27.1'},
              'real': [True, False, False, False, False, False, False, False, False, False],
              'schema_name': 'qcschema_molecule',
              'schema_version': 2,
              'symbols': ['F', 'O', 'H', 'H', 'O', 'H', 'H', 'O', 'H', 'H'],
              'validated': True},
 'protocols': {'stdout': True},
 'provenance': {'creator': 'QCElemental', 'routine': 'qcelemental.models.results', 'version': '0.27.1'},
 'schema_name': 'qcschema_input',
 'schema_version': 1}
--------------------------------------------------------------------------

Scratch directory: /scratch/
   => Libint2 <=

    Primary   basis highest AM E, G, H:  5, 4, 3
    Auxiliary basis highest AM E, G, H:  6, 5, 4
    Onebody   basis highest AM E, G, H:  6, 5, 4
    Solid Harmonics ordering:            gaussian

*** tstart() called on moses-razer
*** at Mon Jan  1 17:54:24 2024

   => Loading Basis Set <=

    Name: AUG-CC-PVTZ
    Role: ORBITAL
    Keyword: BASIS
    atoms 1              entry F          line   377 file /home/kchung25/anaconda3/envs/p415env/share/psi4/basis/aug-cc-pvtz.gbs 
    atoms 2, 5, 8        entry O          line   331 file /home/kchung25/anaconda3/envs/p415env/share/psi4/basis/aug-cc-pvtz.gbs 
    atoms 3-4, 6-7, 9-10 entry H          line    40 file /home/kchung25/anaconda3/envs/p415env/share/psi4/basis/aug-cc-pvtz.gbs 


         ---------------------------------------------------------
                                   SCF
               by Justin Turney, Rob Parrish, Andy Simmonett
                          and Daniel G. A. Smith
                              RHF Reference
                        6 Threads,  57220 MiB Core
         ---------------------------------------------------------

  ==> Geometry <==

    Molecular point group: c1
    Full point group: C1

    Geometry (in Bohr), charge = -1, multiplicity = 1:

       Center              X                  Y                   Z               Mass       
    ------------   -----------------  -----------------  -----------------  -----------------
         F            0.000000000000     0.000000000000     0.000000000000    18.998403162730
      Gh(O)           4.851626162717    -0.042021839852     0.000850376756    15.994914619570
      Gh(H)           2.967317882061    -0.096542328297     0.000255113027     1.007825032230
      Gh(H)           5.187840565780     1.735575496226     0.001211314446     1.007825032230
      Gh(O)          -2.393670729690     4.219939851855     0.000736993189    15.994914619570
      Gh(H)          -1.402384654964     2.616545028927     0.000417629474     1.007825032230
      Gh(H)          -4.100531837440     3.620293847451     0.000976988407     1.007825032230
      Gh(O)          -2.452537588225    -4.186478471352     0.001443750760    15.994914619570
      Gh(H)          -1.561972026258    -2.525065276920    -0.000054802058     1.007825032230
      Gh(H)          -1.078228594307    -5.362857550889     0.020382585989     1.007825032230

  Running in c1 symmetry.

  Rotational constants: A =      0.09670  B =      0.09645  C =      0.04829 [cm^-1]
  Rotational constants: A =   2899.01029  B =   2891.59739  C =   1447.65056 [MHz]
  Nuclear repulsion =    0.000000000000000

  Charge       = -1
  Multiplicity = 1
  Electrons    = 10
  Nalpha       = 5
  Nbeta        = 5

  ==> Algorithm <==

  SCF Algorithm Type is DF.
  DIIS enabled.
  MOM disabled.
  Fractional occupation disabled.
  Guess Type is SAD.
  Energy threshold   = 1.00e-08
  Density threshold  = 1.00e-08
  Integral threshold = 1.00e-12

  ==> Primary Basis <==

  Basis Set: AUG-CC-PVTZ
    Blend: AUG-CC-PVTZ
    Number of shells: 110
    Number of basis functions: 322
    Number of Cartesian functions: 370
    Spherical Harmonics?: true
    Max angular momentum: 3

   => Loading Basis Set <=

    Name: (AUG-CC-PVTZ AUX)
    Role: JKFIT
    Keyword: DF_BASIS_SCF
    atoms 1              entry F          line   348 file /home/kchung25/anaconda3/envs/p415env/share/psi4/basis/aug-cc-pvtz-jkfit.gbs 
    atoms 2, 5, 8        entry O          line   286 file /home/kchung25/anaconda3/envs/p415env/share/psi4/basis/aug-cc-pvtz-jkfit.gbs 
    atoms 3-4, 6-7, 9-10 entry H          line    70 file /home/kchung25/anaconda3/envs/p415env/share/psi4/basis/aug-cc-pvtz-jkfit.gbs 

  ==> Integral Setup <==

  DFHelper Memory: AOs need 0.523 GiB; user supplied 41.910 GiB. 
  Using in-core AOs.

  ==> MemDFJK: Density-Fitted J/K Matrices <==

    J tasked:                   Yes
    K tasked:                   Yes
    wK tasked:                   No
    OpenMP threads:               6
    Memory [MiB]:             42915
    Algorithm:                 Core
    Schwarz Cutoff:           1E-12
    Mask sparsity (%):       7.5595
    Fitting Condition:        1E-10

   => Auxiliary Basis Set <=

  Basis Set: (AUG-CC-PVTZ AUX)
    Blend: AUG-CC-PVTZ-JKFIT
    Number of shells: 204
    Number of basis functions: 692
    Number of Cartesian functions: 854
    Spherical Harmonics?: true
    Max angular momentum: 4

  Minimum eigenvalue in the overlap matrix is 1.7924252469E-04.
  Reciprocal condition number of the overlap matrix is 1.7239919450E-05.
    Using symmetric orthogonalization.

  ==> Pre-Iterations <==

  SCF Guess: Superposition of Atomic Densities via on-the-fly atomic UHF (no occupation information).

   -------------------------
    Irrep   Nso     Nmo    
   -------------------------
     A        322     322 
   -------------------------
    Total     322     322
   -------------------------

  ==> Iterations <==

                           Total Energy        Delta E     RMS |[F,P]|

   @DF-RHF iter SAD:   -98.82535146786324   -9.88254e+01   0.00000e+00 
   @DF-RHF iter   1:   -99.33792011561592   -5.12569e-01   1.69595e-03 ADIIS/DIIS
   @DF-RHF iter   2:   -99.37323408546590   -3.53140e-02   1.65549e-03 ADIIS/DIIS
   @DF-RHF iter   3:   -99.45096495537102   -7.77309e-02   5.74383e-05 DIIS
   @DF-RHF iter   4:   -99.45103854409443   -7.35887e-05   2.02935e-05 DIIS
   @DF-RHF iter   5:   -99.45104936111561   -1.08170e-05   1.35448e-06 DIIS
   @DF-RHF iter   6:   -99.45104947237192   -1.11256e-07   1.34417e-07 DIIS
   @DF-RHF iter   7:   -99.45104947392760   -1.55568e-09   2.28804e-08 DIIS
   @DF-RHF iter   8:   -99.45104947401842   -9.08216e-11   6.12172e-09 DIIS
  Energy and wave function converged.


  ==> Post-Iterations <==

    Orbital Energies [Eh]
    ---------------------

    Doubly Occupied:                                                      

       1A    -25.833730     2A     -1.075928     3A     -0.180952  
       4A     -0.180952     5A     -0.180862  

    Virtual:                                                              

       6A      0.136660     7A      0.142248     8A      0.142261  
       9A      0.177184    10A      0.177207    11A      0.206038  
      12A      0.251886    13A      0.275297    14A      0.275339  
      15A      0.278841    16A      0.279667    17A      0.279679  
      18A      0.289037    19A      0.301518    20A      0.301564  
      21A      0.319615    22A      0.340126    23A      0.340183  
      24A      0.422231    25A      0.425584    26A      0.425654  
      27A      0.434064    28A      0.434133    29A      0.461041  
      30A      0.463111    31A      0.463214    32A      0.501320  
      33A      0.514752    34A      0.521508    35A      0.521524  
      36A      0.530714    37A      0.565681    38A      0.565748  
      39A      0.569527    40A      0.569637    41A      0.578245  
      42A      0.601993    43A      0.616056    44A      0.616070  
      45A      0.639935    46A      0.703114    47A      0.730251  
      48A      0.730435    49A      0.777344    50A      0.787884  
      51A      0.788049    52A      0.845888    53A      0.845942  
      54A      0.904453    55A      0.908210    56A      0.936060  
      57A      0.936298    58A      0.973152    59A      0.973211  
      60A      0.975250    61A      0.981857    62A      0.981905  
      63A      0.984146    64A      0.993736    65A      0.993880  
      66A      1.018151    67A      1.033292    68A      1.033402  
      69A      1.055811    70A      1.055900    71A      1.066380  
      72A      1.097180    73A      1.097448    74A      1.099664  
      75A      1.111605    76A      1.134393    77A      1.134756  
      78A      1.174035    79A      1.175718    80A      1.175821  
      81A      1.175943    82A      1.176121    83A      1.180237  
      84A      1.194165    85A      1.194337    86A      1.202358  
      87A      1.230977    88A      1.256384    89A      1.256875  
      90A      1.304151    91A      1.308486    92A      1.308592  
      93A      1.332228    94A      1.354349    95A      1.354850  
      96A      1.387565    97A      1.387799    98A      1.446895  
      99A      1.447098   100A      1.533920   101A      1.534231  
     102A      1.536014   103A      1.536500   104A      1.591645  
     105A      1.604677   106A      1.604815   107A      1.607580  
     108A      1.624190   109A      1.678633   110A      1.743892  
     111A      1.744210   112A      1.865095   113A      1.865369  
     114A      1.876274   115A      1.892892   116A      1.892976  
     117A      1.897329   118A      1.941242   119A      1.957556  
     120A      1.972507   121A      1.972798   122A      1.997227  
     123A      2.038350   124A      2.038501   125A      2.044992  
     126A      2.045577   127A      2.085811   128A      2.085906  
     129A      2.115004   130A      2.136011   131A      2.140326  
     132A      2.140390   133A      2.163370   134A      2.291748  
     135A      2.292499   136A      2.416950   137A      2.417558  
     138A      2.507424   139A      2.635944   140A      2.642967  
     141A      2.643010   142A      2.647408   143A      2.647575  
     144A      2.648706   145A      2.718215   146A      2.718236  
     147A      2.731462   148A      2.737093   149A      2.737342  
     150A      2.780772   151A      2.781233   152A      2.801218  
     153A      2.855748   154A      2.868164   155A      2.868449  
     156A      2.884437   157A      2.884622   158A      2.887835  
     159A      2.888067   160A      2.967420   161A      2.967769  
     162A      3.020641   163A      3.060674   164A      3.060859  
     165A      3.167180   166A      3.167567   167A      3.195873  
     168A      3.285219   169A      3.381257   170A      3.381288  
     171A      3.391260   172A      3.391307   173A      3.401694  
     174A      3.403838   175A      3.471096   176A      3.471460  
     177A      3.471526   178A      3.549943   179A      3.550161  
     180A      3.550946   181A      3.691421   182A      3.691752  
     183A      3.716898   184A      3.767581   185A      3.767737  
     186A      3.796660   187A      3.803254   188A      3.803651  
     189A      3.827803   190A      3.915902   191A      3.916130  
     192A      3.943419   193A      3.988392   194A      3.990879  
     195A      3.991069   196A      4.059593   197A      4.158429  
     198A      4.158848   199A      4.487244   200A      4.507351  
     201A      4.508084   202A      4.609728   203A      4.609853  
     204A      4.643586   205A      4.669835   206A      4.676097  
     207A      4.676181   208A      4.812167   209A      4.820049  
     210A      4.840214   211A      4.840310   212A      4.865222  
     213A      4.865947   214A      4.972403   215A      4.972676  
     216A      5.008155   217A      5.046021   218A      5.053951  
     219A      5.054015   220A      5.150765   221A      5.151067  
     222A      5.246286   223A      5.299535   224A      5.314302  
     225A      5.314406   226A      5.397976   227A      5.398180  
     228A      5.525979   229A      5.594709   230A      5.595364  
     231A      5.643078   232A      5.827579   233A      5.827603  
     234A      5.828691   235A      5.831217   236A      5.831292  
     237A      5.918713   238A      5.919081   239A      5.922023  
     240A      6.014663   241A      6.031123   242A      6.180686  
     243A      6.180918   244A      6.217654   245A      6.441684  
     246A      6.442129   247A      6.600158   248A      6.600470  
     249A      6.734516   250A      6.741197   251A      6.741347  
     252A      6.810613   253A      6.832973   254A      6.943095  
     255A      6.943474   256A      7.268483   257A      7.302369  
     258A      7.302498   259A      7.889632   260A      7.889878  
     261A      7.919815   262A      8.087706   263A      8.095253  
     264A      8.095354   265A      8.237728   266A      8.239268  
     267A      8.239284   268A      8.402655   269A      8.411925  
     270A      8.412020   271A      8.495608   272A      8.495626  
     273A      8.497848   274A      8.980574   275A      9.001363  
     276A      9.001568   277A      9.099206   278A      9.099481  
     279A      9.113389   280A      9.675349   281A      9.678267  
     282A      9.679073   283A      9.747161   284A      9.747343  
     285A      9.833150   286A      9.905464   287A      9.914209  
     288A      9.914279   289A     10.041197   290A     10.041511  
     291A     10.069032   292A     10.069366   293A     10.072535  
     294A     10.102987   295A     10.190835   296A     10.267300  
     297A     10.298610   298A     10.298652   299A     10.373858  
     300A     10.374036   301A     10.597592   302A     10.597930  
     303A     10.706362   304A     11.495882   305A     11.540314  
     306A     11.540651   307A     11.942979   308A     11.984355  
     309A     11.984469   310A     12.361631   311A     12.472948  
     312A     12.473155   313A     13.742256   314A     13.804530  
     315A     13.804756   316A     14.180188   317A     14.180293  
     318A     14.189289   319A     16.960047   320A     66.205291  
     321A     66.207319   322A     66.496434  

    Final Occupation by Irrep:
              A 
    DOCC [     5 ]
    NA   [     5 ]
    NB   [     5 ]

  @DF-RHF Final Energy:   -99.45104947401842

   => Energetics <=

    Nuclear Repulsion Energy =              0.0000000000000000
    One-Electron Energy =                -143.9972509008750876
    Two-Electron Energy =                  44.5462014268566691
    Total Energy =                        -99.4510494740184186

Computation Completed


Properties will be evaluated at   0.000000,   0.000000,   0.000000 [a0]

Properties computed using the SCF density matrix


 Multipole Moments:

 ------------------------------------------------------------------------------------
     Multipole            Electronic (a.u.)      Nuclear  (a.u.)        Total (a.u.)
 ------------------------------------------------------------------------------------

 L = 1.  Multiply by 2.5417464519 to convert [e a0] to [Debye]
 Dipole X            :          0.0000001            0.0000000            0.0000001
 Dipole Y            :         -0.0000006            0.0000000           -0.0000006
 Dipole Z            :          0.0000072            0.0000000            0.0000072
 Magnitude           :                                                    0.0000073

 ------------------------------------------------------------------------------------

*** tstop() called on moses-razer at Mon Jan  1 17:54:27 2024
Module time:
	user time   =      12.15 seconds =       0.20 minutes
	system time =       0.44 seconds =       0.01 minutes
	total time  =          3 seconds =       0.05 minutes
Total time:
	user time   =      30.63 seconds =       0.51 minutes
	system time =       1.33 seconds =       0.02 minutes
	total time  =          6 seconds =       0.10 minutes

*** tstart() called on moses-razer
*** at Mon Jan  1 17:54:27 2024


  //>>>>>>>>>>>>>>>>>>>>>>>>>>>>>>>>>>>//
  //               DFMP2               //
  //<<<<<<<<<<<<<<<<<<<<<<<<<<<<<<<<<<<//

   => Loading Basis Set <=

    Name: (AUG-CC-PVTZ AUX)
    Role: RIFIT
    Keyword: DF_BASIS_MP2
    atoms 1              entry F          line   322 file /home/kchung25/anaconda3/envs/p415env/share/psi4/basis/aug-cc-pvtz-ri.gbs 
    atoms 2, 5, 8        entry O          line   264 file /home/kchung25/anaconda3/envs/p415env/share/psi4/basis/aug-cc-pvtz-ri.gbs 
    atoms 3-4, 6-7, 9-10 entry H          line    30 file /home/kchung25/anaconda3/envs/p415env/share/psi4/basis/aug-cc-pvtz-ri.gbs 

	 --------------------------------------------------------
	                          DF-MP2                         
	      2nd-Order Density-Fitted Moller-Plesset Theory     
	              RMP2 Wavefunction,   6 Threads             
	                                                         
	        Rob Parrish, Justin Turney, Andy Simmonett,      
	           Ed Hohenstein, and C. David Sherrill          
	 --------------------------------------------------------

   => Auxiliary Basis Set <=

  Basis Set: (AUG-CC-PVTZ AUX)
    Blend: AUG-CC-PVTZ-RI
    Number of shells: 196
    Number of basis functions: 700
    Number of Cartesian functions: 874
    Spherical Harmonics?: true
    Max angular momentum: 4

	 --------------------------------------------------------
	                 NBF =   322, NAUX =   700
	 --------------------------------------------------------
	   CLASS    FOCC     OCC    AOCC    AVIR     VIR    FVIR
	   PAIRS       0       5       5     317     317       0
	 --------------------------------------------------------

	-----------------------------------------------------------
	 ==================> DF-MP2 Energies <==================== 
	-----------------------------------------------------------
	 Reference Energy          =     -99.4510494740184186 [Eh]
	 Singles Energy            =      -0.0000000000000000 [Eh]
	 Same-Spin Energy          =      -0.0819657962746931 [Eh]
	 Opposite-Spin Energy      =      -0.2299877591872313 [Eh]
	 Correlation Energy        =      -0.3119535554619244 [Eh]
	 Total Energy              =     -99.7630030294803447 [Eh]
	-----------------------------------------------------------
	 ================> DF-SCS-MP2 Energies <================== 
	-----------------------------------------------------------
	 SCS Same-Spin Scale       =       0.3333333333333333 [-]
	 SCS Opposite-Spin Scale   =       1.2000000000000000 [-]
	 SCS Same-Spin Energy      =      -0.0273219320915644 [Eh]
	 SCS Opposite-Spin Energy  =      -0.2759853110246775 [Eh]
	 SCS Correlation Energy    =      -0.3033072431162419 [Eh]
	 SCS Total Energy          =     -99.7543567171346552 [Eh]
	-----------------------------------------------------------


*** tstop() called on moses-razer at Mon Jan  1 17:54:28 2024
Module time:
	user time   =       4.24 seconds =       0.07 minutes
	system time =       0.19 seconds =       0.00 minutes
	total time  =          1 seconds =       0.02 minutes
Total time:
	user time   =      34.88 seconds =       0.58 minutes
	system time =       1.52 seconds =       0.03 minutes
	total time  =          7 seconds =       0.12 minutes

    Psi4 stopped on: Monday, 01 January 2024 05:54PM
    Psi4 wall time for execution: 0:00:03.24


    -----------------------------------------------------------------------
          Psi4: An Open-Source Ab Initio Electronic Structure Package
                               Psi4 1.9 release

                         Git: Rev {} zzzzzzz 


    D. G. A. Smith, L. A. Burns, A. C. Simmonett, R. M. Parrish,
    M. C. Schieber, R. Galvelis, P. Kraus, H. Kruse, R. Di Remigio,
    A. Alenaizan, A. M. James, S. Lehtola, J. P. Misiewicz, M. Scheurer,
    R. A. Shaw, J. B. Schriber, Y. Xie, Z. L. Glick, D. A. Sirianni,
    J. S. O'Brien, J. M. Waldrop, A. Kumar, E. G. Hohenstein,
    B. P. Pritchard, B. R. Brooks, H. F. Schaefer III, A. Yu. Sokolov,
    K. Patkowski, A. E. DePrince III, U. Bozkaya, R. A. King,
    F. A. Evangelista, J. M. Turney, T. D. Crawford, C. D. Sherrill,
    J. Chem. Phys. 152(18) 184108 (2020). https://doi.org/10.1063/5.0006002

                            Additional Code Authors
    E. T. Seidl, C. L. Janssen, E. F. Valeev, M. L. Leininger,
    J. F. Gonthier, R. M. Richard, H. R. McAlexander, M. Saitow, X. Wang,
    P. Verma, M. H. Lechner, A. Jiang, S. Behnle, A. G. Heide,
    M. F. Herbst, and D. L. Poole

             Previous Authors, Complete List of Code Contributors,
                       and Citations for Specific Modules
    https://github.com/psi4/psi4/blob/master/codemeta.json
    https://github.com/psi4/psi4/graphs/contributors
    http://psicode.org/psi4manual/master/introduction.html#citing-psifour

    -----------------------------------------------------------------------


    Psi4 started on: Monday, 01 January 2024 05:54PM

    Process ID: 318267
    Host:       moses-razer
    PSIDATADIR: /home/kchung25/anaconda3/envs/psi4_19/share/psi4
    Memory:     55.9 GiB
    Threads:    6
    
  ==> Input QCSchema <==

--------------------------------------------------------------------------
{'driver': 'energy',
 'extras': {'psiapi': True, 'wfn_qcvars_only': True},
 'id': None,
 'keywords': {'SCF_TYPE': 'DF', 'function_kwargs': {}},
 'model': {'basis': 'aug-cc-pvtz', 'method': 'mp2'},
 'molecule': {'atom_labels': ['', '', '', '', '', '', '', '', '', ''],
              'atomic_numbers': [9, 8, 1, 1, 8, 1, 1, 8, 1, 1],
              'extras': {},
              'fix_com': True,
              'fix_orientation': True,
              'fix_symmetry': 'c1',
              'fragment_charges': [-1.0, 0.0],
              'fragment_multiplicities': [1, 1],
              'fragments': [[0], [1, 2, 3, 4, 5, 6, 7, 8, 9]],
              'geometry': [0.0, 0.0, 0.0, 4.851626162716664, -0.04202183985180572, 0.0008503767564560226,
                           2.9673178820605237, -0.09654232829738953, 0.0002551130269368068, 5.187840565779744,
                           1.7355754962258567, 0.0012113144464184677, -2.39367072969042, 4.219939851855375,
                           0.000736993188928553, -1.4023846549635086, 2.6165450289269163, 0.00041762947372618,
                           -4.100531837439945, 3.620293847451222, 0.0009769884068616971, -2.452537588224557,
                           -4.186478471351893, 0.0014437507598497807, -1.5619720262584225, -2.5250652769196282,
                           -5.480205763827702e-05, -1.078228594306975, -5.3628575508890215, 0.020382585989188136],
              'mass_numbers': [19, 16, 1, 1, 16, 1, 1, 16, 1, 1],
              'masses': [18.99840316273, 15.99491461957, 1.00782503223, 1.00782503223, 15.99491461957, 1.00782503223,
                         1.00782503223, 15.99491461957, 1.00782503223, 1.00782503223],
              'molecular_charge': -1.0,
              'molecular_multiplicity': 1,
              'name': 'dimer',
              'provenance': {'creator': 'QCElemental',
                             'routine': 'qcelemental.molparse.from_string',
                             'version': '0.27.1'},
              'real': [True, True, True, True, True, True, True, True, True, True],
              'schema_name': 'qcschema_molecule',
              'schema_version': 2,
              'symbols': ['F', 'O', 'H', 'H', 'O', 'H', 'H', 'O', 'H', 'H'],
              'validated': True},
 'protocols': {'stdout': True},
 'provenance': {'creator': 'QCElemental', 'routine': 'qcelemental.models.results', 'version': '0.27.1'},
 'schema_name': 'qcschema_input',
 'schema_version': 1}
--------------------------------------------------------------------------

Scratch directory: /scratch/
   => Libint2 <=

    Primary   basis highest AM E, G, H:  5, 4, 3
    Auxiliary basis highest AM E, G, H:  6, 5, 4
    Onebody   basis highest AM E, G, H:  6, 5, 4
    Solid Harmonics ordering:            gaussian

*** tstart() called on moses-razer
*** at Mon Jan  1 17:54:28 2024

   => Loading Basis Set <=

    Name: AUG-CC-PVTZ
    Role: ORBITAL
    Keyword: BASIS
    atoms 1              entry F          line   377 file /home/kchung25/anaconda3/envs/p415env/share/psi4/basis/aug-cc-pvtz.gbs 
    atoms 2, 5, 8        entry O          line   331 file /home/kchung25/anaconda3/envs/p415env/share/psi4/basis/aug-cc-pvtz.gbs 
    atoms 3-4, 6-7, 9-10 entry H          line    40 file /home/kchung25/anaconda3/envs/p415env/share/psi4/basis/aug-cc-pvtz.gbs 


         ---------------------------------------------------------
                                   SCF
               by Justin Turney, Rob Parrish, Andy Simmonett
                          and Daniel G. A. Smith
                              RHF Reference
                        6 Threads,  57220 MiB Core
         ---------------------------------------------------------

  ==> Geometry <==

    Molecular point group: c1
    Full point group: C1

    Geometry (in Bohr), charge = -1, multiplicity = 1:

       Center              X                  Y                   Z               Mass       
    ------------   -----------------  -----------------  -----------------  -----------------
         F            0.000000000000     0.000000000000     0.000000000000    18.998403162730
         O            4.851626162717    -0.042021839852     0.000850376756    15.994914619570
         H            2.967317882061    -0.096542328297     0.000255113027     1.007825032230
         H            5.187840565780     1.735575496226     0.001211314446     1.007825032230
         O           -2.393670729690     4.219939851855     0.000736993189    15.994914619570
         H           -1.402384654964     2.616545028927     0.000417629474     1.007825032230
         H           -4.100531837440     3.620293847451     0.000976988407     1.007825032230
         O           -2.452537588225    -4.186478471352     0.001443750760    15.994914619570
         H           -1.561972026258    -2.525065276920    -0.000054802058     1.007825032230
         H           -1.078228594307    -5.362857550889     0.020382585989     1.007825032230

  Running in c1 symmetry.

  Rotational constants: A =      0.09670  B =      0.09645  C =      0.04829 [cm^-1]
  Rotational constants: A =   2899.01029  B =   2891.59739  C =   1447.65056 [MHz]
  Nuclear repulsion =  122.676005136375949

  Charge       = -1
  Multiplicity = 1
  Electrons    = 40
  Nalpha       = 20
  Nbeta        = 20

  ==> Algorithm <==

  SCF Algorithm Type is DF.
  DIIS enabled.
  MOM disabled.
  Fractional occupation disabled.
  Guess Type is SAD.
  Energy threshold   = 1.00e-08
  Density threshold  = 1.00e-08
  Integral threshold = 1.00e-12

  ==> Primary Basis <==

  Basis Set: AUG-CC-PVTZ
    Blend: AUG-CC-PVTZ
    Number of shells: 110
    Number of basis functions: 322
    Number of Cartesian functions: 370
    Spherical Harmonics?: true
    Max angular momentum: 3

   => Loading Basis Set <=

    Name: (AUG-CC-PVTZ AUX)
    Role: JKFIT
    Keyword: DF_BASIS_SCF
    atoms 1              entry F          line   348 file /home/kchung25/anaconda3/envs/p415env/share/psi4/basis/aug-cc-pvtz-jkfit.gbs 
    atoms 2, 5, 8        entry O          line   286 file /home/kchung25/anaconda3/envs/p415env/share/psi4/basis/aug-cc-pvtz-jkfit.gbs 
    atoms 3-4, 6-7, 9-10 entry H          line    70 file /home/kchung25/anaconda3/envs/p415env/share/psi4/basis/aug-cc-pvtz-jkfit.gbs 

  ==> Integral Setup <==

  DFHelper Memory: AOs need 0.523 GiB; user supplied 41.910 GiB. 
  Using in-core AOs.

  ==> MemDFJK: Density-Fitted J/K Matrices <==

    J tasked:                   Yes
    K tasked:                   Yes
    wK tasked:                   No
    OpenMP threads:               6
    Memory [MiB]:             42915
    Algorithm:                 Core
    Schwarz Cutoff:           1E-12
    Mask sparsity (%):       7.5595
    Fitting Condition:        1E-10

   => Auxiliary Basis Set <=

  Basis Set: (AUG-CC-PVTZ AUX)
    Blend: AUG-CC-PVTZ-JKFIT
    Number of shells: 204
    Number of basis functions: 692
    Number of Cartesian functions: 854
    Spherical Harmonics?: true
    Max angular momentum: 4

  Minimum eigenvalue in the overlap matrix is 1.7924252469E-04.
  Reciprocal condition number of the overlap matrix is 1.7239919450E-05.
    Using symmetric orthogonalization.

  ==> Pre-Iterations <==

  SCF Guess: Superposition of Atomic Densities via on-the-fly atomic UHF (no occupation information).

   -------------------------
    Irrep   Nso     Nmo    
   -------------------------
     A        322     322 
   -------------------------
    Total     322     322
   -------------------------

  ==> Iterations <==

                           Total Energy        Delta E     RMS |[F,P]|

   @DF-RHF iter SAD:  -325.59555314839542   -3.25596e+02   0.00000e+00 
   @DF-RHF iter   1:  -327.43162371794142   -1.83607e+00   2.76764e-03 ADIIS/DIIS
   @DF-RHF iter   2:  -327.61522114318484   -1.83597e-01   1.88078e-03 ADIIS/DIIS
   @DF-RHF iter   3:  -327.72304758171413   -1.07826e-01   1.14145e-04 ADIIS/DIIS
   @DF-RHF iter   4:  -327.72414964945864   -1.10207e-03   3.89326e-05 DIIS
   @DF-RHF iter   5:  -327.72422602782888   -7.63784e-05   1.64409e-05 DIIS
   @DF-RHF iter   6:  -327.72424079767057   -1.47698e-05   3.36618e-06 DIIS
   @DF-RHF iter   7:  -327.72424215867579   -1.36101e-06   8.19313e-07 DIIS
   @DF-RHF iter   8:  -327.72424225626463   -9.75888e-08   1.47600e-07 DIIS
   @DF-RHF iter   9:  -327.72424225950095   -3.23632e-09   2.60271e-08 DIIS
   @DF-RHF iter  10:  -327.72424225958304   -8.20819e-11   6.22181e-09 DIIS
  Energy and wave function converged.


  ==> Post-Iterations <==

    Orbital Energies [Eh]
    ---------------------

    Doubly Occupied:                                                      

       1A    -25.981653     2A    -20.370697     3A    -20.370680  
       4A    -20.370674     5A     -1.259476     6A     -1.153657  
       7A     -1.153646     8A     -1.148620     9A     -0.529200  
      10A     -0.529154    11A     -0.508254    12A     -0.418788  
      13A     -0.418758    14A     -0.396884    15A     -0.352368  
      16A     -0.322579    17A     -0.322530    18A     -0.317922  
      19A     -0.317911    20A     -0.311714  

    Virtual:                                                              

      21A      0.135710    22A      0.140227    23A      0.140264  
      24A      0.183323    25A      0.183365    26A      0.198720  
      27A      0.259017    28A      0.282107    29A      0.283028  
      30A      0.283070    31A      0.294588    32A      0.294634  
      33A      0.309599    34A      0.314173    35A      0.314230  
      36A      0.319819    37A      0.362477    38A      0.362591  
      39A      0.410375    40A      0.410439    41A      0.414065  
      42A      0.422495    43A      0.422611    44A      0.433053  
      45A      0.433199    46A      0.440241    47A      0.448254  
      48A      0.501188    49A      0.535417    50A      0.535457  
      51A      0.548040    52A      0.548115    53A      0.549918  
      54A      0.585722    55A      0.589312    56A      0.589349  
      57A      0.600962    58A      0.622426    59A      0.622559  
      60A      0.631925    61A      0.711477    62A      0.711502  
      63A      0.720991    64A      0.764089    65A      0.768447  
      66A      0.768571    67A      0.845545    68A      0.845798  
      69A      0.851948    70A      0.886335    71A      0.886366  
      72A      0.896824    73A      0.897166    74A      0.910131  
      75A      0.910193    76A      0.919825    77A      0.936379  
      78A      0.936744    79A      0.939353    80A      0.986862  
      81A      0.986937    82A      1.015991    83A      1.016177  
      84A      1.064583    85A      1.064755    86A      1.085585  
      87A      1.085839    88A      1.093529    89A      1.098312  
      90A      1.098342    91A      1.102625    92A      1.122314  
      93A      1.128164    94A      1.129215    95A      1.129460  
      96A      1.135426    97A      1.135582    98A      1.180568  
      99A      1.182347   100A      1.182411   101A      1.190268  
     102A      1.216127   103A      1.216271   104A      1.224047  
     105A      1.225775   106A      1.273707   107A      1.273933  
     108A      1.274656   109A      1.314970   110A      1.315459  
     111A      1.342944   112A      1.394705   113A      1.395411  
     114A      1.395729   115A      1.440424   116A      1.440558  
     117A      1.446254   118A      1.462649   119A      1.463115  
     120A      1.531440   121A      1.586257   122A      1.593755  
     123A      1.594074   124A      1.657331   125A      1.657575  
     126A      1.706523   127A      1.706893   128A      1.712252  
     129A      1.712347   130A      1.749023   131A      1.771957  
     132A      1.817340   133A      1.817542   134A      1.839078  
     135A      1.839396   136A      1.873609   137A      1.978214  
     138A      1.978552   139A      1.989252   140A      2.008320  
     141A      2.008726   142A      2.019881   143A      2.081869  
     144A      2.082412   145A      2.134849   146A      2.134978  
     147A      2.180353   148A      2.237679   149A      2.237959  
     150A      2.238566   151A      2.370888   152A      2.371160  
     153A      2.470935   154A      2.471000   155A      2.473831  
     156A      2.475920   157A      2.601365   158A      2.601550  
     159A      2.619606   160A      2.622183   161A      2.625952  
     162A      2.626016   163A      2.653394   164A      2.653524  
     165A      2.671704   166A      2.687943   167A      2.688142  
     168A      2.706278   169A      2.727534   170A      2.727813  
     171A      2.739277   172A      2.843601   173A      2.861340  
     174A      2.861454   175A      2.896323   176A      2.896457  
     177A      2.924869   178A      2.930461   179A      2.940293  
     180A      2.940351   181A      3.010216   182A      3.010283  
     183A      3.049294   184A      3.093045   185A      3.093061  
     186A      3.104613   187A      3.113682   188A      3.114061  
     189A      3.199547   190A      3.230121   191A      3.230649  
     192A      3.420552   193A      3.428294   194A      3.428448  
     195A      3.600555   196A      3.614294   197A      3.705286  
     198A      3.807144   199A      3.807284   200A      3.846542  
     201A      3.847009   202A      3.932250   203A      3.932498  
     204A      4.006324   205A      4.042854   206A      4.125696  
     207A      4.125799   208A      4.238667   209A      4.238774  
     210A      4.264568   211A      4.349898   212A      4.350124  
     213A      4.373184   214A      4.373355   215A      4.382368  
     216A      4.389935   217A      4.447374   218A      4.454084  
     219A      4.454592   220A      4.454814   221A      4.499291  
     222A      4.499337   223A      4.512248   224A      4.512541  
     225A      4.547058   226A      4.576958   227A      4.577019  
     228A      4.582299   229A      4.664208   230A      4.664593  
     231A      4.676511   232A      4.716806   233A      4.716846  
     234A      4.758407   235A      4.797975   236A      4.798614  
     237A      4.874020   238A      5.003393   239A      5.003500  
     240A      5.076210   241A      5.290302   242A      5.298567  
     243A      5.298655   244A      5.375530   245A      5.375686  
     246A      5.381295   247A      5.467465   248A      5.467545  
     249A      5.498125   250A      5.498181   251A      5.561764  
     252A      5.605801   253A      5.720536   254A      5.720595  
     255A      5.726954   256A      5.770358   257A      5.770510  
     258A      5.875099   259A      5.883112   260A      6.087919  
     261A      6.088273   262A      6.158459   263A      6.318978  
     264A      6.319285   265A      6.442265   266A      6.442371  
     267A      6.476946   268A      6.723865   269A      6.758100  
     270A      6.758110   271A      6.929240   272A      6.929498  
     273A      6.956330   274A      7.179012   275A      7.179458  
     276A      7.179694   277A      7.339116   278A      7.342094  
     279A      7.342120   280A      7.468619   281A      7.468632  
     282A      7.486497   283A      7.497707   284A      7.497949  
     285A      7.523899   286A      7.523966   287A      7.524122  
     288A      7.549750   289A      7.623643   290A      7.623708  
     291A      7.664298   292A      7.675431   293A      7.700320  
     294A      7.700434   295A      7.909080   296A      7.909207  
     297A      7.919766   298A      8.133108   299A      8.133234  
     300A      8.148273   301A      8.233570   302A      8.233623  
     303A      8.288279   304A      9.010604   305A      9.039962  
     306A      9.040113   307A      9.516485   308A      9.517433  
     309A      9.521318   310A      9.600917   311A      9.601081  
     312A      9.727190   313A      9.916330   314A      9.916985  
     315A      9.956880   316A     10.043174   317A     10.360432  
     318A     10.361006   319A     15.386450   320A     16.608636  
     321A     16.609130   322A     17.931793  

    Final Occupation by Irrep:
              A 
    DOCC [    20 ]
    NA   [    20 ]
    NB   [    20 ]

  @DF-RHF Final Energy:  -327.72424225958304

   => Energetics <=

    Nuclear Repulsion Energy =            122.6760051363759487
    One-Electron Energy =                -707.6901611429904051
    Two-Electron Energy =                 257.2899137470314486
    Total Energy =                       -327.7242422595830362

Computation Completed


Properties will be evaluated at   0.000000,   0.000000,   0.000000 [a0]

Properties computed using the SCF density matrix


 Multipole Moments:

 ------------------------------------------------------------------------------------
     Multipole            Electronic (a.u.)      Nuclear  (a.u.)        Total (a.u.)
 ------------------------------------------------------------------------------------

 L = 1.  Multiply by 2.5417464519 to convert [e a0] to [Debye]
 Dipole X            :         -0.0556053            0.0553841           -0.0002212
 Dipole Y            :          0.0830259           -0.0805345            0.0024915
 Dipole Z            :         -0.0424273            0.0474378            0.0050105
 Magnitude           :                                                    0.0056002

 ------------------------------------------------------------------------------------

*** tstop() called on moses-razer at Mon Jan  1 17:54:30 2024
Module time:
	user time   =      14.15 seconds =       0.24 minutes
	system time =       0.77 seconds =       0.01 minutes
	total time  =          2 seconds =       0.03 minutes
Total time:
	user time   =      49.30 seconds =       0.82 minutes
	system time =       2.30 seconds =       0.04 minutes
	total time  =          9 seconds =       0.15 minutes

*** tstart() called on moses-razer
*** at Mon Jan  1 17:54:30 2024


  //>>>>>>>>>>>>>>>>>>>>>>>>>>>>>>>>>>>//
  //               DFMP2               //
  //<<<<<<<<<<<<<<<<<<<<<<<<<<<<<<<<<<<//

   => Loading Basis Set <=

    Name: (AUG-CC-PVTZ AUX)
    Role: RIFIT
    Keyword: DF_BASIS_MP2
    atoms 1              entry F          line   322 file /home/kchung25/anaconda3/envs/p415env/share/psi4/basis/aug-cc-pvtz-ri.gbs 
    atoms 2, 5, 8        entry O          line   264 file /home/kchung25/anaconda3/envs/p415env/share/psi4/basis/aug-cc-pvtz-ri.gbs 
    atoms 3-4, 6-7, 9-10 entry H          line    30 file /home/kchung25/anaconda3/envs/p415env/share/psi4/basis/aug-cc-pvtz-ri.gbs 

	 --------------------------------------------------------
	                          DF-MP2                         
	      2nd-Order Density-Fitted Moller-Plesset Theory     
	              RMP2 Wavefunction,   6 Threads             
	                                                         
	        Rob Parrish, Justin Turney, Andy Simmonett,      
	           Ed Hohenstein, and C. David Sherrill          
	 --------------------------------------------------------

   => Auxiliary Basis Set <=

  Basis Set: (AUG-CC-PVTZ AUX)
    Blend: AUG-CC-PVTZ-RI
    Number of shells: 196
    Number of basis functions: 700
    Number of Cartesian functions: 874
    Spherical Harmonics?: true
    Max angular momentum: 4

	 --------------------------------------------------------
	                 NBF =   322, NAUX =   700
	 --------------------------------------------------------
	   CLASS    FOCC     OCC    AOCC    AVIR     VIR    FVIR
	   PAIRS       0      20      20     302     302       0
	 --------------------------------------------------------

	-----------------------------------------------------------
	 ==================> DF-MP2 Energies <==================== 
	-----------------------------------------------------------
	 Reference Energy          =    -327.7242422595830362 [Eh]
	 Singles Energy            =      -0.0000000000000000 [Eh]
	 Same-Spin Energy          =      -0.2941455998308772 [Eh]
	 Opposite-Spin Energy      =      -0.8806622566574821 [Eh]
	 Correlation Energy        =      -1.1748078564883593 [Eh]
	 Total Energy              =    -328.8990501160714075 [Eh]
	-----------------------------------------------------------
	 ================> DF-SCS-MP2 Energies <================== 
	-----------------------------------------------------------
	 SCS Same-Spin Scale       =       0.3333333333333333 [-]
	 SCS Opposite-Spin Scale   =       1.2000000000000000 [-]
	 SCS Same-Spin Energy      =      -0.0980485332769591 [Eh]
	 SCS Opposite-Spin Energy  =      -1.0567947079889786 [Eh]
	 SCS Correlation Energy    =      -1.1548432412659377 [Eh]
	 SCS Total Energy          =    -328.8790855008489871 [Eh]
	-----------------------------------------------------------


*** tstop() called on moses-razer at Mon Jan  1 17:54:31 2024
Module time:
	user time   =       5.61 seconds =       0.09 minutes
	system time =       0.33 seconds =       0.01 minutes
	total time  =          1 seconds =       0.02 minutes
Total time:
	user time   =      54.92 seconds =       0.92 minutes
	system time =       2.63 seconds =       0.04 minutes
	total time  =         10 seconds =       0.17 minutes

    Psi4 stopped on: Monday, 01 January 2024 05:54PM
    Psi4 wall time for execution: 0:00:03.84


  //>>>>>>>>>>>>>>>>>>>>>>>>>>>>>>>>>>>//
  //          ManyBody Results         //
  //<<<<<<<<<<<<<<<<<<<<<<<<<<<<<<<<<<<//


   ==> N-Body: Counterpoise Corrected (CP) energies <==

        n-Body     Total Energy            Interaction Energy                          N-body Contribution to Interaction Energy
                   [Eh]                    [Eh]                  [kcal/mol]            [Eh]                  [kcal/mol]
             1  N/A                         0.000000000000        0.000000000000        0.000000000000        0.000000000000
  FULL/RTN   2  N/A                        -0.108783112714      -68.262433815067       -0.108783112714      -68.262433815067


    Psi4 stopped on: Monday, 01 January 2024 05:54PM
    Psi4 wall time for execution: 0:00:12.35

*** Psi4 exiting successfully. Buy a developer a beer!
