
    -----------------------------------------------------------------------
          Psi4: An Open-Source Ab Initio Electronic Structure Package
                               Psi4 1.9.1 release

                         Git: Rev {} zzzzzzz 


    D. G. A. Smith, L. A. Burns, A. C. Simmonett, R. M. Parrish,
    M. C. Schieber, R. Galvelis, P. Kraus, H. Kruse, R. Di Remigio,
    A. Alenaizan, A. M. James, S. Lehtola, J. P. Misiewicz, M. Scheurer,
    R. A. Shaw, J. B. Schriber, Y. Xie, Z. L. Glick, D. A. Sirianni,
    J. S. O'Brien, J. M. Waldrop, A. Kumar, E. G. Hohenstein,
    B. P. Pritchard, B. R. Brooks, H. F. Schaefer III, A. Yu. Sokolov,
    K. Patkowski, A. E. DePrince III, U. Bozkaya, R. A. King,
    F. A. Evangelista, J. M. Turney, T. D. Crawford, C. D. Sherrill,
    J. Chem. Phys. 152(18) 184108 (2020). https://doi.org/10.1063/5.0006002

                            Additional Code Authors
    E. T. Seidl, C. L. Janssen, E. F. Valeev, M. L. Leininger,
    J. F. Gonthier, R. M. Richard, H. R. McAlexander, M. Saitow, X. Wang,
    P. Verma, M. H. Lechner, A. Jiang, S. Behnle, A. G. Heide,
    M. F. Herbst, and D. L. Poole

             Previous Authors, Complete List of Code Contributors,
                       and Citations for Specific Modules
    https://github.com/psi4/psi4/blob/master/codemeta.json
    https://github.com/psi4/psi4/graphs/contributors
    http://psicode.org/psi4manual/master/introduction.html#citing-psifour

    -----------------------------------------------------------------------


    Psi4 started on: Thursday, 25 April 2024 12:57PM

    Process ID: 1094802
    Host:       ivy
    PSIDATADIR: /home/kchung25/miniconda3/envs/p4env/share/psi4
    Memory:     500.0 MiB
    Threads:    6
    
  ==> Input File <==

--------------------------------------------------------------------------
MEMORY 60 GB

molecule dimer {
-1 1
Cl         0.000000     0.000000     0.000000
O          3.130045    -0.039116     0.000000
H          2.155226    -0.129176     0.000000
H          3.237770     0.913004     0.000000
O         -1.531147     2.730256     0.000000
H         -0.965743     1.931069     0.000000
H         -2.409570     2.347489     0.000000
O         -1.598898    -2.691140     0.000000
H         -1.189483    -1.801893     0.000000
H         -0.828200    -3.260493     0.000000

units ang
no_reorient
no_com
symmetry c1
}

set {
basis        aug-cc-pVTZ
scf_type     df
}

energy("mp2")
--------------------------------------------------------------------------

  Memory set to  55.879 GiB by Python driver.

Scratch directory: /tmp/
   => Libint2 <=

    Primary   basis highest AM E, G, H:  6, 6, 3
    Auxiliary basis highest AM E, G, H:  7, 7, 4
    Onebody   basis highest AM E, G, H:  -, -, -
    Solid Harmonics ordering:            Gaussian

*** tstart() called on ivy
*** at Thu Apr 25 12:57:56 2024

   => Loading Basis Set <=

    Name: AUG-CC-PVTZ
    Role: ORBITAL
    Keyword: BASIS
    atoms 1              entry CL         line   988 file /home/kchung25/miniconda3/envs/p4env/share/psi4/basis/aug-cc-pvtz.gbs 
    atoms 2, 5, 8        entry O          line   331 file /home/kchung25/miniconda3/envs/p4env/share/psi4/basis/aug-cc-pvtz.gbs 
    atoms 3-4, 6-7, 9-10 entry H          line    40 file /home/kchung25/miniconda3/envs/p4env/share/psi4/basis/aug-cc-pvtz.gbs 


         ---------------------------------------------------------
                                   SCF
               by Justin Turney, Rob Parrish, Andy Simmonett
                          and Daniel G. A. Smith
                              RHF Reference
                        6 Threads,  57220 MiB Core
         ---------------------------------------------------------

  ==> Geometry <==

    Molecular point group: c1
    Full point group: Cs

    Geometry (in Angstrom), charge = -1, multiplicity = 1:

       Center              X                  Y                   Z               Mass       
    ------------   -----------------  -----------------  -----------------  -----------------
         CL           0.000000000000     0.000000000000     0.000000000000    34.968852682000
         O            3.130045000000    -0.039116000000     0.000000000000    15.994914619570
         H            2.155226000000    -0.129176000000     0.000000000000     1.007825032230
         H            3.237770000000     0.913004000000     0.000000000000     1.007825032230
         O           -1.531147000000     2.730256000000     0.000000000000    15.994914619570
         H           -0.965743000000     1.931069000000     0.000000000000     1.007825032230
         H           -2.409570000000     2.347489000000     0.000000000000     1.007825032230
         O           -1.598898000000    -2.691140000000     0.000000000000    15.994914619570
         H           -1.189483000000    -1.801893000000     0.000000000000     1.007825032230
         H           -0.828200000000    -3.260493000000     0.000000000000     1.007825032230

  Running in c1 symmetry.

  Rotational constants: A =      0.06502  B =      0.06502  C =      0.03251 [cm^-1]
  Rotational constants: A =   1949.39296  B =   1949.39234  C =    974.69632 [MHz]
  Nuclear repulsion =  146.998615895064518

  Charge       = -1
  Multiplicity = 1
  Electrons    = 48
  Nalpha       = 24
  Nbeta        = 24

  ==> Algorithm <==

  SCF Algorithm Type is DF.
  DIIS enabled.
  MOM disabled.
  Fractional occupation disabled.
  Guess Type is SAD.
  Energy threshold   = 1.00e-08
  Density threshold  = 1.00e-08
  Integral threshold = 1.00e-12

  ==> Primary Basis <==

  Basis Set: AUG-CC-PVTZ
    Blend: AUG-CC-PVTZ
    Number of shells: 112
    Number of basis functions: 326
    Number of Cartesian functions: 374
    Spherical Harmonics?: true
    Max angular momentum: 3

   => Loading Basis Set <=

    Name: (AUG-CC-PVTZ AUX)
    Role: JKFIT
    Keyword: DF_BASIS_SCF
    atoms 1              entry CL         line   816 file /home/kchung25/miniconda3/envs/p4env/share/psi4/basis/aug-cc-pvtz-jkfit.gbs 
    atoms 2, 5, 8        entry O          line   286 file /home/kchung25/miniconda3/envs/p4env/share/psi4/basis/aug-cc-pvtz-jkfit.gbs 
    atoms 3-4, 6-7, 9-10 entry H          line    70 file /home/kchung25/miniconda3/envs/p4env/share/psi4/basis/aug-cc-pvtz-jkfit.gbs 

  ==> Integral Setup <==

  DFHelper Memory: AOs need 0.535 GiB; user supplied 41.910 GiB. 
  Using in-core AOs.

  ==> MemDFJK: Density-Fitted J/K Matrices <==

    J tasked:                   Yes
    K tasked:                   Yes
    wK tasked:                   No
    OpenMP threads:               6
    Memory [MiB]:             42915
    Algorithm:                 Core
    Schwarz Cutoff:           1E-12
    Mask sparsity (%):      13.0829
    Fitting Condition:        1E-10

   => Auxiliary Basis Set <=

  Basis Set: (AUG-CC-PVTZ AUX)
    Blend: AUG-CC-PVTZ-JKFIT
    Number of shells: 216
    Number of basis functions: 734
    Number of Cartesian functions: 903
    Spherical Harmonics?: true
    Max angular momentum: 4

  Minimum eigenvalue in the overlap matrix is 2.1779978123E-04.
  Reciprocal condition number of the overlap matrix is 2.4738673851E-05.
    Using symmetric orthogonalization.

  ==> Pre-Iterations <==

  SCF Guess: Superposition of Atomic Densities via on-the-fly atomic UHF (no occupation information).

   -------------------------
    Irrep   Nso     Nmo    
   -------------------------
     A        326     326 
   -------------------------
    Total     326     326
   -------------------------

  ==> Iterations <==

                           Total Energy        Delta E     RMS |[F,P]|

   @DF-RHF iter SAD:  -685.78797139501728   -6.85788e+02   0.00000e+00 
   @DF-RHF iter   1:  -687.52805122021539   -1.74008e+00   2.58564e-03 DIIS/ADIIS
   @DF-RHF iter   2:  -687.70178819124089   -1.73737e-01   1.74212e-03 DIIS/ADIIS
   @DF-RHF iter   3:  -687.80057879285471   -9.87906e-02   1.29763e-04 DIIS/ADIIS
   @DF-RHF iter   4:  -687.80189335419595   -1.31456e-03   4.77831e-05 DIIS
   @DF-RHF iter   5:  -687.80205006131007   -1.56707e-04   9.77641e-06 DIIS
   @DF-RHF iter   6:  -687.80206286993348   -1.28086e-05   2.48754e-06 DIIS
   @DF-RHF iter   7:  -687.80206388256966   -1.01264e-06   6.34627e-07 DIIS
   @DF-RHF iter   8:  -687.80206394784511   -6.52755e-08   1.10296e-07 DIIS
   @DF-RHF iter   9:  -687.80206394960328   -1.75817e-09   1.94853e-08 DIIS
   @DF-RHF iter  10:  -687.80206394965091   -4.76348e-11   4.73359e-09 DIIS
  Energy and wave function converged.


  ==> Post-Iterations <==

    Orbital Energies [Eh]
    ---------------------

    Doubly Occupied:                                                      

       1A   -104.575578     2A    -20.402205     3A    -20.402205  
       4A    -20.402205     5A    -10.301231     6A     -7.767330  
       7A     -7.767330     8A     -7.767219     9A     -1.187018  
      10A     -1.186842    11A     -1.186842    12A     -0.821475  
      13A     -0.547515    14A     -0.547515    15A     -0.541499  
      16A     -0.433793    17A     -0.433793    18A     -0.428634  
      19A     -0.348779    20A     -0.348090    21A     -0.348090  
      22A     -0.232640    23A     -0.232640    24A     -0.226022  

    Virtual:                                                              

      25A      0.130244    26A      0.134168    27A      0.134168  
      28A      0.172196    29A      0.172196    30A      0.182211  
      31A      0.239965    32A      0.265213    33A      0.270932  
      34A      0.270932    35A      0.277711    36A      0.277711  
      37A      0.291828    38A      0.301913    39A      0.301913  
      40A      0.312471    41A      0.330444    42A      0.330444  
      43A      0.331513    44A      0.363200    45A      0.363200  
      46A      0.371573    47A      0.394494    48A      0.394494  
      49A      0.401083    50A      0.401083    51A      0.420599  
      52A      0.428152    53A      0.454285    54A      0.469737  
      55A      0.469737    56A      0.474659    57A      0.474659  
      58A      0.511669    59A      0.529464    60A      0.529464  
      61A      0.530234    62A      0.559811    63A      0.559811  
      64A      0.569867    65A      0.610527    66A      0.610527  
      67A      0.614346    68A      0.681954    69A      0.683173  
      70A      0.683173    71A      0.685015    72A      0.685015  
      73A      0.712912    74A      0.756516    75A      0.756516  
      76A      0.828268    77A      0.844279    78A      0.844279  
      79A      0.864336    80A      0.866117    81A      0.869920  
      82A      0.869920    83A      0.879724    84A      0.879724  
      85A      0.882925    86A      0.882926    87A      0.884707  
      88A      0.903002    89A      0.918539    90A      0.920066  
      91A      0.920066    92A      0.987235    93A      0.987235  
      94A      1.006163    95A      1.006163    96A      1.037682  
      97A      1.039729    98A      1.060814    99A      1.060814  
     100A      1.066543   101A      1.068771   102A      1.068771  
     103A      1.082281   104A      1.102845   105A      1.109645  
     106A      1.109645   107A      1.119156   108A      1.133220  
     109A      1.133220   110A      1.135693   111A      1.135693  
     112A      1.147716   113A      1.156404   114A      1.168598  
     115A      1.184457   116A      1.184457   117A      1.209888  
     118A      1.209888   119A      1.268118   120A      1.273125  
     121A      1.273125   122A      1.281067   123A      1.281067  
     124A      1.312154   125A      1.312154   126A      1.322287  
     127A      1.326454   128A      1.363173   129A      1.363173  
     130A      1.371482   131A      1.398896   132A      1.416944  
     133A      1.416944   134A      1.469127   135A      1.482493  
     136A      1.482493   137A      1.506134   138A      1.506134  
     139A      1.569607   140A      1.599749   141A      1.599749  
     142A      1.681474   143A      1.681474   144A      1.685092  
     145A      1.697570   146A      1.697570   147A      1.725947  
     148A      1.727384   149A      1.727384   150A      1.738059  
     151A      1.772347   152A      1.772347   153A      1.773553  
     154A      1.821918   155A      1.821918   156A      1.844519  
     157A      1.880832   158A      1.884431   159A      1.884431  
     160A      2.042792   161A      2.089995   162A      2.089995  
     163A      2.115908   164A      2.115908   165A      2.126359  
     166A      2.199346   167A      2.215263   168A      2.215263  
     169A      2.334806   170A      2.434243   171A      2.438280  
     172A      2.438280   173A      2.520631   174A      2.536267  
     175A      2.536267   176A      2.551968   177A      2.551968  
     178A      2.559526   179A      2.607346   180A      2.607347  
     181A      2.608800   182A      2.636543   183A      2.636543  
     184A      2.639995   185A      2.639996   186A      2.645995  
     187A      2.678770   188A      2.703026   189A      2.703027  
     190A      2.704453   191A      2.774975   192A      2.774975  
     193A      2.800289   194A      2.865262   195A      2.875076  
     196A      2.875076   197A      2.875558   198A      2.875558  
     199A      2.881163   200A      2.956565   201A      2.956565  
     202A      2.976295   203A      3.006882   204A      3.006949  
     205A      3.006949   206A      3.102701   207A      3.111761  
     208A      3.111761   209A      3.112760   210A      3.112760  
     211A      3.169543   212A      3.245484   213A      3.295011  
     214A      3.295011   215A      3.421544   216A      3.421544  
     217A      3.457998   218A      3.527223   219A      3.527223  
     220A      3.678429   221A      3.678429   222A      3.707273  
     223A      3.838011   224A      3.887258   225A      3.887258  
     226A      3.918653   227A      4.181616   228A      4.191854  
     229A      4.191854   230A      4.202599   231A      4.224589  
     232A      4.224589   233A      4.343295   234A      4.343296  
     235A      4.349057   236A      4.351971   237A      4.351971  
     238A      4.381893   239A      4.424603   240A      4.438091  
     241A      4.438143   242A      4.438144   243A      4.453779  
     244A      4.453779   245A      4.546918   246A      4.549524  
     247A      4.549524   248A      4.580340   249A      4.580340  
     250A      4.617841   251A      4.628939   252A      4.628939  
     253A      4.629209   254A      4.760999   255A      4.767453  
     256A      4.767453   257A      4.964146   258A      4.982543  
     259A      4.982543   260A      5.099966   261A      5.099966  
     262A      5.161597   263A      5.293229   264A      5.298487  
     265A      5.298488   266A      5.392261   267A      5.392262  
     268A      5.408466   269A      5.445829   270A      5.462162  
     271A      5.462162   272A      5.524905   273A      5.538357  
     274A      5.538357   275A      5.681156   276A      5.686330  
     277A      5.686330   278A      5.812907   279A      5.839851  
     280A      5.839852   281A      6.376882   282A      6.409298  
     283A      6.409299   284A      6.679336   285A      6.706041  
     286A      6.706041   287A      6.881596   288A      6.908672  
     289A      6.908672   290A      7.100256   291A      7.133494  
     292A      7.133495   293A      7.285868   294A      7.288087  
     295A      7.288087   296A      7.332184   297A      7.435174  
     298A      7.435174   299A      7.447851   300A      7.464259  
     301A      7.464260   302A      7.476455   303A      7.476455  
     304A      7.479250   305A      7.480168   306A      7.563745  
     307A      7.563745   308A      7.564916   309A      7.604304  
     310A      7.604304   311A      7.618214   312A      7.819384  
     313A      7.819384   314A      7.853110   315A      8.104397  
     316A      8.111987   317A      8.111987   318A      8.148981  
     319A      8.148981   320A      8.158345   321A      8.987483  
     322A      8.987484   323A      9.013958   324A     16.441130  
     325A     16.441137   326A     16.679143  

    Final Occupation by Irrep:
              A 
    DOCC [    24 ]
    NA   [    24 ]
    NB   [    24 ]

  @DF-RHF Final Energy:  -687.80206394965091

   => Energetics <=

    Nuclear Repulsion Energy =            146.9986158950645176
    One-Electron Energy =               -1252.7283741558985639
    Two-Electron Energy =                 417.9276943111830178
    Total Energy =                       -687.8020639496509148

Computation Completed


Properties will be evaluated at   0.000000,   0.000000,   0.000000 [a0]

Properties computed using the SCF density matrix


 Multipole Moments:

 ------------------------------------------------------------------------------------
     Multipole            Electronic (a.u.)      Nuclear  (a.u.)        Total (a.u.)
 ------------------------------------------------------------------------------------

 L = 1.  Multiply by 2.5417464519 to convert [e a0] to [Debye]
 Dipole X            :         -0.0000012           -0.0000000           -0.0000012
 Dipole Y            :         -0.0000004           -0.0000000           -0.0000004
 Dipole Z            :          0.0000000            0.0000000            0.0000000
 Magnitude           :                                                    0.0000012

 ------------------------------------------------------------------------------------

*** tstop() called on ivy at Thu Apr 25 12:57:57 2024
Module time:
	user time   =       4.13 seconds =       0.07 minutes
	system time =       0.64 seconds =       0.01 minutes
	total time  =          1 seconds =       0.02 minutes
Total time:
	user time   =       4.13 seconds =       0.07 minutes
	system time =       0.64 seconds =       0.01 minutes
	total time  =          1 seconds =       0.02 minutes

*** tstart() called on ivy
*** at Thu Apr 25 12:57:57 2024


  //>>>>>>>>>>>>>>>>>>>>>>>>>>>>>>>>>>>//
  //               DFMP2               //
  //<<<<<<<<<<<<<<<<<<<<<<<<<<<<<<<<<<<//

   => Loading Basis Set <=

    Name: (AUG-CC-PVTZ AUX)
    Role: RIFIT
    Keyword: DF_BASIS_MP2
    atoms 1              entry CL         line   742 file /home/kchung25/miniconda3/envs/p4env/share/psi4/basis/aug-cc-pvtz-ri.gbs 
    atoms 2, 5, 8        entry O          line   264 file /home/kchung25/miniconda3/envs/p4env/share/psi4/basis/aug-cc-pvtz-ri.gbs 
    atoms 3-4, 6-7, 9-10 entry H          line    30 file /home/kchung25/miniconda3/envs/p4env/share/psi4/basis/aug-cc-pvtz-ri.gbs 

	 --------------------------------------------------------
	                          DF-MP2                         
	      2nd-Order Density-Fitted Moller-Plesset Theory     
	              RMP2 Wavefunction,   6 Threads             
	                                                         
	        Rob Parrish, Justin Turney, Andy Simmonett,      
	           Ed Hohenstein, and C. David Sherrill          
	 --------------------------------------------------------

   => Auxiliary Basis Set <=

  Basis Set: (AUG-CC-PVTZ AUX)
    Blend: AUG-CC-PVTZ-RI
    Number of shells: 205
    Number of basis functions: 741
    Number of Cartesian functions: 929
    Spherical Harmonics?: true
    Max angular momentum: 4

	 --------------------------------------------------------
	                 NBF =   326, NAUX =   741
	 --------------------------------------------------------
	   CLASS    FOCC     OCC    AOCC    AVIR     VIR    FVIR
	   PAIRS       0      24      24     302     302       0
	 --------------------------------------------------------

	-----------------------------------------------------------
	 ==================> DF-MP2 Energies <==================== 
	-----------------------------------------------------------
	 Reference Energy          =    -687.8020639496509148 [Eh]
	 Singles Energy            =      -0.0000000000000000 [Eh]
	 Same-Spin Energy          =      -0.2766130427461572 [Eh]
	 Opposite-Spin Energy      =      -0.8374337336695343 [Eh]
	 Correlation Energy        =      -1.1140467764156914 [Eh]
	 Total Energy              =    -688.9161107260665631 [Eh]
	-----------------------------------------------------------
	 ================> DF-SCS-MP2 Energies <================== 
	-----------------------------------------------------------
	 SCS Same-Spin Scale       =       0.3333333333333333 [-]
	 SCS Opposite-Spin Scale   =       1.2000000000000000 [-]
	 SCS Same-Spin Energy      =      -0.0922043475820524 [Eh]
	 SCS Opposite-Spin Energy  =      -1.0049204804034411 [Eh]
	 SCS Correlation Energy    =      -1.0971248279854935 [Eh]
	 SCS Total Energy          =    -688.8991887776363683 [Eh]
	-----------------------------------------------------------


*** tstop() called on ivy at Thu Apr 25 12:57:58 2024
Module time:
	user time   =       2.12 seconds =       0.04 minutes
	system time =       0.32 seconds =       0.01 minutes
	total time  =          1 seconds =       0.02 minutes
Total time:
	user time   =       6.25 seconds =       0.10 minutes
	system time =       0.96 seconds =       0.02 minutes
	total time  =          2 seconds =       0.03 minutes

    Psi4 stopped on: Thursday, 25 April 2024 12:57PM
    Psi4 wall time for execution: 0:00:02.45

*** Psi4 exiting successfully. Buy a developer a beer!
