
    -----------------------------------------------------------------------
          Psi4: An Open-Source Ab Initio Electronic Structure Package
                               Psi4 1.9.1 release

                         Git: Rev {} zzzzzzz 


    D. G. A. Smith, L. A. Burns, A. C. Simmonett, R. M. Parrish,
    M. C. Schieber, R. Galvelis, P. Kraus, H. Kruse, R. Di Remigio,
    A. Alenaizan, A. M. James, S. Lehtola, J. P. Misiewicz, M. Scheurer,
    R. A. Shaw, J. B. Schriber, Y. Xie, Z. L. Glick, D. A. Sirianni,
    J. S. O'Brien, J. M. Waldrop, A. Kumar, E. G. Hohenstein,
    B. P. Pritchard, B. R. Brooks, H. F. Schaefer III, A. Yu. Sokolov,
    K. Patkowski, A. E. DePrince III, U. Bozkaya, R. A. King,
    F. A. Evangelista, J. M. Turney, T. D. Crawford, C. D. Sherrill,
    J. Chem. Phys. 152(18) 184108 (2020). https://doi.org/10.1063/5.0006002

                            Additional Code Authors
    E. T. Seidl, C. L. Janssen, E. F. Valeev, M. L. Leininger,
    J. F. Gonthier, R. M. Richard, H. R. McAlexander, M. Saitow, X. Wang,
    P. Verma, M. H. Lechner, A. Jiang, S. Behnle, A. G. Heide,
    M. F. Herbst, and D. L. Poole

             Previous Authors, Complete List of Code Contributors,
                       and Citations for Specific Modules
    https://github.com/psi4/psi4/blob/master/codemeta.json
    https://github.com/psi4/psi4/graphs/contributors
    http://psicode.org/psi4manual/master/introduction.html#citing-psifour

    -----------------------------------------------------------------------


    Psi4 started on: Thursday, 25 April 2024 12:58PM

    Process ID: 1094823
    Host:       ivy
    PSIDATADIR: /home/kchung25/miniconda3/envs/p4env/share/psi4
    Memory:     500.0 MiB
    Threads:    6
    
  ==> Input File <==

--------------------------------------------------------------------------
MEMORY 60 GB

molecule dimer {
0 1
Gh(Cl)     0.000000     0.000000     0.000000
Gh(O)     -0.625827     1.305436    -2.845021
Gh(H)     -0.333603     0.654623    -2.181922
Gh(H)     -0.401283     2.126388    -2.386172
O         -2.753995     1.248168    -0.821801
H         -1.999726     0.852379    -0.342959
H         -2.381722     1.280045    -1.715069
Gh(O)     -0.346691     3.107636    -0.517618
Gh(H)     -0.023288     2.235365    -0.222474
Gh(H)     -1.299840     2.972506    -0.461474
Gh(O)     -2.665224    -1.803758    -0.518504
Gh(H)     -1.763499    -1.508150    -0.317440
Gh(H)     -3.092618    -0.962083    -0.709237

units ang
no_reorient
no_com
symmetry c1
}

set {
basis        aug-cc-pVTZ
scf_type     df
}

energy("mp2")
--------------------------------------------------------------------------

  Memory set to  55.879 GiB by Python driver.

Scratch directory: /tmp/
   => Libint2 <=

    Primary   basis highest AM E, G, H:  6, 6, 3
    Auxiliary basis highest AM E, G, H:  7, 7, 4
    Onebody   basis highest AM E, G, H:  -, -, -
    Solid Harmonics ordering:            Gaussian

*** tstart() called on ivy
*** at Thu Apr 25 12:58:06 2024

   => Loading Basis Set <=

    Name: AUG-CC-PVTZ
    Role: ORBITAL
    Keyword: BASIS
    atoms 1                     entry CL         line   988 file /home/kchung25/miniconda3/envs/p4env/share/psi4/basis/aug-cc-pvtz.gbs 
    atoms 2, 5, 8, 11           entry O          line   331 file /home/kchung25/miniconda3/envs/p4env/share/psi4/basis/aug-cc-pvtz.gbs 
    atoms 3-4, 6-7, 9-10, 12-13 entry H          line    40 file /home/kchung25/miniconda3/envs/p4env/share/psi4/basis/aug-cc-pvtz.gbs 


         ---------------------------------------------------------
                                   SCF
               by Justin Turney, Rob Parrish, Andy Simmonett
                          and Daniel G. A. Smith
                              RHF Reference
                        6 Threads,  57220 MiB Core
         ---------------------------------------------------------

  ==> Geometry <==

    Molecular point group: c1
    Full point group: C1

    Geometry (in Angstrom), charge = 0, multiplicity = 1:

       Center              X                  Y                   Z               Mass       
    ------------   -----------------  -----------------  -----------------  -----------------
      Gh(CL)          0.000000000000     0.000000000000     0.000000000000    34.968852682000
      Gh(O)          -0.625827000000     1.305436000000    -2.845021000000    15.994914619570
      Gh(H)          -0.333603000000     0.654623000000    -2.181922000000     1.007825032230
      Gh(H)          -0.401283000000     2.126388000000    -2.386172000000     1.007825032230
         O           -2.753995000000     1.248168000000    -0.821801000000    15.994914619570
         H           -1.999726000000     0.852379000000    -0.342959000000     1.007825032230
         H           -2.381722000000     1.280045000000    -1.715069000000     1.007825032230
      Gh(O)          -0.346691000000     3.107636000000    -0.517618000000    15.994914619570
      Gh(H)          -0.023288000000     2.235365000000    -0.222474000000     1.007825032230
      Gh(H)          -1.299840000000     2.972506000000    -0.461474000000     1.007825032230
      Gh(O)          -2.665224000000    -1.803758000000    -0.518504000000    15.994914619570
      Gh(H)          -1.763499000000    -1.508150000000    -0.317440000000     1.007825032230
      Gh(H)          -3.092618000000    -0.962083000000    -0.709237000000     1.007825032230

  Running in c1 symmetry.

  Rotational constants: A =      0.05011  B =      0.03735  C =      0.02631 [cm^-1]
  Rotational constants: A =   1502.28394  B =   1119.72825  C =    788.88179 [MHz]
  Nuclear repulsion =    9.060351231706832

  Charge       = 0
  Multiplicity = 1
  Electrons    = 10
  Nalpha       = 5
  Nbeta        = 5

  ==> Algorithm <==

  SCF Algorithm Type is DF.
  DIIS enabled.
  MOM disabled.
  Fractional occupation disabled.
  Guess Type is SAD.
  Energy threshold   = 1.00e-08
  Density threshold  = 1.00e-08
  Integral threshold = 1.00e-12

  ==> Primary Basis <==

  Basis Set: AUG-CC-PVTZ
    Blend: AUG-CC-PVTZ
    Number of shells: 144
    Number of basis functions: 418
    Number of Cartesian functions: 479
    Spherical Harmonics?: true
    Max angular momentum: 3

   => Loading Basis Set <=

    Name: (AUG-CC-PVTZ AUX)
    Role: JKFIT
    Keyword: DF_BASIS_SCF
    atoms 1                     entry CL         line   816 file /home/kchung25/miniconda3/envs/p4env/share/psi4/basis/aug-cc-pvtz-jkfit.gbs 
    atoms 2, 5, 8, 11           entry O          line   286 file /home/kchung25/miniconda3/envs/p4env/share/psi4/basis/aug-cc-pvtz-jkfit.gbs 
    atoms 3-4, 6-7, 9-10, 12-13 entry H          line    70 file /home/kchung25/miniconda3/envs/p4env/share/psi4/basis/aug-cc-pvtz-jkfit.gbs 

  ==> Integral Setup <==

  DFHelper Memory: AOs need 1.209 GiB; user supplied 41.910 GiB. 
  Using in-core AOs.

  ==> MemDFJK: Density-Fitted J/K Matrices <==

    J tasked:                   Yes
    K tasked:                   Yes
    wK tasked:                   No
    OpenMP threads:               6
    Memory [MiB]:             42915
    Algorithm:                 Core
    Schwarz Cutoff:           1E-12
    Mask sparsity (%):       4.2032
    Fitting Condition:        1E-10

   => Auxiliary Basis Set <=

  Basis Set: (AUG-CC-PVTZ AUX)
    Blend: AUG-CC-PVTZ-JKFIT
    Number of shells: 274
    Number of basis functions: 930
    Number of Cartesian functions: 1144
    Spherical Harmonics?: true
    Max angular momentum: 4

  Minimum eigenvalue in the overlap matrix is 7.8870614380E-05.
  Reciprocal condition number of the overlap matrix is 5.1299762613E-06.
    Using symmetric orthogonalization.

  ==> Pre-Iterations <==

  SCF Guess: Superposition of Atomic Densities via on-the-fly atomic UHF (no occupation information).

   -------------------------
    Irrep   Nso     Nmo    
   -------------------------
     A        418     418 
   -------------------------
    Total     418     418
   -------------------------

  ==> Iterations <==

                           Total Energy        Delta E     RMS |[F,P]|

   @DF-RHF iter SAD:   -75.46521961271507   -7.54652e+01   0.00000e+00 
   @DF-RHF iter   1:   -75.97299673820774   -5.07777e-01   1.11880e-03 ADIIS/DIIS
   @DF-RHF iter   2:   -76.02519247321921   -5.21957e-02   7.77928e-04 ADIIS/DIIS
   @DF-RHF iter   3:   -76.05805390759711   -3.28614e-02   5.28007e-05 DIIS
   @DF-RHF iter   4:   -76.05845721017977   -4.03303e-04   1.30604e-05 DIIS
   @DF-RHF iter   5:   -76.05848480242165   -2.75922e-05   3.05313e-06 DIIS
   @DF-RHF iter   6:   -76.05848714573786   -2.34332e-06   6.60093e-07 DIIS
   @DF-RHF iter   7:   -76.05848726374032   -1.18002e-07   1.11232e-07 DIIS
   @DF-RHF iter   8:   -76.05848726662001   -2.87969e-09   1.86366e-08 DIIS
   @DF-RHF iter   9:   -76.05848726668242   -6.24141e-11   4.43230e-09 DIIS
  Energy and wave function converged.


  ==> Post-Iterations <==

    Orbital Energies [Eh]
    ---------------------

    Doubly Occupied:                                                      

       1A    -20.571779     2A     -1.349053     3A     -0.699948  
       4A     -0.591247     5A     -0.510482  

    Virtual:                                                              

       6A      0.017853     7A      0.038303     8A      0.041137  
       9A      0.047995    10A      0.062065    11A      0.066001  
      12A      0.070093    13A      0.071557    14A      0.097191  
      15A      0.102950    16A      0.122634    17A      0.127902  
      18A      0.138359    19A      0.147253    20A      0.153022  
      21A      0.158525    22A      0.162977    23A      0.169423  
      24A      0.177925    25A      0.182615    26A      0.193681  
      27A      0.198919    28A      0.209425    29A      0.211070  
      30A      0.213926    31A      0.228927    32A      0.241044  
      33A      0.247382    34A      0.259074    35A      0.291485  
      36A      0.297267    37A      0.310957    38A      0.321610  
      39A      0.324118    40A      0.334604    41A      0.340539  
      42A      0.352430    43A      0.357819    44A      0.367998  
      45A      0.375639    46A      0.381383    47A      0.386627  
      48A      0.400095    49A      0.404316    50A      0.419747  
      51A      0.423952    52A      0.435094    53A      0.437720  
      54A      0.451217    55A      0.455434    56A      0.462288  
      57A      0.472284    58A      0.486337    59A      0.489118  
      60A      0.494921    61A      0.507538    62A      0.520871  
      63A      0.527813    64A      0.548260    65A      0.552816  
      66A      0.562597    67A      0.583271    68A      0.591021  
      69A      0.611839    70A      0.625795    71A      0.643678  
      72A      0.668513    73A      0.675644    74A      0.692195  
      75A      0.706171    76A      0.709430    77A      0.716658  
      78A      0.728856    79A      0.735085    80A      0.750021  
      81A      0.771073    82A      0.779032    83A      0.780365  
      84A      0.799096    85A      0.816383    86A      0.824003  
      87A      0.835343    88A      0.839414    89A      0.843426  
      90A      0.851922    91A      0.856463    92A      0.875633  
      93A      0.879417    94A      0.887252    95A      0.894064  
      96A      0.900899    97A      0.915111    98A      0.920714  
      99A      0.923407   100A      0.936082   101A      0.940893  
     102A      0.956566   103A      0.960007   104A      0.975385  
     105A      1.006653   106A      1.017587   107A      1.019954  
     108A      1.029401   109A      1.036006   110A      1.051743  
     111A      1.060878   112A      1.067819   113A      1.077691  
     114A      1.080096   115A      1.095804   116A      1.126999  
     117A      1.133442   118A      1.140876   119A      1.155274  
     120A      1.163651   121A      1.179244   122A      1.187082  
     123A      1.213851   124A      1.220622   125A      1.229069  
     126A      1.231362   127A      1.244875   128A      1.271681  
     129A      1.282601   130A      1.285349   131A      1.299073  
     132A      1.317663   133A      1.325977   134A      1.338086  
     135A      1.351421   136A      1.382739   137A      1.398686  
     138A      1.405445   139A      1.413599   140A      1.416614  
     141A      1.441361   142A      1.445384   143A      1.456253  
     144A      1.459677   145A      1.476797   146A      1.503049  
     147A      1.520671   148A      1.532270   149A      1.549568  
     150A      1.565481   151A      1.567960   152A      1.577764  
     153A      1.590540   154A      1.599554   155A      1.611422  
     156A      1.619073   157A      1.638245   158A      1.654927  
     159A      1.669872   160A      1.679628   161A      1.697569  
     162A      1.711521   163A      1.720346   164A      1.732382  
     165A      1.761801   166A      1.762855   167A      1.769698  
     168A      1.784501   169A      1.808545   170A      1.816004  
     171A      1.835402   172A      1.851164   173A      1.862820  
     174A      1.874430   175A      1.878424   176A      1.900108  
     177A      1.918963   178A      1.925003   179A      1.945296  
     180A      1.956737   181A      1.967877   182A      1.989699  
     183A      1.994271   184A      2.009049   185A      2.048294  
     186A      2.057403   187A      2.082706   188A      2.090707  
     189A      2.126862   190A      2.138493   191A      2.150912  
     192A      2.174232   193A      2.187587   194A      2.202263  
     195A      2.235047   196A      2.308616   197A      2.323674  
     198A      2.457544   199A      2.478601   200A      2.509711  
     201A      2.531030   202A      2.553300   203A      2.563141  
     204A      2.582516   205A      2.603098   206A      2.604496  
     207A      2.637309   208A      2.661850   209A      2.673569  
     210A      2.681683   211A      2.689181   212A      2.700563  
     213A      2.716162   214A      2.741298   215A      2.752944  
     216A      2.786768   217A      2.791147   218A      2.808384  
     219A      2.821966   220A      2.831116   221A      2.846487  
     222A      2.852729   223A      2.867336   224A      2.882882  
     225A      2.900966   226A      2.919781   227A      2.935622  
     228A      2.997746   229A      3.016787   230A      3.047646  
     231A      3.061233   232A      3.080846   233A      3.092093  
     234A      3.110685   235A      3.125580   236A      3.161266  
     237A      3.182739   238A      3.265740   239A      3.275939  
     240A      3.288462   241A      3.313298   242A      3.333641  
     243A      3.345888   244A      3.353422   245A      3.394134  
     246A      3.400371   247A      3.422635   248A      3.453733  
     249A      3.485207   250A      3.493816   251A      3.513518  
     252A      3.522495   253A      3.708698   254A      3.746116  
     255A      3.767615   256A      3.775475   257A      3.795017  
     258A      3.815703   259A      3.989972   260A      4.070210  
     261A      4.085493   262A      4.113279   263A      4.121031  
     264A      4.175372   265A      4.202841   266A      4.229355  
     267A      4.266315   268A      4.284371   269A      4.344403  
     270A      4.367304   271A      4.372293   272A      4.412044  
     273A      4.422905   274A      4.456847   275A      4.459058  
     276A      4.466281   277A      4.488715   278A      4.510350  
     279A      4.523273   280A      4.535529   281A      4.552307  
     282A      4.564937   283A      4.596233   284A      4.611161  
     285A      4.616998   286A      4.632359   287A      4.645444  
     288A      4.666015   289A      4.677602   290A      4.703613  
     291A      4.746667   292A      4.767587   293A      4.778789  
     294A      4.798369   295A      4.818109   296A      4.841739  
     297A      4.904995   298A      4.912814   299A      4.918913  
     300A      4.933975   301A      4.943839   302A      4.995285  
     303A      5.009008   304A      5.022688   305A      5.062307  
     306A      5.069701   307A      5.112547   308A      5.119578  
     309A      5.178071   310A      5.203535   311A      5.227422  
     312A      5.266883   313A      5.281050   314A      5.306353  
     315A      5.343728   316A      5.358903   317A      5.406618  
     318A      5.450593   319A      5.481588   320A      5.495340  
     321A      5.589099   322A      5.607010   323A      5.615950  
     324A      5.627999   325A      5.656315   326A      5.688404  
     327A      5.707604   328A      5.713887   329A      5.742869  
     330A      5.746406   331A      5.771950   332A      5.823927  
     333A      5.931553   334A      6.084894   335A      6.112364  
     336A      6.207828   337A      6.256106   338A      6.299538  
     339A      6.415255   340A      6.437315   341A      6.481514  
     342A      6.511848   343A      6.600092   344A      6.642440  
     345A      6.675911   346A      6.681331   347A      6.914120  
     348A      7.071636   349A      7.088135   350A      7.104385  
     351A      7.184177   352A      7.280595   353A      7.375417  
     354A      7.410089   355A      7.415027   356A      7.530219  
     357A      7.574387   358A      7.736883   359A      7.771328  
     360A      7.839351   361A      7.871001   362A      7.939921  
     363A      7.955113   364A      7.974826   365A      8.040933  
     366A      8.068812   367A      8.110293   368A      8.159666  
     369A      8.232936   370A      8.255220   371A      8.288737  
     372A      8.303471   373A      8.310952   374A      8.351514  
     375A      8.410982   376A      8.809327   377A      8.844993  
     378A      8.864416   379A      8.881221   380A      8.919677  
     381A      8.933150   382A      8.934651   383A      9.755914  
     384A      9.857691   385A      9.884764   386A      9.889067  
     387A      9.953321   388A      9.966793   389A     10.067846  
     390A     10.101799   391A     10.121182   392A     10.368088  
     393A     10.405887   394A     10.433654   395A     11.210653  
     396A     11.230408   397A     11.249691   398A     11.724125  
     399A     11.966421   400A     12.060565   401A     12.144078  
     402A     12.170421   403A     12.201740   404A     13.697690  
     405A     13.780553   406A     13.808366   407A     13.912573  
     408A     13.947947   409A     13.973638   410A     16.289225  
     411A     17.111266   412A     28.094928   413A     28.320547  
     414A     28.368495   415A     66.538652   416A     66.599686  
     417A     66.913642   418A    160.989069  

    Final Occupation by Irrep:
              A 
    DOCC [     5 ]
    NA   [     5 ]
    NB   [     5 ]

  @DF-RHF Final Energy:   -76.05848726668242

   => Energetics <=

    Nuclear Repulsion Energy =              9.0603512317068322
    One-Electron Energy =                -122.7926538635908429
    Two-Electron Energy =                  37.6738153652015839
    Total Energy =                        -76.0584872666824197

Computation Completed


Properties will be evaluated at   0.000000,   0.000000,   0.000000 [a0]

Properties computed using the SCF density matrix


 Multipole Moments:

 ------------------------------------------------------------------------------------
     Multipole            Electronic (a.u.)      Nuclear  (a.u.)        Total (a.u.)
 ------------------------------------------------------------------------------------

 L = 1.  Multiply by 2.5417464519 to convert [e a0] to [Debye]
 Dipole X            :         50.6456156          -49.9141072            0.7315084
 Dipole Y            :        -23.1351922           22.8992628           -0.2359295
 Dipole Z            :         16.0420986          -16.3129398           -0.2708412
 Magnitude           :                                                    0.8149370

 ------------------------------------------------------------------------------------

*** tstop() called on ivy at Thu Apr 25 12:58:08 2024
Module time:
	user time   =       7.17 seconds =       0.12 minutes
	system time =       0.64 seconds =       0.01 minutes
	total time  =          2 seconds =       0.03 minutes
Total time:
	user time   =       7.17 seconds =       0.12 minutes
	system time =       0.64 seconds =       0.01 minutes
	total time  =          2 seconds =       0.03 minutes

*** tstart() called on ivy
*** at Thu Apr 25 12:58:08 2024


  //>>>>>>>>>>>>>>>>>>>>>>>>>>>>>>>>>>>//
  //               DFMP2               //
  //<<<<<<<<<<<<<<<<<<<<<<<<<<<<<<<<<<<//

   => Loading Basis Set <=

    Name: (AUG-CC-PVTZ AUX)
    Role: RIFIT
    Keyword: DF_BASIS_MP2
    atoms 1                     entry CL         line   742 file /home/kchung25/miniconda3/envs/p4env/share/psi4/basis/aug-cc-pvtz-ri.gbs 
    atoms 2, 5, 8, 11           entry O          line   264 file /home/kchung25/miniconda3/envs/p4env/share/psi4/basis/aug-cc-pvtz-ri.gbs 
    atoms 3-4, 6-7, 9-10, 12-13 entry H          line    30 file /home/kchung25/miniconda3/envs/p4env/share/psi4/basis/aug-cc-pvtz-ri.gbs 

	 --------------------------------------------------------
	                          DF-MP2                         
	      2nd-Order Density-Fitted Moller-Plesset Theory     
	              RMP2 Wavefunction,   6 Threads             
	                                                         
	        Rob Parrish, Justin Turney, Andy Simmonett,      
	           Ed Hohenstein, and C. David Sherrill          
	 --------------------------------------------------------

   => Auxiliary Basis Set <=

  Basis Set: (AUG-CC-PVTZ AUX)
    Blend: AUG-CC-PVTZ-RI
    Number of shells: 261
    Number of basis functions: 939
    Number of Cartesian functions: 1175
    Spherical Harmonics?: true
    Max angular momentum: 4

	 --------------------------------------------------------
	                 NBF =   418, NAUX =   939
	 --------------------------------------------------------
	   CLASS    FOCC     OCC    AOCC    AVIR     VIR    FVIR
	   PAIRS       0       5       5     413     413       0
	 --------------------------------------------------------

	-----------------------------------------------------------
	 ==================> DF-MP2 Energies <==================== 
	-----------------------------------------------------------
	 Reference Energy          =     -76.0584872666824197 [Eh]
	 Singles Energy            =      -0.0000000000000000 [Eh]
	 Same-Spin Energy          =      -0.0688685645752484 [Eh]
	 Opposite-Spin Energy      =      -0.2177723588318556 [Eh]
	 Correlation Energy        =      -0.2866409234071040 [Eh]
	 Total Energy              =     -76.3451281900895253 [Eh]
	-----------------------------------------------------------
	 ================> DF-SCS-MP2 Energies <================== 
	-----------------------------------------------------------
	 SCS Same-Spin Scale       =       0.3333333333333333 [-]
	 SCS Opposite-Spin Scale   =       1.2000000000000000 [-]
	 SCS Same-Spin Energy      =      -0.0229561881917495 [Eh]
	 SCS Opposite-Spin Energy  =      -0.2613268305982268 [Eh]
	 SCS Correlation Energy    =      -0.2842830187899762 [Eh]
	 SCS Total Energy          =     -76.3427702854723975 [Eh]
	-----------------------------------------------------------


*** tstop() called on ivy at Thu Apr 25 12:58:09 2024
Module time:
	user time   =       3.16 seconds =       0.05 minutes
	system time =       0.40 seconds =       0.01 minutes
	total time  =          1 seconds =       0.02 minutes
Total time:
	user time   =      10.33 seconds =       0.17 minutes
	system time =       1.04 seconds =       0.02 minutes
	total time  =          3 seconds =       0.05 minutes

    Psi4 stopped on: Thursday, 25 April 2024 12:58PM
    Psi4 wall time for execution: 0:00:03.41

*** Psi4 exiting successfully. Buy a developer a beer!
