
    -----------------------------------------------------------------------
          Psi4: An Open-Source Ab Initio Electronic Structure Package
                               Psi4 1.9.1 release

                         Git: Rev {} zzzzzzz 


    D. G. A. Smith, L. A. Burns, A. C. Simmonett, R. M. Parrish,
    M. C. Schieber, R. Galvelis, P. Kraus, H. Kruse, R. Di Remigio,
    A. Alenaizan, A. M. James, S. Lehtola, J. P. Misiewicz, M. Scheurer,
    R. A. Shaw, J. B. Schriber, Y. Xie, Z. L. Glick, D. A. Sirianni,
    J. S. O'Brien, J. M. Waldrop, A. Kumar, E. G. Hohenstein,
    B. P. Pritchard, B. R. Brooks, H. F. Schaefer III, A. Yu. Sokolov,
    K. Patkowski, A. E. DePrince III, U. Bozkaya, R. A. King,
    F. A. Evangelista, J. M. Turney, T. D. Crawford, C. D. Sherrill,
    J. Chem. Phys. 152(18) 184108 (2020). https://doi.org/10.1063/5.0006002

                            Additional Code Authors
    E. T. Seidl, C. L. Janssen, E. F. Valeev, M. L. Leininger,
    J. F. Gonthier, R. M. Richard, H. R. McAlexander, M. Saitow, X. Wang,
    P. Verma, M. H. Lechner, A. Jiang, S. Behnle, A. G. Heide,
    M. F. Herbst, and D. L. Poole

             Previous Authors, Complete List of Code Contributors,
                       and Citations for Specific Modules
    https://github.com/psi4/psi4/blob/master/codemeta.json
    https://github.com/psi4/psi4/graphs/contributors
    http://psicode.org/psi4manual/master/introduction.html#citing-psifour

    -----------------------------------------------------------------------


    Psi4 started on: Thursday, 25 April 2024 01:03PM

    Process ID: 1095480
    Host:       ivy
    PSIDATADIR: /home/kchung25/miniconda3/envs/p4env/share/psi4
    Memory:     500.0 MiB
    Threads:    6
    
  ==> Input File <==

--------------------------------------------------------------------------
MEMORY 60 GB

molecule dimer {
0 1
Gh(Br)     0.000000     0.000000     0.000000
Gh(O)      3.254549    -0.104249    -0.528795
Gh(H)      2.296582    -0.168320    -0.374734
Gh(H)      3.387302     0.841606    -0.608219
Gh(O)     -2.518083     2.051371    -0.581415
Gh(H)     -1.703853     1.674382    -0.207010
Gh(H)     -2.516563     1.636470    -1.456756
Gh(O)     -4.082211    -0.088074     0.445581
Gh(H)     -3.647518     0.737277     0.167576
Gh(H)     -3.629719    -0.757063    -0.088344
Gh(O)     -2.310157    -2.192940    -0.581192
Gh(H)     -1.513275    -1.631592    -0.523839
Gh(H)     -2.417527    -2.424018     0.352130
O         -2.198556    -1.336618     2.238290
H         -1.416373    -0.945329     1.821464
H         -2.916803    -0.802952     1.862374
Gh(O)     -1.898927     0.119536    -2.674112
Gh(H)     -1.161002     0.090721    -2.038380
Gh(H)     -2.398752    -0.668230    -2.436475

units ang
no_reorient
no_com
symmetry c1
}

set {
basis        aug-cc-pVTZ
scf_type     df
}

energy("mp2")
--------------------------------------------------------------------------

  Memory set to  55.879 GiB by Python driver.

Scratch directory: /tmp/
   => Libint2 <=

    Primary   basis highest AM E, G, H:  6, 6, 3
    Auxiliary basis highest AM E, G, H:  7, 7, 4
    Onebody   basis highest AM E, G, H:  -, -, -
    Solid Harmonics ordering:            Gaussian

*** tstart() called on ivy
*** at Thu Apr 25 13:03:12 2024

   => Loading Basis Set <=

    Name: AUG-CC-PVTZ
    Role: ORBITAL
    Keyword: BASIS
    atoms 1                                   entry BR         line  4208 file /home/kchung25/miniconda3/envs/p4env/share/psi4/basis/aug-cc-pvtz.gbs 
    atoms 2, 5, 8, 11, 14, 17                 entry O          line   331 file /home/kchung25/miniconda3/envs/p4env/share/psi4/basis/aug-cc-pvtz.gbs 
    atoms 3-4, 6-7, 9-10, 12-13, 15-16, 18-19 entry H          line    40 file /home/kchung25/miniconda3/envs/p4env/share/psi4/basis/aug-cc-pvtz.gbs 


         ---------------------------------------------------------
                                   SCF
               by Justin Turney, Rob Parrish, Andy Simmonett
                          and Daniel G. A. Smith
                              RHF Reference
                        6 Threads,  57220 MiB Core
         ---------------------------------------------------------

  ==> Geometry <==

    Molecular point group: c1
    Full point group: C1

    Geometry (in Angstrom), charge = 0, multiplicity = 1:

       Center              X                  Y                   Z               Mass       
    ------------   -----------------  -----------------  -----------------  -----------------
      Gh(BR)          0.000000000000     0.000000000000     0.000000000000    78.918337600000
      Gh(O)           3.254549000000    -0.104249000000    -0.528795000000    15.994914619570
      Gh(H)           2.296582000000    -0.168320000000    -0.374734000000     1.007825032230
      Gh(H)           3.387302000000     0.841606000000    -0.608219000000     1.007825032230
      Gh(O)          -2.518083000000     2.051371000000    -0.581415000000    15.994914619570
      Gh(H)          -1.703853000000     1.674382000000    -0.207010000000     1.007825032230
      Gh(H)          -2.516563000000     1.636470000000    -1.456756000000     1.007825032230
      Gh(O)          -4.082211000000    -0.088074000000     0.445581000000    15.994914619570
      Gh(H)          -3.647518000000     0.737277000000     0.167576000000     1.007825032230
      Gh(H)          -3.629719000000    -0.757063000000    -0.088344000000     1.007825032230
      Gh(O)          -2.310157000000    -2.192940000000    -0.581192000000    15.994914619570
      Gh(H)          -1.513275000000    -1.631592000000    -0.523839000000     1.007825032230
      Gh(H)          -2.417527000000    -2.424018000000     0.352130000000     1.007825032230
         O           -2.198556000000    -1.336618000000     2.238290000000    15.994914619570
         H           -1.416373000000    -0.945329000000     1.821464000000     1.007825032230
         H           -2.916803000000    -0.802952000000     1.862374000000     1.007825032230
      Gh(O)          -1.898927000000     0.119536000000    -2.674112000000    15.994914619570
      Gh(H)          -1.161002000000     0.090721000000    -2.038380000000     1.007825032230
      Gh(H)          -2.398752000000    -0.668230000000    -2.436475000000     1.007825032230

  Running in c1 symmetry.

  Rotational constants: A =      0.04012  B =      0.01701  C =      0.01518 [cm^-1]
  Rotational constants: A =   1202.88263  B =    509.93065  C =    454.96401 [MHz]
  Nuclear repulsion =    9.082346936965713

  Charge       = 0
  Multiplicity = 1
  Electrons    = 10
  Nalpha       = 5
  Nbeta        = 5

  ==> Algorithm <==

  SCF Algorithm Type is DF.
  DIIS enabled.
  MOM disabled.
  Fractional occupation disabled.
  Guess Type is SAD.
  Energy threshold   = 1.00e-08
  Density threshold  = 1.00e-08
  Integral threshold = 1.00e-12

  ==> Primary Basis <==

  Basis Set: AUG-CC-PVTZ
    Blend: AUG-CC-PVTZ
    Number of shells: 211
    Number of basis functions: 611
    Number of Cartesian functions: 699
    Spherical Harmonics?: true
    Max angular momentum: 3

   => Loading Basis Set <=

    Name: (AUG-CC-PVTZ AUX)
    Role: JKFIT
    Keyword: DF_BASIS_SCF
    atoms 1                                   entry BR         line  1492 file /home/kchung25/miniconda3/envs/p4env/share/psi4/basis/aug-cc-pvtz-jkfit.gbs 
    atoms 2, 5, 8, 11, 14, 17                 entry O          line   286 file /home/kchung25/miniconda3/envs/p4env/share/psi4/basis/aug-cc-pvtz-jkfit.gbs 
    atoms 3-4, 6-7, 9-10, 12-13, 15-16, 18-19 entry H          line    70 file /home/kchung25/miniconda3/envs/p4env/share/psi4/basis/aug-cc-pvtz-jkfit.gbs 

  ==> Integral Setup <==

  DFHelper Memory: AOs need 3.607 GiB; user supplied 41.910 GiB. 
  Using in-core AOs.

  ==> MemDFJK: Density-Fitted J/K Matrices <==

    J tasked:                   Yes
    K tasked:                   Yes
    wK tasked:                   No
    OpenMP threads:               6
    Memory [MiB]:             42915
    Algorithm:                 Core
    Schwarz Cutoff:           1E-12
    Mask sparsity (%):      11.6356
    Fitting Condition:        1E-10

   => Auxiliary Basis Set <=

  Basis Set: (AUG-CC-PVTZ AUX)
    Blend: AUG-CC-PVTZ-JKFIT
    Number of shells: 406
    Number of basis functions: 1424
    Number of Cartesian functions: 1775
    Spherical Harmonics?: true
    Max angular momentum: 4

  Minimum eigenvalue in the overlap matrix is 5.7148180240E-05.
  Reciprocal condition number of the overlap matrix is 3.2381096247E-06.
    Using symmetric orthogonalization.

  ==> Pre-Iterations <==

  SCF Guess: Superposition of Atomic Densities via on-the-fly atomic UHF (no occupation information).

   -------------------------
    Irrep   Nso     Nmo    
   -------------------------
     A        611     611 
   -------------------------
    Total     611     611
   -------------------------

  ==> Iterations <==

                           Total Energy        Delta E     RMS |[F,P]|

   @DF-RHF iter SAD:   -75.46619343164826   -7.54662e+01   0.00000e+00 
   @DF-RHF iter   1:   -75.97432126328690   -5.08128e-01   7.65493e-04 DIIS/ADIIS
   @DF-RHF iter   2:   -76.02655417387534   -5.22329e-02   5.29078e-04 DIIS/ADIIS
   @DF-RHF iter   3:   -76.05895116421242   -3.23970e-02   3.59681e-05 DIIS
   @DF-RHF iter   4:   -76.05935254005743   -4.01376e-04   8.81726e-06 DIIS
   @DF-RHF iter   5:   -76.05937923212721   -2.66921e-05   2.03621e-06 DIIS
   @DF-RHF iter   6:   -76.05938146453872   -2.23241e-06   4.43865e-07 DIIS
   @DF-RHF iter   7:   -76.05938157990782   -1.15369e-07   7.73511e-08 DIIS
   @DF-RHF iter   8:   -76.05938158294950   -3.04168e-09   1.30367e-08 DIIS
   @DF-RHF iter   9:   -76.05938158301730   -6.78000e-11   3.19824e-09 DIIS
  Energy and wave function converged.


  ==> Post-Iterations <==

    Orbital Energies [Eh]
    ---------------------

    Doubly Occupied:                                                      

       1A    -20.570279     2A     -1.348863     3A     -0.706169  
       4A     -0.587250     5A     -0.510034  

    Virtual:                                                              

       6A      0.014566     7A      0.029389     8A      0.037300  
       9A      0.040550    10A      0.049966    11A      0.056361  
      12A      0.060168    13A      0.064448    14A      0.067029  
      15A      0.070880    16A      0.079067    17A      0.087046  
      18A      0.098536    19A      0.100015    20A      0.113891  
      21A      0.121234    22A      0.127775    23A      0.137559  
      24A      0.140186    25A      0.148485    26A      0.155393  
      27A      0.157699    28A      0.167892    29A      0.172570  
      30A      0.176072    31A      0.179821    32A      0.186148  
      33A      0.191241    34A      0.192810    35A      0.202129  
      36A      0.209626    37A      0.213089    38A      0.219337  
      39A      0.225206    40A      0.227205    41A      0.231014  
      42A      0.239696    43A      0.242479    44A      0.245686  
      45A      0.259359    46A      0.262175    47A      0.281935  
      48A      0.294010    49A      0.296675    50A      0.300904  
      51A      0.304659    52A      0.311777    53A      0.314970  
      54A      0.319129    55A      0.325226    56A      0.335785  
      57A      0.344267    58A      0.351470    59A      0.353988  
      60A      0.363327    61A      0.371061    62A      0.378834  
      63A      0.382197    64A      0.387864    65A      0.397648  
      66A      0.401099    67A      0.410040    68A      0.412772  
      69A      0.415411    70A      0.421258    71A      0.427921  
      72A      0.441349    73A      0.447806    74A      0.453286  
      75A      0.457283    76A      0.460874    77A      0.463238  
      78A      0.473818    79A      0.481214    80A      0.487908  
      81A      0.495029    82A      0.504859    83A      0.508094  
      84A      0.513499    85A      0.519399    86A      0.523182  
      87A      0.533516    88A      0.538472    89A      0.550304  
      90A      0.563003    91A      0.571769    92A      0.573931  
      93A      0.578529    94A      0.583996    95A      0.592767  
      96A      0.605441    97A      0.619693    98A      0.632086  
      99A      0.646264   100A      0.652898   101A      0.658426  
     102A      0.663902   103A      0.693890   104A      0.711143  
     105A      0.715060   106A      0.724363   107A      0.728863  
     108A      0.742907   109A      0.744510   110A      0.760811  
     111A      0.766442   112A      0.776287   113A      0.784567  
     114A      0.791131   115A      0.798972   116A      0.808679  
     117A      0.812525   118A      0.814540   119A      0.817217  
     120A      0.828627   121A      0.834016   122A      0.842464  
     123A      0.844430   124A      0.851466   125A      0.861738  
     126A      0.864788   127A      0.871621   128A      0.875118  
     129A      0.886640   130A      0.891190   131A      0.898460  
     132A      0.901590   133A      0.909859   134A      0.916509  
     135A      0.924821   136A      0.925949   137A      0.929816  
     138A      0.937714   139A      0.942944   140A      0.951327  
     141A      0.956441   142A      0.966815   143A      0.971379  
     144A      0.980916   145A      0.984714   146A      0.992274  
     147A      0.997568   148A      1.002290   149A      1.013376  
     150A      1.020608   151A      1.023843   152A      1.028284  
     153A      1.035777   154A      1.040144   155A      1.046171  
     156A      1.056825   157A      1.063575   158A      1.067462  
     159A      1.074336   160A      1.081214   161A      1.083571  
     162A      1.094083   163A      1.105676   164A      1.110638  
     165A      1.123078   166A      1.125334   167A      1.139388  
     168A      1.143388   169A      1.157717   170A      1.164091  
     171A      1.166390   172A      1.178542   173A      1.179310  
     174A      1.190333   175A      1.195850   176A      1.199809  
     177A      1.213967   178A      1.225758   179A      1.235124  
     180A      1.240424   181A      1.247503   182A      1.250754  
     183A      1.263626   184A      1.272470   185A      1.285147  
     186A      1.291775   187A      1.298868   188A      1.303687  
     189A      1.305735   190A      1.324269   191A      1.330155  
     192A      1.335513   193A      1.347175   194A      1.356719  
     195A      1.360540   196A      1.372762   197A      1.380642  
     198A      1.390512   199A      1.402881   200A      1.408544  
     201A      1.419891   202A      1.435462   203A      1.445647  
     204A      1.456403   205A      1.462224   206A      1.473986  
     207A      1.477435   208A      1.491209   209A      1.499176  
     210A      1.507174   211A      1.521521   212A      1.527079  
     213A      1.537222   214A      1.558028   215A      1.563637  
     216A      1.579641   217A      1.588303   218A      1.606580  
     219A      1.615599   220A      1.622287   221A      1.632593  
     222A      1.641385   223A      1.648674   224A      1.650622  
     225A      1.662227   226A      1.677093   227A      1.677997  
     228A      1.694543   229A      1.697931   230A      1.711441  
     231A      1.724760   232A      1.728601   233A      1.731606  
     234A      1.743574   235A      1.751933   236A      1.762206  
     237A      1.767569   238A      1.795206   239A      1.796820  
     240A      1.808544   241A      1.820997   242A      1.826242  
     243A      1.836169   244A      1.843274   245A      1.846733  
     246A      1.873839   247A      1.881859   248A      1.897715  
     249A      1.902945   250A      1.912671   251A      1.913685  
     252A      1.931963   253A      1.949301   254A      1.956761  
     255A      1.965879   256A      1.982525   257A      1.990244  
     258A      1.994097   259A      1.996068   260A      2.005841  
     261A      2.019238   262A      2.040013   263A      2.049894  
     264A      2.056167   265A      2.072015   266A      2.081845  
     267A      2.108890   268A      2.111612   269A      2.142105  
     270A      2.149972   271A      2.180910   272A      2.184216  
     273A      2.204537   274A      2.226749   275A      2.240284  
     276A      2.279478   277A      2.298102   278A      2.316029  
     279A      2.352082   280A      2.441118   281A      2.472711  
     282A      2.476639   283A      2.493478   284A      2.517990  
     285A      2.542419   286A      2.562337   287A      2.568938  
     288A      2.591241   289A      2.601571   290A      2.608908  
     291A      2.611115   292A      2.619309   293A      2.631746  
     294A      2.651244   295A      2.661671   296A      2.662613  
     297A      2.669445   298A      2.681539   299A      2.693106  
     300A      2.701503   301A      2.716415   302A      2.732635  
     303A      2.745349   304A      2.758918   305A      2.767396  
     306A      2.779587   307A      2.787303   308A      2.797084  
     309A      2.808449   310A      2.815265   311A      2.831624  
     312A      2.842008   313A      2.859716   314A      2.864957  
     315A      2.878536   316A      2.901091   317A      2.911448  
     318A      2.934488   319A      2.939775   320A      2.944675  
     321A      2.954488   322A      2.966057   323A      2.972029  
     324A      2.989307   325A      3.001336   326A      3.013754  
     327A      3.027763   328A      3.040881   329A      3.058281  
     330A      3.089040   331A      3.101197   332A      3.109865  
     333A      3.128202   334A      3.147412   335A      3.154465  
     336A      3.185991   337A      3.202127   338A      3.225777  
     339A      3.234012   340A      3.258420   341A      3.270195  
     342A      3.281425   343A      3.293757   344A      3.305878  
     345A      3.314170   346A      3.324551   347A      3.347179  
     348A      3.356884   349A      3.383943   350A      3.393082  
     351A      3.397614   352A      3.412987   353A      3.427933  
     354A      3.438605   355A      3.441383   356A      3.459625  
     357A      3.467356   358A      3.490138   359A      3.490999  
     360A      3.510222   361A      3.527886   362A      3.535495  
     363A      3.540806   364A      3.576684   365A      3.579778  
     366A      3.600345   367A      3.609675   368A      3.619386  
     369A      3.625595   370A      3.643900   371A      3.681773  
     372A      3.694815   373A      3.714594   374A      3.719307  
     375A      3.755210   376A      3.787573   377A      3.799869  
     378A      3.820444   379A      3.846686   380A      3.858301  
     381A      3.863484   382A      3.893204   383A      3.902715  
     384A      3.934156   385A      3.949516   386A      3.971132  
     387A      3.985932   388A      4.038671   389A      4.118795  
     390A      4.208824   391A      4.273149   392A      4.325353  
     393A      4.357582   394A      4.386768   395A      4.395913  
     396A      4.452241   397A      4.467250   398A      4.484146  
     399A      4.493113   400A      4.507265   401A      4.515668  
     402A      4.548965   403A      4.554244   404A      4.563044  
     405A      4.582791   406A      4.589750   407A      4.607394  
     408A      4.619492   409A      4.632790   410A      4.651722  
     411A      4.660026   412A      4.682697   413A      4.690120  
     414A      4.700835   415A      4.706907   416A      4.738049  
     417A      4.760851   418A      4.773026   419A      4.791603  
     420A      4.805235   421A      4.826372   422A      4.847656  
     423A      4.872516   424A      4.880349   425A      4.891884  
     426A      4.915493   427A      4.932615   428A      4.939870  
     429A      4.946218   430A      4.978972   431A      4.986603  
     432A      5.014482   433A      5.041575   434A      5.056784  
     435A      5.097473   436A      5.108959   437A      5.129054  
     438A      5.146358   439A      5.170320   440A      5.199167  
     441A      5.223316   442A      5.233072   443A      5.245819  
     444A      5.273794   445A      5.286807   446A      5.305399  
     447A      5.333395   448A      5.349581   449A      5.377921  
     450A      5.384820   451A      5.422893   452A      5.435085  
     453A      5.466051   454A      5.470030   455A      5.536338  
     456A      5.564862   457A      5.580254   458A      5.600326  
     459A      5.616374   460A      5.623937   461A      5.637598  
     462A      5.641283   463A      5.681443   464A      5.695060  
     465A      5.704549   466A      5.720491   467A      5.732214  
     468A      5.745952   469A      5.801495   470A      5.813614  
     471A      5.876941   472A      5.893089   473A      5.912316  
     474A      6.020044   475A      6.036695   476A      6.115517  
     477A      6.144659   478A      6.228064   479A      6.306248  
     480A      6.344071   481A      6.357372   482A      6.400302  
     483A      6.416503   484A      6.426324   485A      6.468504  
     486A      6.492089   487A      6.515734   488A      6.537064  
     489A      6.594825   490A      6.653909   491A      6.665255  
     492A      6.678855   493A      6.728190   494A      6.781956  
     495A      6.882775   496A      7.050883   497A      7.096425  
     498A      7.125379   499A      7.137305   500A      7.170002  
     501A      7.179900   502A      7.318423   503A      7.378860  
     504A      7.389372   505A      7.416831   506A      7.486830  
     507A      7.555695   508A      7.692553   509A      7.774328  
     510A      7.833693   511A      7.859904   512A      7.864318  
     513A      7.878310   514A      7.915315   515A      7.936108  
     516A      7.968673   517A      8.021367   518A      8.033882  
     519A      8.039877   520A      8.063749   521A      8.075012  
     522A      8.160532   523A      8.178478   524A      8.190984  
     525A      8.220946   526A      8.248026   527A      8.283973  
     528A      8.292765   529A      8.299665   530A      8.345204  
     531A      8.383332   532A      8.394163   533A      8.435678  
     534A      8.441727   535A      8.498030   536A      8.786594  
     537A      8.844933   538A      8.851781   539A      8.865169  
     540A      8.915149   541A      8.940958   542A      8.950532  
     543A      8.965398   544A      8.977206   545A      9.014808  
     546A      9.026223   547A      9.706266   548A      9.859419  
     549A      9.881299   550A      9.932949   551A      9.960269  
     552A      9.968011   553A      9.976099   554A     10.027796  
     555A     10.059265   556A     10.068842   557A     10.089594  
     558A     10.118288   559A     10.143541   560A     10.179856  
     561A     10.242348   562A     10.322762   563A     10.375942  
     564A     10.416600   565A     10.455480   566A     10.473789  
     567A     11.221267   568A     11.228001   569A     11.239788  
     570A     11.251575   571A     11.275340   572A     11.713923  
     573A     11.759897   574A     11.998777   575A     12.035146  
     576A     12.059779   577A     12.130046   578A     12.185172  
     579A     12.210491   580A     12.300624   581A     12.367509  
     582A     12.487053   583A     13.579755   584A     13.733005  
     585A     13.783287   586A     13.830020   587A     13.918875  
     588A     13.937510   589A     13.979984   590A     14.001243  
     591A     14.024857   592A     14.049105   593A     14.094232  
     594A     14.171918   595A     14.290609   596A     16.952404  
     597A     26.332893   598A     26.569564   599A     26.576662  
     600A     26.649021   601A     26.712413   602A     46.977318  
     603A     66.322989   604A     66.946844   605A     67.017260  
     606A     67.431812   607A     68.937854   608A    139.145838  
     609A    139.274641   610A    139.641734   611A    713.347339  

    Final Occupation by Irrep:
              A 
    DOCC [     5 ]
    NA   [     5 ]
    NB   [     5 ]

  @DF-RHF Final Energy:   -76.05938158301730

   => Energetics <=

    Nuclear Repulsion Energy =              9.0823469369657133
    One-Electron Energy =                -122.8382628179292908
    Two-Electron Energy =                  37.6965342979462932
    Total Energy =                        -76.0593815830172844

Computation Completed


Properties will be evaluated at   0.000000,   0.000000,   0.000000 [a0]

Properties computed using the SCF density matrix


 Multipole Moments:

 ------------------------------------------------------------------------------------
     Multipole            Electronic (a.u.)      Nuclear  (a.u.)        Total (a.u.)
 ------------------------------------------------------------------------------------

 L = 1.  Multiply by 2.5417464519 to convert [e a0] to [Debye]
 Dipole X            :         41.4680193          -41.4258656            0.0421537
 Dipole Y            :         24.1165888          -23.5105079            0.6060809
 Dipole Z            :        -41.3187068           40.7994856           -0.5192212
 Magnitude           :                                                    0.7991881

 ------------------------------------------------------------------------------------

*** tstop() called on ivy at Thu Apr 25 13:03:19 2024
Module time:
	user time   =      25.69 seconds =       0.43 minutes
	system time =       1.85 seconds =       0.03 minutes
	total time  =          7 seconds =       0.12 minutes
Total time:
	user time   =      25.69 seconds =       0.43 minutes
	system time =       1.85 seconds =       0.03 minutes
	total time  =          7 seconds =       0.12 minutes

*** tstart() called on ivy
*** at Thu Apr 25 13:03:19 2024


  //>>>>>>>>>>>>>>>>>>>>>>>>>>>>>>>>>>>//
  //               DFMP2               //
  //<<<<<<<<<<<<<<<<<<<<<<<<<<<<<<<<<<<//

   => Loading Basis Set <=

    Name: (AUG-CC-PVTZ AUX)
    Role: RIFIT
    Keyword: DF_BASIS_MP2
    atoms 1                                   entry BR         line  1248 file /home/kchung25/miniconda3/envs/p4env/share/psi4/basis/aug-cc-pvtz-ri.gbs 
    atoms 2, 5, 8, 11, 14, 17                 entry O          line   264 file /home/kchung25/miniconda3/envs/p4env/share/psi4/basis/aug-cc-pvtz-ri.gbs 
    atoms 3-4, 6-7, 9-10, 12-13, 15-16, 18-19 entry H          line    30 file /home/kchung25/miniconda3/envs/p4env/share/psi4/basis/aug-cc-pvtz-ri.gbs 

	 --------------------------------------------------------
	                          DF-MP2                         
	      2nd-Order Density-Fitted Moller-Plesset Theory     
	              RMP2 Wavefunction,   6 Threads             
	                                                         
	        Rob Parrish, Justin Turney, Andy Simmonett,      
	           Ed Hohenstein, and C. David Sherrill          
	 --------------------------------------------------------

   => Auxiliary Basis Set <=

  Basis Set: (AUG-CC-PVTZ AUX)
    Blend: AUG-CC-PVTZ-RI
    Number of shells: 379
    Number of basis functions: 1379
    Number of Cartesian functions: 1737
    Spherical Harmonics?: true
    Max angular momentum: 5

	 --------------------------------------------------------
	                 NBF =   611, NAUX =  1379
	 --------------------------------------------------------
	   CLASS    FOCC     OCC    AOCC    AVIR     VIR    FVIR
	   PAIRS       0       5       5     606     606       0
	 --------------------------------------------------------

	-----------------------------------------------------------
	 ==================> DF-MP2 Energies <==================== 
	-----------------------------------------------------------
	 Reference Energy          =     -76.0593815830172986 [Eh]
	 Singles Energy            =      -0.0000000000000000 [Eh]
	 Same-Spin Energy          =      -0.0687359359509806 [Eh]
	 Opposite-Spin Energy      =      -0.2173097420927325 [Eh]
	 Correlation Energy        =      -0.2860456780437131 [Eh]
	 Total Energy              =     -76.3454272610610047 [Eh]
	-----------------------------------------------------------
	 ================> DF-SCS-MP2 Energies <================== 
	-----------------------------------------------------------
	 SCS Same-Spin Scale       =       0.3333333333333333 [-]
	 SCS Opposite-Spin Scale   =       1.2000000000000000 [-]
	 SCS Same-Spin Energy      =      -0.0229119786503269 [Eh]
	 SCS Opposite-Spin Energy  =      -0.2607716905112790 [Eh]
	 SCS Correlation Energy    =      -0.2836836691616059 [Eh]
	 SCS Total Energy          =     -76.3430652521789028 [Eh]
	-----------------------------------------------------------


*** tstop() called on ivy at Thu Apr 25 13:03:23 2024
Module time:
	user time   =       9.78 seconds =       0.16 minutes
	system time =       1.17 seconds =       0.02 minutes
	total time  =          4 seconds =       0.07 minutes
Total time:
	user time   =      35.47 seconds =       0.59 minutes
	system time =       3.02 seconds =       0.05 minutes
	total time  =         11 seconds =       0.18 minutes

    Psi4 stopped on: Thursday, 25 April 2024 01:03PM
    Psi4 wall time for execution: 0:00:11.03

*** Psi4 exiting successfully. Buy a developer a beer!
