
    -----------------------------------------------------------------------
          Psi4: An Open-Source Ab Initio Electronic Structure Package
                               Psi4 1.9 release

                         Git: Rev {} zzzzzzz 


    D. G. A. Smith, L. A. Burns, A. C. Simmonett, R. M. Parrish,
    M. C. Schieber, R. Galvelis, P. Kraus, H. Kruse, R. Di Remigio,
    A. Alenaizan, A. M. James, S. Lehtola, J. P. Misiewicz, M. Scheurer,
    R. A. Shaw, J. B. Schriber, Y. Xie, Z. L. Glick, D. A. Sirianni,
    J. S. O'Brien, J. M. Waldrop, A. Kumar, E. G. Hohenstein,
    B. P. Pritchard, B. R. Brooks, H. F. Schaefer III, A. Yu. Sokolov,
    K. Patkowski, A. E. DePrince III, U. Bozkaya, R. A. King,
    F. A. Evangelista, J. M. Turney, T. D. Crawford, C. D. Sherrill,
    J. Chem. Phys. 152(18) 184108 (2020). https://doi.org/10.1063/5.0006002

                            Additional Code Authors
    E. T. Seidl, C. L. Janssen, E. F. Valeev, M. L. Leininger,
    J. F. Gonthier, R. M. Richard, H. R. McAlexander, M. Saitow, X. Wang,
    P. Verma, M. H. Lechner, A. Jiang, S. Behnle, A. G. Heide,
    M. F. Herbst, and D. L. Poole

             Previous Authors, Complete List of Code Contributors,
                       and Citations for Specific Modules
    https://github.com/psi4/psi4/blob/master/codemeta.json
    https://github.com/psi4/psi4/graphs/contributors
    http://psicode.org/psi4manual/master/introduction.html#citing-psifour

    -----------------------------------------------------------------------


    Psi4 started on: Wednesday, 03 January 2024 03:04PM

    Process ID: 407165
    Host:       moses-razer
    PSIDATADIR: /home/kchung25/anaconda3/envs/psi4_19/share/psi4
    Memory:     500.0 MiB
    Threads:    6
    
  ==> Input File <==

--------------------------------------------------------------------------
MEMORY 60 GB

molecule dimer {
0 1
O      0.000000     0.000000     0.000000
H      0.175753     0.941808     0.000000
H      0.919386    -0.362740     0.000000
--
-1 1
Cl     3.070352     0.000000     0.000000

units ang
no_reorient
no_com
symmetry c1
}

set {
basis        aug-cc-pVTZ
scf_type     df
}

energy("mp2", bsse_type="cp")
--------------------------------------------------------------------------

  Memory set to  55.879 GiB by Python driver.

Scratch directory: /scratch/

  //>>>>>>>>>>>>>>>>>>>>>>>>>>>>>>>>>>>>>//
  // ManyBody Setup: N-Body Levels [1, 2]//
  //<<<<<<<<<<<<<<<<<<<<<<<<<<<<<<<<<<<<<//

        Number of 1-body computations:     2
        Number of 2-body computations:     1

    -----------------------------------------------------------------------
          Psi4: An Open-Source Ab Initio Electronic Structure Package
                               Psi4 1.9 release

                         Git: Rev {} zzzzzzz 


    D. G. A. Smith, L. A. Burns, A. C. Simmonett, R. M. Parrish,
    M. C. Schieber, R. Galvelis, P. Kraus, H. Kruse, R. Di Remigio,
    A. Alenaizan, A. M. James, S. Lehtola, J. P. Misiewicz, M. Scheurer,
    R. A. Shaw, J. B. Schriber, Y. Xie, Z. L. Glick, D. A. Sirianni,
    J. S. O'Brien, J. M. Waldrop, A. Kumar, E. G. Hohenstein,
    B. P. Pritchard, B. R. Brooks, H. F. Schaefer III, A. Yu. Sokolov,
    K. Patkowski, A. E. DePrince III, U. Bozkaya, R. A. King,
    F. A. Evangelista, J. M. Turney, T. D. Crawford, C. D. Sherrill,
    J. Chem. Phys. 152(18) 184108 (2020). https://doi.org/10.1063/5.0006002

                            Additional Code Authors
    E. T. Seidl, C. L. Janssen, E. F. Valeev, M. L. Leininger,
    J. F. Gonthier, R. M. Richard, H. R. McAlexander, M. Saitow, X. Wang,
    P. Verma, M. H. Lechner, A. Jiang, S. Behnle, A. G. Heide,
    M. F. Herbst, and D. L. Poole

             Previous Authors, Complete List of Code Contributors,
                       and Citations for Specific Modules
    https://github.com/psi4/psi4/blob/master/codemeta.json
    https://github.com/psi4/psi4/graphs/contributors
    http://psicode.org/psi4manual/master/introduction.html#citing-psifour

    -----------------------------------------------------------------------


    Psi4 started on: Wednesday, 03 January 2024 03:04PM

    Process ID: 407165
    Host:       moses-razer
    PSIDATADIR: /home/kchung25/anaconda3/envs/psi4_19/share/psi4
    Memory:     55.9 GiB
    Threads:    6
    
  ==> Input QCSchema <==

--------------------------------------------------------------------------
{'driver': 'energy',
 'extras': {'psiapi': True, 'wfn_qcvars_only': True},
 'id': None,
 'keywords': {'SCF_TYPE': 'DF', 'function_kwargs': {}},
 'model': {'basis': 'aug-cc-pvtz', 'method': 'mp2'},
 'molecule': {'atom_labels': ['', '', '', ''],
              'atomic_numbers': [8, 1, 1, 17],
              'extras': {},
              'fix_com': True,
              'fix_orientation': True,
              'fix_symmetry': 'c1',
              'fragment_charges': [0.0, -1.0],
              'fragment_multiplicities': [1, 1],
              'fragments': [[0, 1, 2], [3]],
              'geometry': [0.0, 0.0, 0.0, 0.33212503572758967, 1.7797591827651862, 0.0, 1.7373877435801708,
                           -0.6854792547485726, 0.0, 5.802124388751694, 0.0, 0.0],
              'mass_numbers': [16, 1, 1, 35],
              'masses': [15.99491461957, 1.00782503223, 1.00782503223, 34.968852682],
              'molecular_charge': -1.0,
              'molecular_multiplicity': 1,
              'name': 'dimer',
              'provenance': {'creator': 'QCElemental',
                             'routine': 'qcelemental.molparse.from_string',
                             'version': '0.27.1'},
              'real': [False, False, False, True],
              'schema_name': 'qcschema_molecule',
              'schema_version': 2,
              'symbols': ['O', 'H', 'H', 'Cl'],
              'validated': True},
 'protocols': {'stdout': True},
 'provenance': {'creator': 'QCElemental', 'routine': 'qcelemental.models.results', 'version': '0.27.1'},
 'schema_name': 'qcschema_input',
 'schema_version': 1}
--------------------------------------------------------------------------

Scratch directory: /scratch/
   => Libint2 <=

    Primary   basis highest AM E, G, H:  5, 4, 3
    Auxiliary basis highest AM E, G, H:  6, 5, 4
    Onebody   basis highest AM E, G, H:  6, 5, 4
    Solid Harmonics ordering:            gaussian

*** tstart() called on moses-razer
*** at Wed Jan  3 15:04:18 2024

   => Loading Basis Set <=

    Name: AUG-CC-PVTZ
    Role: ORBITAL
    Keyword: BASIS
    atoms 1   entry O          line   331 file /home/kchung25/anaconda3/envs/p415env/share/psi4/basis/aug-cc-pvtz.gbs 
    atoms 2-3 entry H          line    40 file /home/kchung25/anaconda3/envs/p415env/share/psi4/basis/aug-cc-pvtz.gbs 
    atoms 4   entry CL         line   988 file /home/kchung25/anaconda3/envs/p415env/share/psi4/basis/aug-cc-pvtz.gbs 


         ---------------------------------------------------------
                                   SCF
               by Justin Turney, Rob Parrish, Andy Simmonett
                          and Daniel G. A. Smith
                              RHF Reference
                        6 Threads,  57220 MiB Core
         ---------------------------------------------------------

  ==> Geometry <==

    Molecular point group: c1
    Full point group: Cs

    Geometry (in Bohr), charge = -1, multiplicity = 1:

       Center              X                  Y                   Z               Mass       
    ------------   -----------------  -----------------  -----------------  -----------------
      Gh(O)           0.000000000000     0.000000000000     0.000000000000    15.994914619570
      Gh(H)           0.332125035728     1.779759182765     0.000000000000     1.007825032230
      Gh(H)           1.737387743580    -0.685479254749     0.000000000000     1.007825032230
         CL           5.802124388752     0.000000000000     0.000000000000    34.968852682000

  Running in c1 symmetry.

  Rotational constants: A =     16.42298  B =      0.05100  C =      0.05084 [cm^-1]
  Rotational constants: A = 492348.47158  B =   1528.96524  C =   1524.23181 [MHz]
  Nuclear repulsion =    0.000000000000000

  Charge       = -1
  Multiplicity = 1
  Electrons    = 18
  Nalpha       = 9
  Nbeta        = 9

  ==> Algorithm <==

  SCF Algorithm Type is DF.
  DIIS enabled.
  MOM disabled.
  Fractional occupation disabled.
  Guess Type is SAD.
  Energy threshold   = 1.00e-08
  Density threshold  = 1.00e-08
  Integral threshold = 1.00e-12

  ==> Primary Basis <==

  Basis Set: AUG-CC-PVTZ
    Blend: AUG-CC-PVTZ
    Number of shells: 48
    Number of basis functions: 142
    Number of Cartesian functions: 164
    Spherical Harmonics?: true
    Max angular momentum: 3

   => Loading Basis Set <=

    Name: (AUG-CC-PVTZ AUX)
    Role: JKFIT
    Keyword: DF_BASIS_SCF
    atoms 1   entry O          line   286 file /home/kchung25/anaconda3/envs/p415env/share/psi4/basis/aug-cc-pvtz-jkfit.gbs 
    atoms 2-3 entry H          line    70 file /home/kchung25/anaconda3/envs/p415env/share/psi4/basis/aug-cc-pvtz-jkfit.gbs 
    atoms 4   entry CL         line   816 file /home/kchung25/anaconda3/envs/p415env/share/psi4/basis/aug-cc-pvtz-jkfit.gbs 

  ==> Integral Setup <==

  DFHelper Memory: AOs need 0.057 GiB; user supplied 41.910 GiB. 
  Using in-core AOs.

  ==> MemDFJK: Density-Fitted J/K Matrices <==

    J tasked:                   Yes
    K tasked:                   Yes
    wK tasked:                   No
    OpenMP threads:               6
    Memory [MiB]:             42915
    Algorithm:                 Core
    Schwarz Cutoff:           1E-12
    Mask sparsity (%):       0.0000
    Fitting Condition:        1E-10

   => Auxiliary Basis Set <=

  Basis Set: (AUG-CC-PVTZ AUX)
    Blend: AUG-CC-PVTZ-JKFIT
    Number of shells: 100
    Number of basis functions: 342
    Number of Cartesian functions: 421
    Spherical Harmonics?: true
    Max angular momentum: 4

  Minimum eigenvalue in the overlap matrix is 2.9459360652E-04.
  Reciprocal condition number of the overlap matrix is 3.8706603074E-05.
    Using symmetric orthogonalization.

  ==> Pre-Iterations <==

  SCF Guess: Superposition of Atomic Densities via on-the-fly atomic UHF (no occupation information).

   -------------------------
    Irrep   Nso     Nmo    
   -------------------------
     A        142     142 
   -------------------------
    Total     142     142
   -------------------------

  ==> Iterations <==

                           Total Energy        Delta E     RMS |[F,P]|

   @DF-RHF iter SAD:  -459.11248996898433   -4.59112e+02   0.00000e+00 
   @DF-RHF iter   1:  -459.51389003940153   -4.01400e-01   2.10066e-03 DIIS/ADIIS
   @DF-RHF iter   2:  -459.56475070766498   -5.08607e-02   1.07384e-03 DIIS/ADIIS
   @DF-RHF iter   3:  -459.57344810737936   -8.69740e-03   7.06832e-05 DIIS
   @DF-RHF iter   4:  -459.57350236743059   -5.42601e-05   1.45710e-05 DIIS
   @DF-RHF iter   5:  -459.57350607590683   -3.70848e-06   1.51468e-06 DIIS
   @DF-RHF iter   6:  -459.57350615186976   -7.59629e-08   9.38605e-08 DIIS
   @DF-RHF iter   7:  -459.57350615220560   -3.35831e-10   1.22797e-08 DIIS
   @DF-RHF iter   8:  -459.57350615221634   -1.07434e-11   2.52338e-09 DIIS
  Energy and wave function converged.


  ==> Post-Iterations <==

    Orbital Energies [Eh]
    ---------------------

    Doubly Occupied:                                                      

       1A   -104.506310     2A    -10.229825     3A     -7.695885  
       4A     -7.695881     5A     -7.695838     6A     -0.733502  
       7A     -0.150335     8A     -0.150329     9A     -0.150329  

    Virtual:                                                              

      10A      0.141550    11A      0.169803    12A      0.245752  
      13A      0.249473    14A      0.275762    15A      0.284839  
      16A      0.295565    17A      0.302068    18A      0.318203  
      19A      0.406937    20A      0.421911    21A      0.431512  
      22A      0.463761    23A      0.493407    24A      0.513839  
      25A      0.527066    26A      0.578416    27A      0.601430  
      28A      0.607043    29A      0.659892    30A      0.660693  
      31A      0.683014    32A      0.695893    33A      0.825037  
      34A      0.847297    35A      0.896834    36A      0.919453  
      37A      0.920371    38A      0.961595    39A      0.963334  
      40A      0.974648    41A      0.996835    42A      1.038654  
      43A      1.044763    44A      1.075055    45A      1.113176  
      46A      1.162385    47A      1.176186    48A      1.177407  
      49A      1.200439    50A      1.211275    51A      1.219448  
      52A      1.230489    53A      1.233526    54A      1.282481  
      55A      1.335226    56A      1.342186    57A      1.431826  
      58A      1.435675    59A      1.465572    60A      1.500977  
      61A      1.506172    62A      1.565564    63A      1.567526  
      64A      1.599822    65A      1.731633    66A      1.793417  
      67A      1.827603    68A      1.840220    69A      1.900417  
      70A      1.910720    71A      1.939616    72A      1.965248  
      73A      2.034383    74A      2.174175    75A      2.284800  
      76A      2.595080    77A      2.595238    78A      2.686292  
      79A      2.718637    80A      2.753386    81A      2.785674  
      82A      2.813017    83A      2.840151    84A      2.846907  
      85A      2.894199    86A      2.933097    87A      2.947094  
      88A      2.964879    89A      3.013071    90A      3.022391  
      91A      3.144820    92A      3.328212    93A      3.348238  
      94A      3.360150    95A      3.377712    96A      3.381206  
      97A      3.419257    98A      3.446707    99A      3.524082  
     100A      3.535075   101A      3.545230   102A      3.557435  
     103A      3.559804   104A      3.668278   105A      3.787431  
     106A      3.919380   107A      4.583861   108A      4.636320  
     109A      4.674998   110A      4.752969   111A      4.872013  
     112A      5.045622   113A      5.057177   114A      5.095769  
     115A      5.131209   116A      5.450315   117A      5.750872  
     118A      5.761680   119A      5.807761   120A      6.013723  
     121A      6.179513   122A      6.377041   123A      6.577032  
     124A      6.750823   125A      7.221120   126A      7.884014  
     127A      8.042892   128A      8.184860   129A      8.337665  
     130A      8.438169   131A      8.902532   132A      9.002904  
     133A      9.839240   134A     10.016896   135A     10.186309  
     136A     10.480832   137A     11.353590   138A     11.815753  
     139A     12.182446   140A     13.677540   141A     14.011101  
     142A     65.061671  

    Final Occupation by Irrep:
              A 
    DOCC [     9 ]
    NA   [     9 ]
    NB   [     9 ]

  @DF-RHF Final Energy:  -459.57350615221634

   => Energetics <=

    Nuclear Repulsion Energy =              0.0000000000000000
    One-Electron Energy =                -641.1305410210123910
    Two-Electron Energy =                 181.5570348687960234
    Total Energy =                       -459.5735061522163960

Computation Completed


Properties will be evaluated at   0.000000,   0.000000,   0.000000 [a0]

Properties computed using the SCF density matrix


 Multipole Moments:

 ------------------------------------------------------------------------------------
     Multipole            Electronic (a.u.)      Nuclear  (a.u.)        Total (a.u.)
 ------------------------------------------------------------------------------------

 L = 1.  Multiply by 2.5417464519 to convert [e a0] to [Debye]
 Dipole X            :       -104.4387345           98.6361146           -5.8026199
 Dipole Y            :         -0.0000972            0.0000000           -0.0000972
 Dipole Z            :          0.0000000            0.0000000            0.0000000
 Magnitude           :                                                    5.8026199

 ------------------------------------------------------------------------------------

*** tstop() called on moses-razer at Wed Jan  3 15:04:19 2024
Module time:
	user time   =       4.11 seconds =       0.07 minutes
	system time =       0.33 seconds =       0.01 minutes
	total time  =          1 seconds =       0.02 minutes
Total time:
	user time   =       4.11 seconds =       0.07 minutes
	system time =       0.33 seconds =       0.01 minutes
	total time  =          1 seconds =       0.02 minutes

*** tstart() called on moses-razer
*** at Wed Jan  3 15:04:19 2024


  //>>>>>>>>>>>>>>>>>>>>>>>>>>>>>>>>>>>//
  //               DFMP2               //
  //<<<<<<<<<<<<<<<<<<<<<<<<<<<<<<<<<<<//

   => Loading Basis Set <=

    Name: (AUG-CC-PVTZ AUX)
    Role: RIFIT
    Keyword: DF_BASIS_MP2
    atoms 1   entry O          line   264 file /home/kchung25/anaconda3/envs/p415env/share/psi4/basis/aug-cc-pvtz-ri.gbs 
    atoms 2-3 entry H          line    30 file /home/kchung25/anaconda3/envs/p415env/share/psi4/basis/aug-cc-pvtz-ri.gbs 
    atoms 4   entry CL         line   742 file /home/kchung25/anaconda3/envs/p415env/share/psi4/basis/aug-cc-pvtz-ri.gbs 

	 --------------------------------------------------------
	                          DF-MP2                         
	      2nd-Order Density-Fitted Moller-Plesset Theory     
	              RMP2 Wavefunction,   6 Threads             
	                                                         
	        Rob Parrish, Justin Turney, Andy Simmonett,      
	           Ed Hohenstein, and C. David Sherrill          
	 --------------------------------------------------------

   => Auxiliary Basis Set <=

  Basis Set: (AUG-CC-PVTZ AUX)
    Blend: AUG-CC-PVTZ-RI
    Number of shells: 93
    Number of basis functions: 345
    Number of Cartesian functions: 437
    Spherical Harmonics?: true
    Max angular momentum: 4

	 --------------------------------------------------------
	                 NBF =   142, NAUX =   345
	 --------------------------------------------------------
	   CLASS    FOCC     OCC    AOCC    AVIR     VIR    FVIR
	   PAIRS       0       9       9     133     133       0
	 --------------------------------------------------------

	-----------------------------------------------------------
	 ==================> DF-MP2 Energies <==================== 
	-----------------------------------------------------------
	 Reference Energy          =    -459.5735061522163392 [Eh]
	 Singles Energy            =      -0.0000000000000000 [Eh]
	 Same-Spin Energy          =      -0.0626137320726440 [Eh]
	 Opposite-Spin Energy      =      -0.1801197190412198 [Eh]
	 Correlation Energy        =      -0.2427334511138638 [Eh]
	 Total Energy              =    -459.8162396033301889 [Eh]
	-----------------------------------------------------------
	 ================> DF-SCS-MP2 Energies <================== 
	-----------------------------------------------------------
	 SCS Same-Spin Scale       =       0.3333333333333333 [-]
	 SCS Opposite-Spin Scale   =       1.2000000000000000 [-]
	 SCS Same-Spin Energy      =      -0.0208712440242146 [Eh]
	 SCS Opposite-Spin Energy  =      -0.2161436628494638 [Eh]
	 SCS Correlation Energy    =      -0.2370149068736784 [Eh]
	 SCS Total Energy          =    -459.8105210590900356 [Eh]
	-----------------------------------------------------------


*** tstop() called on moses-razer at Wed Jan  3 15:04:19 2024
Module time:
	user time   =       1.71 seconds =       0.03 minutes
	system time =       0.14 seconds =       0.00 minutes
	total time  =          0 seconds =       0.00 minutes
Total time:
	user time   =       5.82 seconds =       0.10 minutes
	system time =       0.47 seconds =       0.01 minutes
	total time  =          1 seconds =       0.02 minutes

    Psi4 stopped on: Wednesday, 03 January 2024 03:04PM
    Psi4 wall time for execution: 0:00:01.21


    -----------------------------------------------------------------------
          Psi4: An Open-Source Ab Initio Electronic Structure Package
                               Psi4 1.9 release

                         Git: Rev {} zzzzzzz 


    D. G. A. Smith, L. A. Burns, A. C. Simmonett, R. M. Parrish,
    M. C. Schieber, R. Galvelis, P. Kraus, H. Kruse, R. Di Remigio,
    A. Alenaizan, A. M. James, S. Lehtola, J. P. Misiewicz, M. Scheurer,
    R. A. Shaw, J. B. Schriber, Y. Xie, Z. L. Glick, D. A. Sirianni,
    J. S. O'Brien, J. M. Waldrop, A. Kumar, E. G. Hohenstein,
    B. P. Pritchard, B. R. Brooks, H. F. Schaefer III, A. Yu. Sokolov,
    K. Patkowski, A. E. DePrince III, U. Bozkaya, R. A. King,
    F. A. Evangelista, J. M. Turney, T. D. Crawford, C. D. Sherrill,
    J. Chem. Phys. 152(18) 184108 (2020). https://doi.org/10.1063/5.0006002

                            Additional Code Authors
    E. T. Seidl, C. L. Janssen, E. F. Valeev, M. L. Leininger,
    J. F. Gonthier, R. M. Richard, H. R. McAlexander, M. Saitow, X. Wang,
    P. Verma, M. H. Lechner, A. Jiang, S. Behnle, A. G. Heide,
    M. F. Herbst, and D. L. Poole

             Previous Authors, Complete List of Code Contributors,
                       and Citations for Specific Modules
    https://github.com/psi4/psi4/blob/master/codemeta.json
    https://github.com/psi4/psi4/graphs/contributors
    http://psicode.org/psi4manual/master/introduction.html#citing-psifour

    -----------------------------------------------------------------------


    Psi4 started on: Wednesday, 03 January 2024 03:04PM

    Process ID: 407165
    Host:       moses-razer
    PSIDATADIR: /home/kchung25/anaconda3/envs/psi4_19/share/psi4
    Memory:     55.9 GiB
    Threads:    6
    
  ==> Input QCSchema <==

--------------------------------------------------------------------------
{'driver': 'energy',
 'extras': {'psiapi': True, 'wfn_qcvars_only': True},
 'id': None,
 'keywords': {'SCF_TYPE': 'DF', 'function_kwargs': {}},
 'model': {'basis': 'aug-cc-pvtz', 'method': 'mp2'},
 'molecule': {'atom_labels': ['', '', '', ''],
              'atomic_numbers': [8, 1, 1, 17],
              'extras': {},
              'fix_com': True,
              'fix_orientation': True,
              'fix_symmetry': 'c1',
              'fragment_charges': [0.0, 0.0],
              'fragment_multiplicities': [1, 1],
              'fragments': [[0, 1, 2], [3]],
              'geometry': [0.0, 0.0, 0.0, 0.33212503572758967, 1.7797591827651862, 0.0, 1.7373877435801708,
                           -0.6854792547485726, 0.0, 5.802124388751694, 0.0, 0.0],
              'mass_numbers': [16, 1, 1, 35],
              'masses': [15.99491461957, 1.00782503223, 1.00782503223, 34.968852682],
              'molecular_charge': 0.0,
              'molecular_multiplicity': 1,
              'name': 'dimer',
              'provenance': {'creator': 'QCElemental',
                             'routine': 'qcelemental.molparse.from_string',
                             'version': '0.27.1'},
              'real': [True, True, True, False],
              'schema_name': 'qcschema_molecule',
              'schema_version': 2,
              'symbols': ['O', 'H', 'H', 'Cl'],
              'validated': True},
 'protocols': {'stdout': True},
 'provenance': {'creator': 'QCElemental', 'routine': 'qcelemental.models.results', 'version': '0.27.1'},
 'schema_name': 'qcschema_input',
 'schema_version': 1}
--------------------------------------------------------------------------

Scratch directory: /scratch/
   => Libint2 <=

    Primary   basis highest AM E, G, H:  5, 4, 3
    Auxiliary basis highest AM E, G, H:  6, 5, 4
    Onebody   basis highest AM E, G, H:  6, 5, 4
    Solid Harmonics ordering:            gaussian

*** tstart() called on moses-razer
*** at Wed Jan  3 15:04:19 2024

   => Loading Basis Set <=

    Name: AUG-CC-PVTZ
    Role: ORBITAL
    Keyword: BASIS
    atoms 1   entry O          line   331 file /home/kchung25/anaconda3/envs/p415env/share/psi4/basis/aug-cc-pvtz.gbs 
    atoms 2-3 entry H          line    40 file /home/kchung25/anaconda3/envs/p415env/share/psi4/basis/aug-cc-pvtz.gbs 
    atoms 4   entry CL         line   988 file /home/kchung25/anaconda3/envs/p415env/share/psi4/basis/aug-cc-pvtz.gbs 


         ---------------------------------------------------------
                                   SCF
               by Justin Turney, Rob Parrish, Andy Simmonett
                          and Daniel G. A. Smith
                              RHF Reference
                        6 Threads,  57220 MiB Core
         ---------------------------------------------------------

  ==> Geometry <==

    Molecular point group: c1
    Full point group: Cs

    Geometry (in Bohr), charge = 0, multiplicity = 1:

       Center              X                  Y                   Z               Mass       
    ------------   -----------------  -----------------  -----------------  -----------------
         O            0.000000000000     0.000000000000     0.000000000000    15.994914619570
         H            0.332125035728     1.779759182765     0.000000000000     1.007825032230
         H            1.737387743580    -0.685479254749     0.000000000000     1.007825032230
      Gh(CL)          5.802124388752     0.000000000000     0.000000000000    34.968852682000

  Running in c1 symmetry.

  Rotational constants: A =     16.42298  B =      0.05100  C =      0.05084 [cm^-1]
  Rotational constants: A = 492348.47158  B =   1528.96524  C =   1524.23181 [MHz]
  Nuclear repulsion =    9.054400971443670

  Charge       = 0
  Multiplicity = 1
  Electrons    = 10
  Nalpha       = 5
  Nbeta        = 5

  ==> Algorithm <==

  SCF Algorithm Type is DF.
  DIIS enabled.
  MOM disabled.
  Fractional occupation disabled.
  Guess Type is SAD.
  Energy threshold   = 1.00e-08
  Density threshold  = 1.00e-08
  Integral threshold = 1.00e-12

  ==> Primary Basis <==

  Basis Set: AUG-CC-PVTZ
    Blend: AUG-CC-PVTZ
    Number of shells: 48
    Number of basis functions: 142
    Number of Cartesian functions: 164
    Spherical Harmonics?: true
    Max angular momentum: 3

   => Loading Basis Set <=

    Name: (AUG-CC-PVTZ AUX)
    Role: JKFIT
    Keyword: DF_BASIS_SCF
    atoms 1   entry O          line   286 file /home/kchung25/anaconda3/envs/p415env/share/psi4/basis/aug-cc-pvtz-jkfit.gbs 
    atoms 2-3 entry H          line    70 file /home/kchung25/anaconda3/envs/p415env/share/psi4/basis/aug-cc-pvtz-jkfit.gbs 
    atoms 4   entry CL         line   816 file /home/kchung25/anaconda3/envs/p415env/share/psi4/basis/aug-cc-pvtz-jkfit.gbs 

  ==> Integral Setup <==

  DFHelper Memory: AOs need 0.057 GiB; user supplied 41.910 GiB. 
  Using in-core AOs.

  ==> MemDFJK: Density-Fitted J/K Matrices <==

    J tasked:                   Yes
    K tasked:                   Yes
    wK tasked:                   No
    OpenMP threads:               6
    Memory [MiB]:             42915
    Algorithm:                 Core
    Schwarz Cutoff:           1E-12
    Mask sparsity (%):       0.0000
    Fitting Condition:        1E-10

   => Auxiliary Basis Set <=

  Basis Set: (AUG-CC-PVTZ AUX)
    Blend: AUG-CC-PVTZ-JKFIT
    Number of shells: 100
    Number of basis functions: 342
    Number of Cartesian functions: 421
    Spherical Harmonics?: true
    Max angular momentum: 4

  Minimum eigenvalue in the overlap matrix is 2.9459360652E-04.
  Reciprocal condition number of the overlap matrix is 3.8706603074E-05.
    Using symmetric orthogonalization.

  ==> Pre-Iterations <==

  SCF Guess: Superposition of Atomic Densities via on-the-fly atomic UHF (no occupation information).

   -------------------------
    Irrep   Nso     Nmo    
   -------------------------
     A        142     142 
   -------------------------
    Total     142     142
   -------------------------

  ==> Iterations <==

                           Total Energy        Delta E     RMS |[F,P]|

   @DF-RHF iter SAD:   -75.46304104265253   -7.54630e+01   0.00000e+00 
   @DF-RHF iter   1:   -75.97275390384804   -5.09713e-01   3.29391e-03 DIIS/ADIIS
   @DF-RHF iter   2:   -76.02494410544112   -5.21902e-02   2.28934e-03 DIIS/ADIIS
   @DF-RHF iter   3:   -76.05778933613539   -3.28452e-02   1.56539e-04 DIIS/ADIIS
   @DF-RHF iter   4:   -76.05819938435556   -4.10048e-04   3.84142e-05 DIIS
   @DF-RHF iter   5:   -76.05822715264183   -2.77683e-05   8.99786e-06 DIIS
   @DF-RHF iter   6:   -76.05822951967957   -2.36704e-06   1.95276e-06 DIIS
   @DF-RHF iter   7:   -76.05822963991911   -1.20240e-07   3.31848e-07 DIIS
   @DF-RHF iter   8:   -76.05822964289749   -2.97838e-09   5.58832e-08 DIIS
   @DF-RHF iter   9:   -76.05822964296438   -6.68905e-11   1.38259e-08 DIIS
   @DF-RHF iter  10:   -76.05822964296860   -4.22062e-12   2.26948e-09 DIIS
  Energy and wave function converged.


  ==> Post-Iterations <==

    Orbital Energies [Eh]
    ---------------------

    Doubly Occupied:                                                      

       1A    -20.571495     2A     -1.348209     3A     -0.702392  
       4A     -0.588700     5A     -0.510126  

    Virtual:                                                              

       6A      0.026499     7A      0.046484     8A      0.078890  
       9A      0.086683    10A      0.105220    11A      0.114132  
      12A      0.173496    13A      0.175739    14A      0.180664  
      15A      0.202991    16A      0.255736    17A      0.268804  
      18A      0.274562    19A      0.308297    20A      0.314923  
      21A      0.346253    22A      0.397716    23A      0.405537  
      24A      0.410828    25A      0.431520    26A      0.448979  
      27A      0.467477    28A      0.495568    29A      0.514375  
      30A      0.533854    31A      0.549523    32A      0.614049  
      33A      0.655559    34A      0.711114    35A      0.733455  
      36A      0.739590    37A      0.778381    38A      0.889560  
      39A      0.901889    40A      0.925843    41A      0.933062  
      42A      0.943525    43A      0.953531    44A      0.970484  
      45A      1.034009    46A      1.043724    47A      1.095725  
      48A      1.135091    49A      1.138817    50A      1.190353  
      51A      1.219327    52A      1.267249    53A      1.284221  
      54A      1.294543    55A      1.301613    56A      1.320070  
      57A      1.364498    58A      1.387585    59A      1.452220  
      60A      1.453895    61A      1.473510    62A      1.477836  
      63A      1.482941    64A      1.526276    65A      1.554903  
      66A      1.616069    67A      1.624059    68A      1.685782  
      69A      1.733370    70A      1.750696    71A      1.784449  
      72A      1.889788    73A      2.032731    74A      2.098632  
      75A      2.287568    76A      2.344000    77A      2.368342  
      78A      2.412102    79A      2.484358    80A      2.501189  
      81A      2.554997    82A      2.671916    83A      2.734523  
      84A      2.735546    85A      2.838921    86A      2.909387  
      87A      2.930082    88A      3.703490    89A      3.762101  
      90A      3.900609    91A      3.904718    92A      3.927738  
      93A      3.936269    94A      3.939492    95A      3.973509  
      96A      4.015626    97A      4.023593    98A      4.063845  
      99A      4.064695   100A      4.144125   101A      4.171143  
     102A      4.232898   103A      4.262754   104A      4.298195  
     105A      4.377705   106A      4.385942   107A      4.424199  
     108A      4.485487   109A      4.561588   110A      4.644504  
     111A      4.653356   112A      4.729693   113A      4.738056  
     114A      4.768291   115A      4.885851   116A      5.073606  
     117A      5.111681   118A      5.209955   119A      5.264785  
     120A      5.337727   121A      5.508045   122A      5.647527  
     123A      6.229625   124A      6.536007   125A      6.763179  
     126A      6.949535   127A      7.114135   128A      7.269252  
     129A      7.286089   130A      7.309868   131A      7.390098  
     132A      7.402616   133A      7.606095   134A      7.904709  
     135A      7.955399   136A      8.788696   137A     14.406021  
     138A     15.855660   139A     27.706859   140A     27.734550  
     141A     28.073476   142A    160.790322  

    Final Occupation by Irrep:
              A 
    DOCC [     5 ]
    NA   [     5 ]
    NB   [     5 ]

  @DF-RHF Final Energy:   -76.05822964296860

   => Energetics <=

    Nuclear Repulsion Energy =              9.0544009714436697
    One-Electron Energy =                -122.7834196664612421
    Two-Electron Energy =                  37.6707890520489670
    Total Energy =                        -76.0582296429685982

Computation Completed


Properties will be evaluated at   0.000000,   0.000000,   0.000000 [a0]

Properties computed using the SCF density matrix


 Multipole Moments:

 ------------------------------------------------------------------------------------
     Multipole            Electronic (a.u.)      Nuclear  (a.u.)        Total (a.u.)
 ------------------------------------------------------------------------------------

 L = 1.  Multiply by 2.5417464519 to convert [e a0] to [Debye]
 Dipole X            :         -1.3578339            2.0695128            0.7116789
 Dipole Y            :         -0.7116509            1.0942799            0.3826290
 Dipole Z            :          0.0000000            0.0000000            0.0000000
 Magnitude           :                                                    0.8080172

 ------------------------------------------------------------------------------------

*** tstop() called on moses-razer at Wed Jan  3 15:04:20 2024
Module time:
	user time   =       3.43 seconds =       0.06 minutes
	system time =       0.23 seconds =       0.00 minutes
	total time  =          1 seconds =       0.02 minutes
Total time:
	user time   =       9.50 seconds =       0.16 minutes
	system time =       0.70 seconds =       0.01 minutes
	total time  =          2 seconds =       0.03 minutes

*** tstart() called on moses-razer
*** at Wed Jan  3 15:04:20 2024


  //>>>>>>>>>>>>>>>>>>>>>>>>>>>>>>>>>>>//
  //               DFMP2               //
  //<<<<<<<<<<<<<<<<<<<<<<<<<<<<<<<<<<<//

   => Loading Basis Set <=

    Name: (AUG-CC-PVTZ AUX)
    Role: RIFIT
    Keyword: DF_BASIS_MP2
    atoms 1   entry O          line   264 file /home/kchung25/anaconda3/envs/p415env/share/psi4/basis/aug-cc-pvtz-ri.gbs 
    atoms 2-3 entry H          line    30 file /home/kchung25/anaconda3/envs/p415env/share/psi4/basis/aug-cc-pvtz-ri.gbs 
    atoms 4   entry CL         line   742 file /home/kchung25/anaconda3/envs/p415env/share/psi4/basis/aug-cc-pvtz-ri.gbs 

	 --------------------------------------------------------
	                          DF-MP2                         
	      2nd-Order Density-Fitted Moller-Plesset Theory     
	              RMP2 Wavefunction,   6 Threads             
	                                                         
	        Rob Parrish, Justin Turney, Andy Simmonett,      
	           Ed Hohenstein, and C. David Sherrill          
	 --------------------------------------------------------

   => Auxiliary Basis Set <=

  Basis Set: (AUG-CC-PVTZ AUX)
    Blend: AUG-CC-PVTZ-RI
    Number of shells: 93
    Number of basis functions: 345
    Number of Cartesian functions: 437
    Spherical Harmonics?: true
    Max angular momentum: 4

	 --------------------------------------------------------
	                 NBF =   142, NAUX =   345
	 --------------------------------------------------------
	   CLASS    FOCC     OCC    AOCC    AVIR     VIR    FVIR
	   PAIRS       0       5       5     137     137       0
	 --------------------------------------------------------

	-----------------------------------------------------------
	 ==================> DF-MP2 Energies <==================== 
	-----------------------------------------------------------
	 Reference Energy          =     -76.0582296429685982 [Eh]
	 Singles Energy            =      -0.0000000000000000 [Eh]
	 Same-Spin Energy          =      -0.0687209917473466 [Eh]
	 Opposite-Spin Energy      =      -0.2166001304704769 [Eh]
	 Correlation Energy        =      -0.2853211222178235 [Eh]
	 Total Energy              =     -76.3435507651864214 [Eh]
	-----------------------------------------------------------
	 ================> DF-SCS-MP2 Energies <================== 
	-----------------------------------------------------------
	 SCS Same-Spin Scale       =       0.3333333333333333 [-]
	 SCS Opposite-Spin Scale   =       1.2000000000000000 [-]
	 SCS Same-Spin Energy      =      -0.0229069972491155 [Eh]
	 SCS Opposite-Spin Energy  =      -0.2599201565645722 [Eh]
	 SCS Correlation Energy    =      -0.2828271538136878 [Eh]
	 SCS Total Energy          =     -76.3410567967822828 [Eh]
	-----------------------------------------------------------


*** tstop() called on moses-razer at Wed Jan  3 15:04:20 2024
Module time:
	user time   =       1.71 seconds =       0.03 minutes
	system time =       0.12 seconds =       0.00 minutes
	total time  =          0 seconds =       0.00 minutes
Total time:
	user time   =      11.21 seconds =       0.19 minutes
	system time =       0.82 seconds =       0.01 minutes
	total time  =          2 seconds =       0.03 minutes

    Psi4 stopped on: Wednesday, 03 January 2024 03:04PM
    Psi4 wall time for execution: 0:00:01.04


    -----------------------------------------------------------------------
          Psi4: An Open-Source Ab Initio Electronic Structure Package
                               Psi4 1.9 release

                         Git: Rev {} zzzzzzz 


    D. G. A. Smith, L. A. Burns, A. C. Simmonett, R. M. Parrish,
    M. C. Schieber, R. Galvelis, P. Kraus, H. Kruse, R. Di Remigio,
    A. Alenaizan, A. M. James, S. Lehtola, J. P. Misiewicz, M. Scheurer,
    R. A. Shaw, J. B. Schriber, Y. Xie, Z. L. Glick, D. A. Sirianni,
    J. S. O'Brien, J. M. Waldrop, A. Kumar, E. G. Hohenstein,
    B. P. Pritchard, B. R. Brooks, H. F. Schaefer III, A. Yu. Sokolov,
    K. Patkowski, A. E. DePrince III, U. Bozkaya, R. A. King,
    F. A. Evangelista, J. M. Turney, T. D. Crawford, C. D. Sherrill,
    J. Chem. Phys. 152(18) 184108 (2020). https://doi.org/10.1063/5.0006002

                            Additional Code Authors
    E. T. Seidl, C. L. Janssen, E. F. Valeev, M. L. Leininger,
    J. F. Gonthier, R. M. Richard, H. R. McAlexander, M. Saitow, X. Wang,
    P. Verma, M. H. Lechner, A. Jiang, S. Behnle, A. G. Heide,
    M. F. Herbst, and D. L. Poole

             Previous Authors, Complete List of Code Contributors,
                       and Citations for Specific Modules
    https://github.com/psi4/psi4/blob/master/codemeta.json
    https://github.com/psi4/psi4/graphs/contributors
    http://psicode.org/psi4manual/master/introduction.html#citing-psifour

    -----------------------------------------------------------------------


    Psi4 started on: Wednesday, 03 January 2024 03:04PM

    Process ID: 407165
    Host:       moses-razer
    PSIDATADIR: /home/kchung25/anaconda3/envs/psi4_19/share/psi4
    Memory:     55.9 GiB
    Threads:    6
    
  ==> Input QCSchema <==

--------------------------------------------------------------------------
{'driver': 'energy',
 'extras': {'psiapi': True, 'wfn_qcvars_only': True},
 'id': None,
 'keywords': {'SCF_TYPE': 'DF', 'function_kwargs': {}},
 'model': {'basis': 'aug-cc-pvtz', 'method': 'mp2'},
 'molecule': {'atom_labels': ['', '', '', ''],
              'atomic_numbers': [8, 1, 1, 17],
              'extras': {},
              'fix_com': True,
              'fix_orientation': True,
              'fix_symmetry': 'c1',
              'fragment_charges': [0.0, -1.0],
              'fragment_multiplicities': [1, 1],
              'fragments': [[0, 1, 2], [3]],
              'geometry': [0.0, 0.0, 0.0, 0.33212503572758967, 1.7797591827651862, 0.0, 1.7373877435801708,
                           -0.6854792547485726, 0.0, 5.802124388751694, 0.0, 0.0],
              'mass_numbers': [16, 1, 1, 35],
              'masses': [15.99491461957, 1.00782503223, 1.00782503223, 34.968852682],
              'molecular_charge': -1.0,
              'molecular_multiplicity': 1,
              'name': 'dimer',
              'provenance': {'creator': 'QCElemental',
                             'routine': 'qcelemental.molparse.from_string',
                             'version': '0.27.1'},
              'real': [True, True, True, True],
              'schema_name': 'qcschema_molecule',
              'schema_version': 2,
              'symbols': ['O', 'H', 'H', 'Cl'],
              'validated': True},
 'protocols': {'stdout': True},
 'provenance': {'creator': 'QCElemental', 'routine': 'qcelemental.models.results', 'version': '0.27.1'},
 'schema_name': 'qcschema_input',
 'schema_version': 1}
--------------------------------------------------------------------------

Scratch directory: /scratch/
   => Libint2 <=

    Primary   basis highest AM E, G, H:  5, 4, 3
    Auxiliary basis highest AM E, G, H:  6, 5, 4
    Onebody   basis highest AM E, G, H:  6, 5, 4
    Solid Harmonics ordering:            gaussian

*** tstart() called on moses-razer
*** at Wed Jan  3 15:04:20 2024

   => Loading Basis Set <=

    Name: AUG-CC-PVTZ
    Role: ORBITAL
    Keyword: BASIS
    atoms 1   entry O          line   331 file /home/kchung25/anaconda3/envs/p415env/share/psi4/basis/aug-cc-pvtz.gbs 
    atoms 2-3 entry H          line    40 file /home/kchung25/anaconda3/envs/p415env/share/psi4/basis/aug-cc-pvtz.gbs 
    atoms 4   entry CL         line   988 file /home/kchung25/anaconda3/envs/p415env/share/psi4/basis/aug-cc-pvtz.gbs 


         ---------------------------------------------------------
                                   SCF
               by Justin Turney, Rob Parrish, Andy Simmonett
                          and Daniel G. A. Smith
                              RHF Reference
                        6 Threads,  57220 MiB Core
         ---------------------------------------------------------

  ==> Geometry <==

    Molecular point group: c1
    Full point group: Cs

    Geometry (in Bohr), charge = -1, multiplicity = 1:

       Center              X                  Y                   Z               Mass       
    ------------   -----------------  -----------------  -----------------  -----------------
         O            0.000000000000     0.000000000000     0.000000000000    15.994914619570
         H            0.332125035728     1.779759182765     0.000000000000     1.007825032230
         H            1.737387743580    -0.685479254749     0.000000000000     1.007825032230
         CL           5.802124388752     0.000000000000     0.000000000000    34.968852682000

  Running in c1 symmetry.

  Rotational constants: A =     16.42298  B =      0.05100  C =      0.05084 [cm^-1]
  Rotational constants: A = 492348.47158  B =   1528.96524  C =   1524.23181 [MHz]
  Nuclear repulsion =   39.573534555128468

  Charge       = -1
  Multiplicity = 1
  Electrons    = 28
  Nalpha       = 14
  Nbeta        = 14

  ==> Algorithm <==

  SCF Algorithm Type is DF.
  DIIS enabled.
  MOM disabled.
  Fractional occupation disabled.
  Guess Type is SAD.
  Energy threshold   = 1.00e-08
  Density threshold  = 1.00e-08
  Integral threshold = 1.00e-12

  ==> Primary Basis <==

  Basis Set: AUG-CC-PVTZ
    Blend: AUG-CC-PVTZ
    Number of shells: 48
    Number of basis functions: 142
    Number of Cartesian functions: 164
    Spherical Harmonics?: true
    Max angular momentum: 3

   => Loading Basis Set <=

    Name: (AUG-CC-PVTZ AUX)
    Role: JKFIT
    Keyword: DF_BASIS_SCF
    atoms 1   entry O          line   286 file /home/kchung25/anaconda3/envs/p415env/share/psi4/basis/aug-cc-pvtz-jkfit.gbs 
    atoms 2-3 entry H          line    70 file /home/kchung25/anaconda3/envs/p415env/share/psi4/basis/aug-cc-pvtz-jkfit.gbs 
    atoms 4   entry CL         line   816 file /home/kchung25/anaconda3/envs/p415env/share/psi4/basis/aug-cc-pvtz-jkfit.gbs 

  ==> Integral Setup <==

  DFHelper Memory: AOs need 0.057 GiB; user supplied 41.910 GiB. 
  Using in-core AOs.

  ==> MemDFJK: Density-Fitted J/K Matrices <==

    J tasked:                   Yes
    K tasked:                   Yes
    wK tasked:                   No
    OpenMP threads:               6
    Memory [MiB]:             42915
    Algorithm:                 Core
    Schwarz Cutoff:           1E-12
    Mask sparsity (%):       0.0000
    Fitting Condition:        1E-10

   => Auxiliary Basis Set <=

  Basis Set: (AUG-CC-PVTZ AUX)
    Blend: AUG-CC-PVTZ-JKFIT
    Number of shells: 100
    Number of basis functions: 342
    Number of Cartesian functions: 421
    Spherical Harmonics?: true
    Max angular momentum: 4

  Minimum eigenvalue in the overlap matrix is 2.9459360652E-04.
  Reciprocal condition number of the overlap matrix is 3.8706603074E-05.
    Using symmetric orthogonalization.

  ==> Pre-Iterations <==

  SCF Guess: Superposition of Atomic Densities via on-the-fly atomic UHF (no occupation information).

   -------------------------
    Irrep   Nso     Nmo    
   -------------------------
     A        142     142 
   -------------------------
    Total     142     142
   -------------------------

  ==> Iterations <==

                           Total Energy        Delta E     RMS |[F,P]|

   @DF-RHF iter SAD:  -534.66799464749818   -5.34668e+02   0.00000e+00 
   @DF-RHF iter   1:  -535.52445037651557   -8.56456e-01   3.79214e-03 DIIS/ADIIS
   @DF-RHF iter   2:  -535.61354473286417   -8.90944e-02   2.41836e-03 DIIS/ADIIS
   @DF-RHF iter   3:  -535.64997240307002   -3.64277e-02   2.23633e-04 DIIS/ADIIS
   @DF-RHF iter   4:  -535.65055600685491   -5.83604e-04   8.94942e-05 DIIS
   @DF-RHF iter   5:  -535.65065862513438   -1.02618e-04   1.52912e-05 DIIS
   @DF-RHF iter   6:  -535.65066563377002   -7.00864e-06   3.91656e-06 DIIS
   @DF-RHF iter   7:  -535.65066617700575   -5.43236e-07   9.46153e-07 DIIS
   @DF-RHF iter   8:  -535.65066620672201   -2.97163e-08   1.87289e-07 DIIS
   @DF-RHF iter   9:  -535.65066620774667   -1.02466e-09   4.04942e-08 DIIS
   @DF-RHF iter  10:  -535.65066620778464   -3.79714e-11   1.09998e-08 DIIS
   @DF-RHF iter  11:  -535.65066620778748   -2.84217e-12   2.91946e-09 DIIS
  Energy and wave function converged.


  ==> Post-Iterations <==

    Orbital Energies [Eh]
    ---------------------

    Doubly Occupied:                                                      

       1A   -104.529831     2A    -20.376820     3A    -10.254317  
       4A     -7.720400     5A     -7.720354     6A     -7.720337  
       7A     -1.159309     8A     -0.764331     9A     -0.515564  
      10A     -0.408771    11A     -0.322945    12A     -0.180667  
      13A     -0.177607    14A     -0.176957  

    Virtual:                                                              

      15A      0.146580    16A      0.175428    17A      0.255761  
      18A      0.266695    19A      0.286982    20A      0.287584  
      21A      0.307890    22A      0.309405    23A      0.343683  
      24A      0.398421    25A      0.416856    26A      0.421271  
      27A      0.438772    28A      0.495825    29A      0.515011  
      30A      0.573614    31A      0.586242    32A      0.605767  
      33A      0.627640    34A      0.647910    35A      0.670288  
      36A      0.682465    37A      0.701663    38A      0.799020  
      39A      0.845432    40A      0.865971    41A      0.884296  
      42A      0.904417    43A      0.907878    44A      0.909416  
      45A      1.015490    46A      1.059086    47A      1.064313  
      48A      1.080368    49A      1.101776    50A      1.118348  
      51A      1.120251    52A      1.134603    53A      1.173634  
      54A      1.175812    55A      1.195822    56A      1.203846  
      57A      1.210208    58A      1.261094    59A      1.274540  
      60A      1.321075    61A      1.371577    62A      1.399909  
      63A      1.402091    64A      1.434256    65A      1.471226  
      66A      1.472756    67A      1.503071    68A      1.535157  
      69A      1.603811    70A      1.695756    71A      1.705004  
      72A      1.736046    73A      1.772801    74A      1.806151  
      75A      1.870280    76A      1.876550    77A      2.066026  
      78A      2.136678    79A      2.229485    80A      2.461111  
      81A      2.475788    82A      2.538327    83A      2.568376  
      84A      2.645856    85A      2.660474    86A      2.688815  
      87A      2.789543    88A      2.810875    89A      2.823602  
      90A      2.850309    91A      2.890418    92A      2.891159  
      93A      2.928686    94A      2.951553    95A      2.990501  
      96A      3.000315    97A      3.076762    98A      3.107214  
      99A      3.180595   100A      3.351535   101A      3.351801  
     102A      3.353463   103A      3.391836   104A      3.425006  
     105A      3.503078   106A      3.524426   107A      3.602101  
     108A      3.888472   109A      4.107668   110A      4.231649  
     111A      4.353211   112A      4.368188   113A      4.447304  
     114A      4.479496   115A      4.571445   116A      4.597648  
     117A      4.631007   118A      4.792401   119A      5.020869  
     120A      5.070232   121A      5.303803   122A      5.400493  
     123A      5.444726   124A      5.508768   125A      5.696053  
     126A      5.820691   127A      6.164115   128A      6.424075  
     129A      6.734207   130A      6.949326   131A      7.137887  
     132A      7.300508   133A      7.457589   134A      7.473948  
     135A      7.495033   136A      7.583934   137A      7.589712  
     138A      7.793914   139A      8.092937   140A      8.142712  
     141A      8.982863   142A     16.032183  

    Final Occupation by Irrep:
              A 
    DOCC [    14 ]
    NA   [    14 ]
    NB   [    14 ]

  @DF-RHF Final Energy:  -535.65066620778748

   => Energetics <=

    Nuclear Repulsion Energy =             39.5735345551284681
    One-Electron Energy =                -826.3919849218963236
    Two-Electron Energy =                 251.1677841589803677
    Total Energy =                       -535.6506662077874807

Computation Completed


Properties will be evaluated at   0.000000,   0.000000,   0.000000 [a0]

Properties computed using the SCF density matrix


 Multipole Moments:

 ------------------------------------------------------------------------------------
     Multipole            Electronic (a.u.)      Nuclear  (a.u.)        Total (a.u.)
 ------------------------------------------------------------------------------------

 L = 1.  Multiply by 2.5417464519 to convert [e a0] to [Debye]
 Dipole X            :       -105.3035205          100.7056274           -4.5978931
 Dipole Y            :         -0.7321713            1.0942799            0.3621086
 Dipole Z            :          0.0000000            0.0000000            0.0000000
 Magnitude           :                                                    4.6121301

 ------------------------------------------------------------------------------------

*** tstop() called on moses-razer at Wed Jan  3 15:04:21 2024
Module time:
	user time   =       4.49 seconds =       0.07 minutes
	system time =       0.31 seconds =       0.01 minutes
	total time  =          1 seconds =       0.02 minutes
Total time:
	user time   =      15.94 seconds =       0.27 minutes
	system time =       1.13 seconds =       0.02 minutes
	total time  =          3 seconds =       0.05 minutes

*** tstart() called on moses-razer
*** at Wed Jan  3 15:04:21 2024


  //>>>>>>>>>>>>>>>>>>>>>>>>>>>>>>>>>>>//
  //               DFMP2               //
  //<<<<<<<<<<<<<<<<<<<<<<<<<<<<<<<<<<<//

   => Loading Basis Set <=

    Name: (AUG-CC-PVTZ AUX)
    Role: RIFIT
    Keyword: DF_BASIS_MP2
    atoms 1   entry O          line   264 file /home/kchung25/anaconda3/envs/p415env/share/psi4/basis/aug-cc-pvtz-ri.gbs 
    atoms 2-3 entry H          line    30 file /home/kchung25/anaconda3/envs/p415env/share/psi4/basis/aug-cc-pvtz-ri.gbs 
    atoms 4   entry CL         line   742 file /home/kchung25/anaconda3/envs/p415env/share/psi4/basis/aug-cc-pvtz-ri.gbs 

	 --------------------------------------------------------
	                          DF-MP2                         
	      2nd-Order Density-Fitted Moller-Plesset Theory     
	              RMP2 Wavefunction,   6 Threads             
	                                                         
	        Rob Parrish, Justin Turney, Andy Simmonett,      
	           Ed Hohenstein, and C. David Sherrill          
	 --------------------------------------------------------

   => Auxiliary Basis Set <=

  Basis Set: (AUG-CC-PVTZ AUX)
    Blend: AUG-CC-PVTZ-RI
    Number of shells: 93
    Number of basis functions: 345
    Number of Cartesian functions: 437
    Spherical Harmonics?: true
    Max angular momentum: 4

	 --------------------------------------------------------
	                 NBF =   142, NAUX =   345
	 --------------------------------------------------------
	   CLASS    FOCC     OCC    AOCC    AVIR     VIR    FVIR
	   PAIRS       0      14      14     128     128       0
	 --------------------------------------------------------

	-----------------------------------------------------------
	 ==================> DF-MP2 Energies <==================== 
	-----------------------------------------------------------
	 Reference Energy          =    -535.6506662077874807 [Eh]
	 Singles Energy            =      -0.0000000000000000 [Eh]
	 Same-Spin Energy          =      -0.1339687933332081 [Eh]
	 Opposite-Spin Energy      =      -0.3983555271691268 [Eh]
	 Correlation Energy        =      -0.5323243205023348 [Eh]
	 Total Energy              =    -536.1829905282897926 [Eh]
	-----------------------------------------------------------
	 ================> DF-SCS-MP2 Energies <================== 
	-----------------------------------------------------------
	 SCS Same-Spin Scale       =       0.3333333333333333 [-]
	 SCS Opposite-Spin Scale   =       1.2000000000000000 [-]
	 SCS Same-Spin Energy      =      -0.0446562644444027 [Eh]
	 SCS Opposite-Spin Energy  =      -0.4780266326029521 [Eh]
	 SCS Correlation Energy    =      -0.5226828970473548 [Eh]
	 SCS Total Energy          =    -536.1733491048348696 [Eh]
	-----------------------------------------------------------


*** tstop() called on moses-razer at Wed Jan  3 15:04:22 2024
Module time:
	user time   =       1.87 seconds =       0.03 minutes
	system time =       0.13 seconds =       0.00 minutes
	total time  =          1 seconds =       0.02 minutes
Total time:
	user time   =      17.82 seconds =       0.30 minutes
	system time =       1.26 seconds =       0.02 minutes
	total time  =          4 seconds =       0.07 minutes

    Psi4 stopped on: Wednesday, 03 January 2024 03:04PM
    Psi4 wall time for execution: 0:00:01.26


  //>>>>>>>>>>>>>>>>>>>>>>>>>>>>>>>>>>>//
  //          ManyBody Results         //
  //<<<<<<<<<<<<<<<<<<<<<<<<<<<<<<<<<<<//


   ==> N-Body: Counterpoise Corrected (CP) energies <==

        n-Body     Total Energy            Interaction Energy                          N-body Contribution to Interaction Energy
                   [Eh]                    [Eh]                  [kcal/mol]            [Eh]                  [kcal/mol]
             1  N/A                         0.000000000000        0.000000000000        0.000000000000        0.000000000000
  FULL/RTN   2  N/A                        -0.023200159773      -14.558320050824       -0.023200159773      -14.558320050824


    Psi4 stopped on: Wednesday, 03 January 2024 03:04PM
    Psi4 wall time for execution: 0:00:05.06

*** Psi4 exiting successfully. Buy a developer a beer!
