
    -----------------------------------------------------------------------
          Psi4: An Open-Source Ab Initio Electronic Structure Package
                               Psi4 1.9 release

                         Git: Rev {} zzzzzzz 


    D. G. A. Smith, L. A. Burns, A. C. Simmonett, R. M. Parrish,
    M. C. Schieber, R. Galvelis, P. Kraus, H. Kruse, R. Di Remigio,
    A. Alenaizan, A. M. James, S. Lehtola, J. P. Misiewicz, M. Scheurer,
    R. A. Shaw, J. B. Schriber, Y. Xie, Z. L. Glick, D. A. Sirianni,
    J. S. O'Brien, J. M. Waldrop, A. Kumar, E. G. Hohenstein,
    B. P. Pritchard, B. R. Brooks, H. F. Schaefer III, A. Yu. Sokolov,
    K. Patkowski, A. E. DePrince III, U. Bozkaya, R. A. King,
    F. A. Evangelista, J. M. Turney, T. D. Crawford, C. D. Sherrill,
    J. Chem. Phys. 152(18) 184108 (2020). https://doi.org/10.1063/5.0006002

                            Additional Code Authors
    E. T. Seidl, C. L. Janssen, E. F. Valeev, M. L. Leininger,
    J. F. Gonthier, R. M. Richard, H. R. McAlexander, M. Saitow, X. Wang,
    P. Verma, M. H. Lechner, A. Jiang, S. Behnle, A. G. Heide,
    M. F. Herbst, and D. L. Poole

             Previous Authors, Complete List of Code Contributors,
                       and Citations for Specific Modules
    https://github.com/psi4/psi4/blob/master/codemeta.json
    https://github.com/psi4/psi4/graphs/contributors
    http://psicode.org/psi4manual/master/introduction.html#citing-psifour

    -----------------------------------------------------------------------


    Psi4 started on: Wednesday, 03 January 2024 02:45PM

    Process ID: 404793
    Host:       moses-razer
    PSIDATADIR: /home/kchung25/anaconda3/envs/psi4_19/share/psi4
    Memory:     500.0 MiB
    Threads:    6
    
  ==> Input File <==

--------------------------------------------------------------------------
MEMORY 60 GB

molecule dimer {
0 1
O      0.000000     0.000000     0.000000
H     -0.741462     0.577745     0.198674
H     -0.363096    -0.884151     0.097291
--
1 1
K      2.466222     0.000000     0.000000

units ang
no_reorient
no_com
symmetry c1
}

set {
basis        aug-cc-pVTZ
scf_type     df
}

energy("mp2", bsse_type="cp")
--------------------------------------------------------------------------

  Memory set to  55.879 GiB by Python driver.

Scratch directory: /scratch/

  //>>>>>>>>>>>>>>>>>>>>>>>>>>>>>>>>>>>>>//
  // ManyBody Setup: N-Body Levels [1, 2]//
  //<<<<<<<<<<<<<<<<<<<<<<<<<<<<<<<<<<<<<//

        Number of 1-body computations:     2
        Number of 2-body computations:     1

    -----------------------------------------------------------------------
          Psi4: An Open-Source Ab Initio Electronic Structure Package
                               Psi4 1.9 release

                         Git: Rev {} zzzzzzz 


    D. G. A. Smith, L. A. Burns, A. C. Simmonett, R. M. Parrish,
    M. C. Schieber, R. Galvelis, P. Kraus, H. Kruse, R. Di Remigio,
    A. Alenaizan, A. M. James, S. Lehtola, J. P. Misiewicz, M. Scheurer,
    R. A. Shaw, J. B. Schriber, Y. Xie, Z. L. Glick, D. A. Sirianni,
    J. S. O'Brien, J. M. Waldrop, A. Kumar, E. G. Hohenstein,
    B. P. Pritchard, B. R. Brooks, H. F. Schaefer III, A. Yu. Sokolov,
    K. Patkowski, A. E. DePrince III, U. Bozkaya, R. A. King,
    F. A. Evangelista, J. M. Turney, T. D. Crawford, C. D. Sherrill,
    J. Chem. Phys. 152(18) 184108 (2020). https://doi.org/10.1063/5.0006002

                            Additional Code Authors
    E. T. Seidl, C. L. Janssen, E. F. Valeev, M. L. Leininger,
    J. F. Gonthier, R. M. Richard, H. R. McAlexander, M. Saitow, X. Wang,
    P. Verma, M. H. Lechner, A. Jiang, S. Behnle, A. G. Heide,
    M. F. Herbst, and D. L. Poole

             Previous Authors, Complete List of Code Contributors,
                       and Citations for Specific Modules
    https://github.com/psi4/psi4/blob/master/codemeta.json
    https://github.com/psi4/psi4/graphs/contributors
    http://psicode.org/psi4manual/master/introduction.html#citing-psifour

    -----------------------------------------------------------------------


    Psi4 started on: Wednesday, 03 January 2024 02:45PM

    Process ID: 404793
    Host:       moses-razer
    PSIDATADIR: /home/kchung25/anaconda3/envs/psi4_19/share/psi4
    Memory:     55.9 GiB
    Threads:    6
    
  ==> Input QCSchema <==

--------------------------------------------------------------------------
{'driver': 'energy',
 'extras': {'psiapi': True, 'wfn_qcvars_only': True},
 'id': None,
 'keywords': {'SCF_TYPE': 'DF', 'function_kwargs': {}},
 'model': {'basis': 'aug-cc-pvtz', 'method': 'mp2'},
 'molecule': {'atom_labels': ['', '', '', ''],
              'atomic_numbers': [8, 1, 1, 19],
              'extras': {},
              'fix_com': True,
              'fix_orientation': True,
              'fix_symmetry': 'c1',
              'fragment_charges': [0.0, 1.0],
              'fragment_multiplicities': [1, 1],
              'fragments': [[0, 1, 2], [3]],
              'geometry': [0.0, 0.0, 0.0, -1.4011601124342121, 1.0917798203526328, 0.37543944824920855,
                           -0.6861519972492355, -1.6708032435496643, 0.18385334447191756, 4.660484144578856, 0.0, 0.0],
              'mass_numbers': [16, 1, 1, 39],
              'masses': [15.99491461957, 1.00782503223, 1.00782503223, 38.9637064864],
              'molecular_charge': 1.0,
              'molecular_multiplicity': 1,
              'name': 'dimer',
              'provenance': {'creator': 'QCElemental',
                             'routine': 'qcelemental.molparse.from_string',
                             'version': '0.27.1'},
              'real': [False, False, False, True],
              'schema_name': 'qcschema_molecule',
              'schema_version': 2,
              'symbols': ['O', 'H', 'H', 'K'],
              'validated': True},
 'protocols': {'stdout': True},
 'provenance': {'creator': 'QCElemental', 'routine': 'qcelemental.models.results', 'version': '0.27.1'},
 'schema_name': 'qcschema_input',
 'schema_version': 1}
--------------------------------------------------------------------------

Scratch directory: /scratch/
   => Libint2 <=

    Primary   basis highest AM E, G, H:  5, 4, 3
    Auxiliary basis highest AM E, G, H:  6, 5, 4
    Onebody   basis highest AM E, G, H:  6, 5, 4
    Solid Harmonics ordering:            gaussian

*** tstart() called on moses-razer
*** at Wed Jan  3 14:45:13 2024

   => Loading Basis Set <=

    Name: AUG-CC-PVTZ
    Role: ORBITAL
    Keyword: BASIS
    atoms 1   entry O          line   331 file /home/kchung25/anaconda3/envs/p415env/share/psi4/basis/aug-cc-pvtz.gbs 
    atoms 2-3 entry H          line    40 file /home/kchung25/anaconda3/envs/p415env/share/psi4/basis/aug-cc-pvtz.gbs 
    atoms 4   entry K          line  1152 file /home/kchung25/anaconda3/envs/p415env/share/psi4/basis/aug-cc-pvtz.gbs 


         ---------------------------------------------------------
                                   SCF
               by Justin Turney, Rob Parrish, Andy Simmonett
                          and Daniel G. A. Smith
                              RHF Reference
                        6 Threads,  57220 MiB Core
         ---------------------------------------------------------

  ==> Geometry <==

    Molecular point group: c1
    Full point group: C1

    Geometry (in Bohr), charge = 1, multiplicity = 1:

       Center              X                  Y                   Z               Mass       
    ------------   -----------------  -----------------  -----------------  -----------------
      Gh(O)           0.000000000000     0.000000000000     0.000000000000    15.994914619570
      Gh(H)          -1.401160112434     1.091779820353     0.375439448249     1.007825032230
      Gh(H)          -0.686151997249    -1.670803243550     0.183853344472     1.007825032230
         K            4.660484144579     0.000000000000     0.000000000000    38.963706486400

  Running in c1 symmetry.

  Rotational constants: A =     14.36686  B =      0.07091  C =      0.07059 [cm^-1]
  Rotational constants: A = 430707.67162  B =   2125.91932  C =   2116.33513 [MHz]
  Nuclear repulsion =    0.000000000000000

  Charge       = 1
  Multiplicity = 1
  Electrons    = 18
  Nalpha       = 9
  Nbeta        = 9

  ==> Algorithm <==

  SCF Algorithm Type is DF.
  DIIS enabled.
  MOM disabled.
  Fractional occupation disabled.
  Guess Type is SAD.
  Energy threshold   = 1.00e-08
  Density threshold  = 1.00e-08
  Integral threshold = 1.00e-12

  ==> Primary Basis <==

  Basis Set: AUG-CC-PVTZ
    Blend: AUG-CC-PVTZ
    Number of shells: 51
    Number of basis functions: 151
    Number of Cartesian functions: 174
    Spherical Harmonics?: true
    Max angular momentum: 3

   => Loading Basis Set <=

    Name: (AUG-CC-PVTZ AUX)
    Role: JKFIT
    Keyword: DF_BASIS_SCF
    atoms 1   entry O          line   286 file /home/kchung25/anaconda3/envs/p415env/share/psi4/basis/aug-cc-pvtz-jkfit.gbs 
    atoms 2-3 entry H          line    70 file /home/kchung25/anaconda3/envs/p415env/share/psi4/basis/aug-cc-pvtz-jkfit.gbs 
    atoms 4   entry K          line  1152 file /home/kchung25/anaconda3/envs/p415env/share/psi4/basis/def2-universal-jkfit.gbs 

  ==> Integral Setup <==

  DFHelper Memory: AOs need 0.067 GiB; user supplied 41.910 GiB. 
  Using in-core AOs.

  ==> MemDFJK: Density-Fitted J/K Matrices <==

    J tasked:                   Yes
    K tasked:                   Yes
    wK tasked:                   No
    OpenMP threads:               6
    Memory [MiB]:             42915
    Algorithm:                 Core
    Schwarz Cutoff:           1E-12
    Mask sparsity (%):       0.0000
    Fitting Condition:        1E-10

   => Auxiliary Basis Set <=

  Basis Set: (AUG-CC-PVTZ AUX)
    Blend: AUG-CC-PVTZ-JKFIT + DEF2-UNIVERSAL-JKFIT
    Number of shells: 102
    Number of basis functions: 356
    Number of Cartesian functions: 444
    Spherical Harmonics?: true
    Max angular momentum: 4

  Minimum eigenvalue in the overlap matrix is 1.7761534985E-04.
  Reciprocal condition number of the overlap matrix is 1.9996208309E-05.
    Using symmetric orthogonalization.

  ==> Pre-Iterations <==

  SCF Guess: Superposition of Atomic Densities via on-the-fly atomic UHF (no occupation information).

   -------------------------
    Irrep   Nso     Nmo    
   -------------------------
     A        151     151 
   -------------------------
    Total     151     151
   -------------------------

  ==> Iterations <==

                           Total Energy        Delta E     RMS |[F,P]|

   @DF-RHF iter SAD:  -599.05184698430810   -5.99052e+02   0.00000e+00 
   @DF-RHF iter   1:  -599.01748294608274    3.43640e-02   4.46144e-05 DIIS
   @DF-RHF iter   2:  -599.01750816836784   -2.52223e-05   6.52333e-06 DIIS
   @DF-RHF iter   3:  -599.01750887055744   -7.02190e-07   4.33864e-07 DIIS
   @DF-RHF iter   4:  -599.01750887341200   -2.85456e-09   3.37182e-08 DIIS
   @DF-RHF iter   5:  -599.01750887343314   -2.11458e-11   5.79543e-09 DIIS
  Energy and wave function converged.


  ==> Post-Iterations <==

    Orbital Energies [Eh]
    ---------------------

    Doubly Occupied:                                                      

       1A   -133.753719     2A    -14.709167     3A    -11.739241  
       4A    -11.739236     5A    -11.739236     6A     -1.964322  
       7A     -1.170985     8A     -1.170915     9A     -1.170908  

    Virtual:                                                              

      10A     -0.146972    11A     -0.095563    12A     -0.095552  
      13A     -0.095552    14A     -0.060631    15A     -0.057865  
      16A     -0.057811    17A     -0.057781    18A     -0.057722  
      19A     -0.057721    20A     -0.045541    21A     -0.045535  
      22A     -0.045535    23A     -0.031271    24A     -0.031240  
      25A     -0.031226    26A     -0.031208    27A     -0.031207  
      28A     -0.018066    29A     -0.016711    30A     -0.016232  
      31A     -0.015530    32A     -0.007740    33A     -0.004169  
      34A      0.013419    35A      0.014424    36A      0.015223  
      37A      0.016456    38A      0.016508    39A      0.016909  
      40A      0.016926    41A      0.018179    42A      0.019697  
      43A      0.019723    44A      0.054162    45A      0.056545  
      46A      0.086496    47A      0.094987    48A      0.096348  
      49A      0.099625    50A      0.113009    51A      0.117105  
      52A      0.125906    53A      0.180010    54A      0.193719  
      55A      0.212936    56A      0.215807    57A      0.222314  
      58A      0.225461    59A      0.228817    60A      0.237623  
      61A      0.238700    62A      0.239985    63A      0.247198  
      64A      0.250966    65A      0.255136    66A      0.268497  
      67A      0.281113    68A      0.290963    69A      0.309088  
      70A      0.325755    71A      0.333568    72A      0.354853  
      73A      0.563821    74A      0.596174    75A      0.643038  
      76A      0.662839    77A      0.676552    78A      0.708711  
      79A      0.735016    80A      0.768884    81A      0.780783  
      82A      0.795846    83A      0.857744    84A      0.894164  
      85A      0.914576    86A      0.952134    87A      0.972222  
      88A      1.007307    89A      1.039531    90A      1.064071  
      91A      1.087155    92A      1.157427    93A      1.315345  
      94A      1.362732    95A      1.558880    96A      1.572750  
      97A      1.606898    98A      1.678893    99A      1.727135  
     100A      1.910808   101A      2.169690   102A      2.221322  
     103A      2.312572   104A      2.316483   105A      2.330401  
     106A      2.343858   107A      2.404320   108A      2.517244  
     109A      2.660971   110A      2.996635   111A      3.001682  
     112A      3.049169   113A      3.131083   114A      3.153269  
     115A      3.353815   116A      3.489480   117A      4.191640  
     118A      4.304180   119A      4.332214   120A      4.437912  
     121A      4.504175   122A      4.536778   123A      4.725688  
     124A      4.738965   125A      4.758881   126A      5.035818  
     127A      5.370196   128A      5.437514   129A      5.466895  
     130A      5.654070   131A      5.911663   132A      6.214687  
     133A      6.439349   134A      6.880707   135A      7.454677  
     136A      7.611214   137A      7.852184   138A      7.958579  
     139A      8.074249   140A      8.531544   141A      8.625725  
     142A      9.489594   143A      9.676161   144A      9.790555  
     145A     10.018370   146A     11.031430   147A     11.424477  
     148A     11.900419   149A     13.314770   150A     13.606891  
     151A     64.417006  

    Final Occupation by Irrep:
              A 
    DOCC [     9 ]
    NA   [     9 ]
    NB   [     9 ]

  @DF-RHF Final Energy:  -599.01750887343314

   => Energetics <=

    Nuclear Repulsion Energy =              0.0000000000000000
    One-Electron Energy =                -819.7195640419596430
    Two-Electron Energy =                 220.7020551685265843
    Total Energy =                       -599.0175088734330302

Computation Completed


Properties will be evaluated at   0.000000,   0.000000,   0.000000 [a0]

Properties computed using the SCF density matrix


 Multipole Moments:

 ------------------------------------------------------------------------------------
     Multipole            Electronic (a.u.)      Nuclear  (a.u.)        Total (a.u.)
 ------------------------------------------------------------------------------------

 L = 1.  Multiply by 2.5417464519 to convert [e a0] to [Debye]
 Dipole X            :        -83.8891243           88.5491987            4.6600744
 Dipole Y            :         -0.0000435            0.0000000           -0.0000435
 Dipole Z            :          0.0000336            0.0000000            0.0000336
 Magnitude           :                                                    4.6600744

 ------------------------------------------------------------------------------------

*** tstop() called on moses-razer at Wed Jan  3 14:45:19 2024
Module time:
	user time   =      11.03 seconds =       0.18 minutes
	system time =       2.57 seconds =       0.04 minutes
	total time  =          6 seconds =       0.10 minutes
Total time:
	user time   =      11.03 seconds =       0.18 minutes
	system time =       2.57 seconds =       0.04 minutes
	total time  =          6 seconds =       0.10 minutes

*** tstart() called on moses-razer
*** at Wed Jan  3 14:45:19 2024


  //>>>>>>>>>>>>>>>>>>>>>>>>>>>>>>>>>>>//
  //               DFMP2               //
  //<<<<<<<<<<<<<<<<<<<<<<<<<<<<<<<<<<<//

   => Loading Basis Set <=

    Name: (AUG-CC-PVTZ AUX)
    Role: RIFIT
    Keyword: DF_BASIS_MP2
    atoms 1   entry O          line   264 file /home/kchung25/anaconda3/envs/p415env/share/psi4/basis/aug-cc-pvtz-ri.gbs 
    atoms 2-3 entry H          line    30 file /home/kchung25/anaconda3/envs/p415env/share/psi4/basis/aug-cc-pvtz-ri.gbs 
    atoms 4   entry K          line  1282 file /home/kchung25/anaconda3/envs/p415env/share/psi4/basis/def2-qzvpp-ri.gbs 

	 --------------------------------------------------------
	                          DF-MP2                         
	      2nd-Order Density-Fitted Moller-Plesset Theory     
	              RMP2 Wavefunction,   6 Threads             
	                                                         
	        Rob Parrish, Justin Turney, Andy Simmonett,      
	           Ed Hohenstein, and C. David Sherrill          
	 --------------------------------------------------------

   => Auxiliary Basis Set <=

  Basis Set: (AUG-CC-PVTZ AUX)
    Blend: AUG-CC-PVTZ-RI + DEF2-QZVPP-RI
    Number of shells: 105
    Number of basis functions: 397
    Number of Cartesian functions: 508
    Spherical Harmonics?: true
    Max angular momentum: 4

	 --------------------------------------------------------
	                 NBF =   151, NAUX =   397
	 --------------------------------------------------------
	   CLASS    FOCC     OCC    AOCC    AVIR     VIR    FVIR
	   PAIRS       0       9       9     142     142       0
	 --------------------------------------------------------

	-----------------------------------------------------------
	 ==================> DF-MP2 Energies <==================== 
	-----------------------------------------------------------
	 Reference Energy          =    -599.0175088734331439 [Eh]
	 Singles Energy            =      -0.0000000000000000 [Eh]
	 Same-Spin Energy          =      -0.0290444783351887 [Eh]
	 Opposite-Spin Energy      =      -0.0688048587360471 [Eh]
	 Correlation Energy        =      -0.0978493370712358 [Eh]
	 Total Energy              =    -599.1153582105043824 [Eh]
	-----------------------------------------------------------
	 ================> DF-SCS-MP2 Energies <================== 
	-----------------------------------------------------------
	 SCS Same-Spin Scale       =       0.3333333333333333 [-]
	 SCS Opposite-Spin Scale   =       1.2000000000000000 [-]
	 SCS Same-Spin Energy      =      -0.0096814927783962 [Eh]
	 SCS Opposite-Spin Energy  =      -0.0825658304832566 [Eh]
	 SCS Correlation Energy    =      -0.0922473232616528 [Eh]
	 SCS Total Energy          =    -599.1097561966947751 [Eh]
	-----------------------------------------------------------


*** tstop() called on moses-razer at Wed Jan  3 14:45:23 2024
Module time:
	user time   =       5.76 seconds =       0.10 minutes
	system time =       0.73 seconds =       0.01 minutes
	total time  =          4 seconds =       0.07 minutes
Total time:
	user time   =      16.79 seconds =       0.28 minutes
	system time =       3.30 seconds =       0.06 minutes
	total time  =         10 seconds =       0.17 minutes

    Psi4 stopped on: Wednesday, 03 January 2024 02:45PM
    Psi4 wall time for execution: 0:00:10.26


    -----------------------------------------------------------------------
          Psi4: An Open-Source Ab Initio Electronic Structure Package
                               Psi4 1.9 release

                         Git: Rev {} zzzzzzz 


    D. G. A. Smith, L. A. Burns, A. C. Simmonett, R. M. Parrish,
    M. C. Schieber, R. Galvelis, P. Kraus, H. Kruse, R. Di Remigio,
    A. Alenaizan, A. M. James, S. Lehtola, J. P. Misiewicz, M. Scheurer,
    R. A. Shaw, J. B. Schriber, Y. Xie, Z. L. Glick, D. A. Sirianni,
    J. S. O'Brien, J. M. Waldrop, A. Kumar, E. G. Hohenstein,
    B. P. Pritchard, B. R. Brooks, H. F. Schaefer III, A. Yu. Sokolov,
    K. Patkowski, A. E. DePrince III, U. Bozkaya, R. A. King,
    F. A. Evangelista, J. M. Turney, T. D. Crawford, C. D. Sherrill,
    J. Chem. Phys. 152(18) 184108 (2020). https://doi.org/10.1063/5.0006002

                            Additional Code Authors
    E. T. Seidl, C. L. Janssen, E. F. Valeev, M. L. Leininger,
    J. F. Gonthier, R. M. Richard, H. R. McAlexander, M. Saitow, X. Wang,
    P. Verma, M. H. Lechner, A. Jiang, S. Behnle, A. G. Heide,
    M. F. Herbst, and D. L. Poole

             Previous Authors, Complete List of Code Contributors,
                       and Citations for Specific Modules
    https://github.com/psi4/psi4/blob/master/codemeta.json
    https://github.com/psi4/psi4/graphs/contributors
    http://psicode.org/psi4manual/master/introduction.html#citing-psifour

    -----------------------------------------------------------------------


    Psi4 started on: Wednesday, 03 January 2024 02:45PM

    Process ID: 404793
    Host:       moses-razer
    PSIDATADIR: /home/kchung25/anaconda3/envs/psi4_19/share/psi4
    Memory:     55.9 GiB
    Threads:    6
    
  ==> Input QCSchema <==

--------------------------------------------------------------------------
{'driver': 'energy',
 'extras': {'psiapi': True, 'wfn_qcvars_only': True},
 'id': None,
 'keywords': {'SCF_TYPE': 'DF', 'function_kwargs': {}},
 'model': {'basis': 'aug-cc-pvtz', 'method': 'mp2'},
 'molecule': {'atom_labels': ['', '', '', ''],
              'atomic_numbers': [8, 1, 1, 19],
              'extras': {},
              'fix_com': True,
              'fix_orientation': True,
              'fix_symmetry': 'c1',
              'fragment_charges': [0.0, 0.0],
              'fragment_multiplicities': [1, 1],
              'fragments': [[0, 1, 2], [3]],
              'geometry': [0.0, 0.0, 0.0, -1.4011601124342121, 1.0917798203526328, 0.37543944824920855,
                           -0.6861519972492355, -1.6708032435496643, 0.18385334447191756, 4.660484144578856, 0.0, 0.0],
              'mass_numbers': [16, 1, 1, 39],
              'masses': [15.99491461957, 1.00782503223, 1.00782503223, 38.9637064864],
              'molecular_charge': 0.0,
              'molecular_multiplicity': 1,
              'name': 'dimer',
              'provenance': {'creator': 'QCElemental',
                             'routine': 'qcelemental.molparse.from_string',
                             'version': '0.27.1'},
              'real': [True, True, True, False],
              'schema_name': 'qcschema_molecule',
              'schema_version': 2,
              'symbols': ['O', 'H', 'H', 'K'],
              'validated': True},
 'protocols': {'stdout': True},
 'provenance': {'creator': 'QCElemental', 'routine': 'qcelemental.models.results', 'version': '0.27.1'},
 'schema_name': 'qcschema_input',
 'schema_version': 1}
--------------------------------------------------------------------------

Scratch directory: /scratch/
   => Libint2 <=

    Primary   basis highest AM E, G, H:  5, 4, 3
    Auxiliary basis highest AM E, G, H:  6, 5, 4
    Onebody   basis highest AM E, G, H:  6, 5, 4
    Solid Harmonics ordering:            gaussian

*** tstart() called on moses-razer
*** at Wed Jan  3 14:45:23 2024

   => Loading Basis Set <=

    Name: AUG-CC-PVTZ
    Role: ORBITAL
    Keyword: BASIS
    atoms 1   entry O          line   331 file /home/kchung25/anaconda3/envs/p415env/share/psi4/basis/aug-cc-pvtz.gbs 
    atoms 2-3 entry H          line    40 file /home/kchung25/anaconda3/envs/p415env/share/psi4/basis/aug-cc-pvtz.gbs 
    atoms 4   entry K          line  1152 file /home/kchung25/anaconda3/envs/p415env/share/psi4/basis/aug-cc-pvtz.gbs 


         ---------------------------------------------------------
                                   SCF
               by Justin Turney, Rob Parrish, Andy Simmonett
                          and Daniel G. A. Smith
                              RHF Reference
                        6 Threads,  57220 MiB Core
         ---------------------------------------------------------

  ==> Geometry <==

    Molecular point group: c1
    Full point group: C1

    Geometry (in Bohr), charge = 0, multiplicity = 1:

       Center              X                  Y                   Z               Mass       
    ------------   -----------------  -----------------  -----------------  -----------------
         O            0.000000000000     0.000000000000     0.000000000000    15.994914619570
         H           -1.401160112434     1.091779820353     0.375439448249     1.007825032230
         H           -0.686151997249    -1.670803243550     0.183853344472     1.007825032230
      Gh(K)           4.660484144579     0.000000000000     0.000000000000    38.963706486400

  Running in c1 symmetry.

  Rotational constants: A =     14.36686  B =      0.07091  C =      0.07059 [cm^-1]
  Rotational constants: A = 430707.67162  B =   2125.91932  C =   2116.33513 [MHz]
  Nuclear repulsion =    9.162446434101964

  Charge       = 0
  Multiplicity = 1
  Electrons    = 10
  Nalpha       = 5
  Nbeta        = 5

  ==> Algorithm <==

  SCF Algorithm Type is DF.
  DIIS enabled.
  MOM disabled.
  Fractional occupation disabled.
  Guess Type is SAD.
  Energy threshold   = 1.00e-08
  Density threshold  = 1.00e-08
  Integral threshold = 1.00e-12

  ==> Primary Basis <==

  Basis Set: AUG-CC-PVTZ
    Blend: AUG-CC-PVTZ
    Number of shells: 51
    Number of basis functions: 151
    Number of Cartesian functions: 174
    Spherical Harmonics?: true
    Max angular momentum: 3

   => Loading Basis Set <=

    Name: (AUG-CC-PVTZ AUX)
    Role: JKFIT
    Keyword: DF_BASIS_SCF
    atoms 1   entry O          line   286 file /home/kchung25/anaconda3/envs/p415env/share/psi4/basis/aug-cc-pvtz-jkfit.gbs 
    atoms 2-3 entry H          line    70 file /home/kchung25/anaconda3/envs/p415env/share/psi4/basis/aug-cc-pvtz-jkfit.gbs 
    atoms 4   entry K          line  1152 file /home/kchung25/anaconda3/envs/p415env/share/psi4/basis/def2-universal-jkfit.gbs 

  ==> Integral Setup <==

  DFHelper Memory: AOs need 0.067 GiB; user supplied 41.910 GiB. 
  Using in-core AOs.

  ==> MemDFJK: Density-Fitted J/K Matrices <==

    J tasked:                   Yes
    K tasked:                   Yes
    wK tasked:                   No
    OpenMP threads:               6
    Memory [MiB]:             42915
    Algorithm:                 Core
    Schwarz Cutoff:           1E-12
    Mask sparsity (%):       0.0000
    Fitting Condition:        1E-10

   => Auxiliary Basis Set <=

  Basis Set: (AUG-CC-PVTZ AUX)
    Blend: AUG-CC-PVTZ-JKFIT + DEF2-UNIVERSAL-JKFIT
    Number of shells: 102
    Number of basis functions: 356
    Number of Cartesian functions: 444
    Spherical Harmonics?: true
    Max angular momentum: 4

  Minimum eigenvalue in the overlap matrix is 1.7761534985E-04.
  Reciprocal condition number of the overlap matrix is 1.9996208309E-05.
    Using symmetric orthogonalization.

  ==> Pre-Iterations <==

  SCF Guess: Superposition of Atomic Densities via on-the-fly atomic UHF (no occupation information).

   -------------------------
    Irrep   Nso     Nmo    
   -------------------------
     A        151     151 
   -------------------------
    Total     151     151
   -------------------------

  ==> Iterations <==

                           Total Energy        Delta E     RMS |[F,P]|

   @DF-RHF iter SAD:   -75.47462086717155   -7.54746e+01   0.00000e+00 
   @DF-RHF iter   1:   -75.97587714557937   -5.01256e-01   3.10197e-03 DIIS/ADIIS
   @DF-RHF iter   2:   -76.02834830828867   -5.24712e-02   2.11848e-03 DIIS/ADIIS
   @DF-RHF iter   3:   -76.05991668711461   -3.15684e-02   1.44974e-04 DIIS/ADIIS
   @DF-RHF iter   4:   -76.06031026413659   -3.93577e-04   3.44167e-05 DIIS
   @DF-RHF iter   5:   -76.06033477276407   -2.45086e-05   7.86225e-06 DIIS
   @DF-RHF iter   6:   -76.06033679034398   -2.01758e-06   1.71910e-06 DIIS
   @DF-RHF iter   7:   -76.06033689634589   -1.06002e-07   3.08506e-07 DIIS
   @DF-RHF iter   8:   -76.06033689933307   -2.98718e-09   5.13623e-08 DIIS
   @DF-RHF iter   9:   -76.06033689939848   -6.54126e-11   1.26960e-08 DIIS
   @DF-RHF iter  10:   -76.06033689940234   -3.86535e-12   1.86474e-09 DIIS
  Energy and wave function converged.


  ==> Post-Iterations <==

    Orbital Energies [Eh]
    ---------------------

    Doubly Occupied:                                                      

       1A    -20.568045     2A     -1.352198     3A     -0.714786  
       4A     -0.585399     5A     -0.510230  

    Virtual:                                                              

       6A      0.006964     7A      0.009896     8A      0.010445  
       9A      0.011164    10A      0.018466    11A      0.018612  
      12A      0.019187    13A      0.019656    14A      0.019671  
      15A      0.034074    16A      0.037230    17A      0.038997  
      18A      0.041853    19A      0.062214    20A      0.063470  
      21A      0.066405    22A      0.067743    23A      0.067877  
      24A      0.076684    25A      0.080146    26A      0.104772  
      27A      0.109711    28A      0.110984    29A      0.118032  
      30A      0.142883    31A      0.143675    32A      0.144373  
      33A      0.147556    34A      0.147583    35A      0.167303  
      36A      0.168028    37A      0.199657    38A      0.207239  
      39A      0.216879    40A      0.233298    41A      0.236797  
      42A      0.241051    43A      0.262144    44A      0.267797  
      45A      0.268982    46A      0.272684    47A      0.284652  
      48A      0.289489    49A      0.320419    50A      0.349957  
      51A      0.392877    52A      0.397049    53A      0.411598  
      54A      0.427097    55A      0.463084    56A      0.470056  
      57A      0.470938    58A      0.472821    59A      0.482042  
      60A      0.486023    61A      0.496051    62A      0.519735  
      63A      0.529669    64A      0.652662    65A      0.655280  
      66A      0.708922    67A      0.757015    68A      0.781636  
      69A      0.826801    70A      0.881312    71A      0.910101  
      72A      0.961026    73A      0.967424    74A      0.999317  
      75A      1.011101    76A      1.039912    77A      1.052180  
      78A      1.081166    79A      1.102449    80A      1.138826  
      81A      1.148257    82A      1.184891    83A      1.206158  
      84A      1.289364    85A      1.526082    86A      1.555736  
      87A      1.592202    88A      1.829102    89A      1.840597  
      90A      1.871725    91A      1.895594    92A      1.946585  
      93A      1.964636    94A      2.002551    95A      2.017431  
      96A      2.136980    97A      2.208640    98A      2.233797  
      99A      2.322356   100A      2.330312   101A      2.348986  
     102A      2.404051   103A      2.441377   104A      2.511197  
     105A      2.538662   106A      2.636527   107A      2.751422  
     108A      2.757688   109A      2.797497   110A      2.894723  
     111A      2.926354   112A      3.117985   113A      3.720389  
     114A      3.802688   115A      4.033140   116A      4.145350  
     117A      4.206105   118A      4.269669   119A      4.301732  
     120A      4.416306   121A      4.441260   122A      4.468407  
     123A      4.535345   124A      4.779584   125A      4.857581  
     126A      5.155727   127A      5.158122   128A      5.265592  
     129A      5.344808   130A      5.528129   131A      5.719929  
     132A      6.232230   133A      6.566505   134A      6.727410  
     135A      6.920275   136A      7.156189   137A      7.313437  
     138A      7.316603   139A      7.323588   140A      7.376689  
     141A      7.401357   142A      7.559328   143A      7.911889  
     144A      7.935887   145A      8.823592   146A     10.294503  
     147A     15.810597   148A     30.253588   149A     30.294796  
     150A     30.805270   151A    197.821709  

    Final Occupation by Irrep:
              A 
    DOCC [     5 ]
    NA   [     5 ]
    NB   [     5 ]

  @DF-RHF Final Energy:   -76.06033689940234

   => Energetics <=

    Nuclear Repulsion Energy =              9.1624464341019642
    One-Electron Energy =                -122.9842524610918133
    Two-Electron Energy =                  37.7614691275875032
    Total Energy =                        -76.0603368994023441

Computation Completed


Properties will be evaluated at   0.000000,   0.000000,   0.000000 [a0]

Properties computed using the SCF density matrix


 Multipole Moments:

 ------------------------------------------------------------------------------------
     Multipole            Electronic (a.u.)      Nuclear  (a.u.)        Total (a.u.)
 ------------------------------------------------------------------------------------

 L = 1.  Multiply by 2.5417464519 to convert [e a0] to [Debye]
 Dipole X            :          1.3549495           -2.0873121           -0.7323627
 Dipole Y            :          0.3758977           -0.5790234           -0.2031257
 Dipole Z            :         -0.3631605            0.5592928            0.1961323
 Magnitude           :                                                    0.7849096

 ------------------------------------------------------------------------------------

*** tstop() called on moses-razer at Wed Jan  3 14:45:27 2024
Module time:
	user time   =       8.26 seconds =       0.14 minutes
	system time =       1.24 seconds =       0.02 minutes
	total time  =          4 seconds =       0.07 minutes
Total time:
	user time   =      25.27 seconds =       0.42 minutes
	system time =       4.55 seconds =       0.08 minutes
	total time  =         14 seconds =       0.23 minutes

*** tstart() called on moses-razer
*** at Wed Jan  3 14:45:27 2024


  //>>>>>>>>>>>>>>>>>>>>>>>>>>>>>>>>>>>//
  //               DFMP2               //
  //<<<<<<<<<<<<<<<<<<<<<<<<<<<<<<<<<<<//

   => Loading Basis Set <=

    Name: (AUG-CC-PVTZ AUX)
    Role: RIFIT
    Keyword: DF_BASIS_MP2
    atoms 1   entry O          line   264 file /home/kchung25/anaconda3/envs/p415env/share/psi4/basis/aug-cc-pvtz-ri.gbs 
    atoms 2-3 entry H          line    30 file /home/kchung25/anaconda3/envs/p415env/share/psi4/basis/aug-cc-pvtz-ri.gbs 
    atoms 4   entry K          line  1282 file /home/kchung25/anaconda3/envs/p415env/share/psi4/basis/def2-qzvpp-ri.gbs 

	 --------------------------------------------------------
	                          DF-MP2                         
	      2nd-Order Density-Fitted Moller-Plesset Theory     
	              RMP2 Wavefunction,   6 Threads             
	                                                         
	        Rob Parrish, Justin Turney, Andy Simmonett,      
	           Ed Hohenstein, and C. David Sherrill          
	 --------------------------------------------------------

   => Auxiliary Basis Set <=

  Basis Set: (AUG-CC-PVTZ AUX)
    Blend: AUG-CC-PVTZ-RI + DEF2-QZVPP-RI
    Number of shells: 105
    Number of basis functions: 397
    Number of Cartesian functions: 508
    Spherical Harmonics?: true
    Max angular momentum: 4

	 --------------------------------------------------------
	                 NBF =   151, NAUX =   397
	 --------------------------------------------------------
	   CLASS    FOCC     OCC    AOCC    AVIR     VIR    FVIR
	   PAIRS       0       5       5     146     146       0
	 --------------------------------------------------------

	-----------------------------------------------------------
	 ==================> DF-MP2 Energies <==================== 
	-----------------------------------------------------------
	 Reference Energy          =     -76.0603368994023441 [Eh]
	 Singles Energy            =      -0.0000000000000000 [Eh]
	 Same-Spin Energy          =      -0.0684291931430317 [Eh]
	 Opposite-Spin Energy      =      -0.2155354777061051 [Eh]
	 Correlation Energy        =      -0.2839646708491367 [Eh]
	 Total Energy              =     -76.3443015702514742 [Eh]
	-----------------------------------------------------------
	 ================> DF-SCS-MP2 Energies <================== 
	-----------------------------------------------------------
	 SCS Same-Spin Scale       =       0.3333333333333333 [-]
	 SCS Opposite-Spin Scale   =       1.2000000000000000 [-]
	 SCS Same-Spin Energy      =      -0.0228097310476772 [Eh]
	 SCS Opposite-Spin Energy  =      -0.2586425732473261 [Eh]
	 SCS Correlation Energy    =      -0.2814523042950033 [Eh]
	 SCS Total Energy          =     -76.3417892036973456 [Eh]
	-----------------------------------------------------------


*** tstop() called on moses-razer at Wed Jan  3 14:45:31 2024
Module time:
	user time   =       5.66 seconds =       0.09 minutes
	system time =       0.79 seconds =       0.01 minutes
	total time  =          4 seconds =       0.07 minutes
Total time:
	user time   =      30.93 seconds =       0.52 minutes
	system time =       5.34 seconds =       0.09 minutes
	total time  =         18 seconds =       0.30 minutes

    Psi4 stopped on: Wednesday, 03 January 2024 02:45PM
    Psi4 wall time for execution: 0:00:08.08


    -----------------------------------------------------------------------
          Psi4: An Open-Source Ab Initio Electronic Structure Package
                               Psi4 1.9 release

                         Git: Rev {} zzzzzzz 


    D. G. A. Smith, L. A. Burns, A. C. Simmonett, R. M. Parrish,
    M. C. Schieber, R. Galvelis, P. Kraus, H. Kruse, R. Di Remigio,
    A. Alenaizan, A. M. James, S. Lehtola, J. P. Misiewicz, M. Scheurer,
    R. A. Shaw, J. B. Schriber, Y. Xie, Z. L. Glick, D. A. Sirianni,
    J. S. O'Brien, J. M. Waldrop, A. Kumar, E. G. Hohenstein,
    B. P. Pritchard, B. R. Brooks, H. F. Schaefer III, A. Yu. Sokolov,
    K. Patkowski, A. E. DePrince III, U. Bozkaya, R. A. King,
    F. A. Evangelista, J. M. Turney, T. D. Crawford, C. D. Sherrill,
    J. Chem. Phys. 152(18) 184108 (2020). https://doi.org/10.1063/5.0006002

                            Additional Code Authors
    E. T. Seidl, C. L. Janssen, E. F. Valeev, M. L. Leininger,
    J. F. Gonthier, R. M. Richard, H. R. McAlexander, M. Saitow, X. Wang,
    P. Verma, M. H. Lechner, A. Jiang, S. Behnle, A. G. Heide,
    M. F. Herbst, and D. L. Poole

             Previous Authors, Complete List of Code Contributors,
                       and Citations for Specific Modules
    https://github.com/psi4/psi4/blob/master/codemeta.json
    https://github.com/psi4/psi4/graphs/contributors
    http://psicode.org/psi4manual/master/introduction.html#citing-psifour

    -----------------------------------------------------------------------


    Psi4 started on: Wednesday, 03 January 2024 02:45PM

    Process ID: 404793
    Host:       moses-razer
    PSIDATADIR: /home/kchung25/anaconda3/envs/psi4_19/share/psi4
    Memory:     55.9 GiB
    Threads:    6
    
  ==> Input QCSchema <==

--------------------------------------------------------------------------
{'driver': 'energy',
 'extras': {'psiapi': True, 'wfn_qcvars_only': True},
 'id': None,
 'keywords': {'SCF_TYPE': 'DF', 'function_kwargs': {}},
 'model': {'basis': 'aug-cc-pvtz', 'method': 'mp2'},
 'molecule': {'atom_labels': ['', '', '', ''],
              'atomic_numbers': [8, 1, 1, 19],
              'extras': {},
              'fix_com': True,
              'fix_orientation': True,
              'fix_symmetry': 'c1',
              'fragment_charges': [0.0, 1.0],
              'fragment_multiplicities': [1, 1],
              'fragments': [[0, 1, 2], [3]],
              'geometry': [0.0, 0.0, 0.0, -1.4011601124342121, 1.0917798203526328, 0.37543944824920855,
                           -0.6861519972492355, -1.6708032435496643, 0.18385334447191756, 4.660484144578856, 0.0, 0.0],
              'mass_numbers': [16, 1, 1, 39],
              'masses': [15.99491461957, 1.00782503223, 1.00782503223, 38.9637064864],
              'molecular_charge': 1.0,
              'molecular_multiplicity': 1,
              'name': 'dimer',
              'provenance': {'creator': 'QCElemental',
                             'routine': 'qcelemental.molparse.from_string',
                             'version': '0.27.1'},
              'real': [True, True, True, True],
              'schema_name': 'qcschema_molecule',
              'schema_version': 2,
              'symbols': ['O', 'H', 'H', 'K'],
              'validated': True},
 'protocols': {'stdout': True},
 'provenance': {'creator': 'QCElemental', 'routine': 'qcelemental.models.results', 'version': '0.27.1'},
 'schema_name': 'qcschema_input',
 'schema_version': 1}
--------------------------------------------------------------------------

Scratch directory: /scratch/
   => Libint2 <=

    Primary   basis highest AM E, G, H:  5, 4, 3
    Auxiliary basis highest AM E, G, H:  6, 5, 4
    Onebody   basis highest AM E, G, H:  6, 5, 4
    Solid Harmonics ordering:            gaussian

*** tstart() called on moses-razer
*** at Wed Jan  3 14:45:31 2024

   => Loading Basis Set <=

    Name: AUG-CC-PVTZ
    Role: ORBITAL
    Keyword: BASIS
    atoms 1   entry O          line   331 file /home/kchung25/anaconda3/envs/p415env/share/psi4/basis/aug-cc-pvtz.gbs 
    atoms 2-3 entry H          line    40 file /home/kchung25/anaconda3/envs/p415env/share/psi4/basis/aug-cc-pvtz.gbs 
    atoms 4   entry K          line  1152 file /home/kchung25/anaconda3/envs/p415env/share/psi4/basis/aug-cc-pvtz.gbs 


         ---------------------------------------------------------
                                   SCF
               by Justin Turney, Rob Parrish, Andy Simmonett
                          and Daniel G. A. Smith
                              RHF Reference
                        6 Threads,  57220 MiB Core
         ---------------------------------------------------------

  ==> Geometry <==

    Molecular point group: c1
    Full point group: C1

    Geometry (in Bohr), charge = 1, multiplicity = 1:

       Center              X                  Y                   Z               Mass       
    ------------   -----------------  -----------------  -----------------  -----------------
         O            0.000000000000     0.000000000000     0.000000000000    15.994914619570
         H           -1.401160112434     1.091779820353     0.375439448249     1.007825032230
         H           -0.686151997249    -1.670803243550     0.183853344472     1.007825032230
         K            4.660484144579     0.000000000000     0.000000000000    38.963706486400

  Running in c1 symmetry.

  Rotational constants: A =     14.36686  B =      0.07091  C =      0.07059 [cm^-1]
  Rotational constants: A = 430707.67162  B =   2125.91932  C =   2116.33513 [MHz]
  Nuclear repulsion =   48.246247059365849

  Charge       = 1
  Multiplicity = 1
  Electrons    = 28
  Nalpha       = 14
  Nbeta        = 14

  ==> Algorithm <==

  SCF Algorithm Type is DF.
  DIIS enabled.
  MOM disabled.
  Fractional occupation disabled.
  Guess Type is SAD.
  Energy threshold   = 1.00e-08
  Density threshold  = 1.00e-08
  Integral threshold = 1.00e-12

  ==> Primary Basis <==

  Basis Set: AUG-CC-PVTZ
    Blend: AUG-CC-PVTZ
    Number of shells: 51
    Number of basis functions: 151
    Number of Cartesian functions: 174
    Spherical Harmonics?: true
    Max angular momentum: 3

   => Loading Basis Set <=

    Name: (AUG-CC-PVTZ AUX)
    Role: JKFIT
    Keyword: DF_BASIS_SCF
    atoms 1   entry O          line   286 file /home/kchung25/anaconda3/envs/p415env/share/psi4/basis/aug-cc-pvtz-jkfit.gbs 
    atoms 2-3 entry H          line    70 file /home/kchung25/anaconda3/envs/p415env/share/psi4/basis/aug-cc-pvtz-jkfit.gbs 
    atoms 4   entry K          line  1152 file /home/kchung25/anaconda3/envs/p415env/share/psi4/basis/def2-universal-jkfit.gbs 

  ==> Integral Setup <==

  DFHelper Memory: AOs need 0.067 GiB; user supplied 41.910 GiB. 
  Using in-core AOs.

  ==> MemDFJK: Density-Fitted J/K Matrices <==

    J tasked:                   Yes
    K tasked:                   Yes
    wK tasked:                   No
    OpenMP threads:               6
    Memory [MiB]:             42915
    Algorithm:                 Core
    Schwarz Cutoff:           1E-12
    Mask sparsity (%):       0.0000
    Fitting Condition:        1E-10

   => Auxiliary Basis Set <=

  Basis Set: (AUG-CC-PVTZ AUX)
    Blend: AUG-CC-PVTZ-JKFIT + DEF2-UNIVERSAL-JKFIT
    Number of shells: 102
    Number of basis functions: 356
    Number of Cartesian functions: 444
    Spherical Harmonics?: true
    Max angular momentum: 4

  Minimum eigenvalue in the overlap matrix is 1.7761534985E-04.
  Reciprocal condition number of the overlap matrix is 1.9996208309E-05.
    Using symmetric orthogonalization.

  ==> Pre-Iterations <==

  SCF Guess: Superposition of Atomic Densities via on-the-fly atomic UHF (no occupation information).

   -------------------------
    Irrep   Nso     Nmo    
   -------------------------
     A        151     151 
   -------------------------
    Total     151     151
   -------------------------

  ==> Iterations <==

                           Total Energy        Delta E     RMS |[F,P]|

   @DF-RHF iter SAD:  -674.58228675491341   -6.74582e+02   0.00000e+00 
   @DF-RHF iter   1:  -675.01336913596833   -4.31082e-01   3.21929e-03 DIIS/ADIIS
   @DF-RHF iter   2:  -675.06986577380906   -5.64966e-02   2.10844e-03 DIIS/ADIIS
   @DF-RHF iter   3:  -675.10087335803394   -3.10076e-02   1.46295e-04 DIIS/ADIIS
   @DF-RHF iter   4:  -675.10124512738435   -3.71769e-04   3.35118e-05 DIIS
   @DF-RHF iter   5:  -675.10126655665351   -2.14293e-05   7.42434e-06 DIIS
   @DF-RHF iter   6:  -675.10126811140390   -1.55475e-06   1.53984e-06 DIIS
   @DF-RHF iter   7:  -675.10126818206970   -7.06658e-08   3.70484e-07 DIIS
   @DF-RHF iter   8:  -675.10126818576316   -3.69346e-09   7.91185e-08 DIIS
   @DF-RHF iter   9:  -675.10126818591493   -1.51772e-10   1.09541e-08 DIIS
   @DF-RHF iter  10:  -675.10126818591823   -3.29692e-12   2.94189e-09 DIIS
  Energy and wave function converged.


  ==> Post-Iterations <==

    Orbital Energies [Eh]
    ---------------------

    Doubly Occupied:                                                      

       1A   -133.703511     2A    -20.758870     3A    -14.660443  
       4A    -11.690439     5A    -11.690400     6A    -11.690268  
       7A     -1.920190     8A     -1.549752     9A     -1.129221  
      10A     -1.128135    11A     -1.128092    12A     -0.909805  
      13A     -0.793168    14A     -0.709106  

    Virtual:                                                              

      15A     -0.125882    16A     -0.088358    17A     -0.085275  
      18A     -0.083012    19A     -0.058750    20A     -0.055303  
      21A     -0.053167    22A     -0.052964    23A     -0.052626  
      24A     -0.051593    25A     -0.042885    26A     -0.041825  
      27A     -0.041106    28A     -0.028720    29A     -0.028194  
      30A     -0.028003    31A     -0.027344    32A     -0.025737  
      33A     -0.014947    34A     -0.013626    35A     -0.012242  
      36A     -0.010506    37A     -0.007057    38A     -0.003946  
      39A      0.017963    40A      0.018641    41A      0.019609  
      42A      0.023110    43A      0.023128    44A      0.029150  
      45A      0.033697    46A      0.034044    47A      0.034762  
      48A      0.050278    49A      0.065451    50A      0.075881  
      51A      0.087808    52A      0.102402    53A      0.111698  
      54A      0.115156    55A      0.119205    56A      0.127938  
      57A      0.138153    58A      0.172692    59A      0.178397  
      60A      0.220998    61A      0.231956    62A      0.243927  
      63A      0.245526    64A      0.253437    65A      0.254068  
      66A      0.255285    67A      0.257428    68A      0.261942  
      69A      0.264562    70A      0.275012    71A      0.276333  
      72A      0.280122    73A      0.314025    74A      0.334720  
      75A      0.339897    76A      0.349710    77A      0.384886  
      78A      0.521461    79A      0.549876    80A      0.592297  
      81A      0.633284    82A      0.674774    83A      0.726973  
      84A      0.737453    85A      0.812808    86A      0.830993  
      87A      0.839143    88A      0.864905    89A      0.894850  
      90A      0.907955    91A      0.929320    92A      0.942977  
      93A      0.976347    94A      0.995058    95A      1.022194  
      96A      1.057257    97A      1.151923    98A      1.184616  
      99A      1.380562   100A      1.432794   101A      1.467310  
     102A      1.672769   103A      1.683257   104A      1.816824  
     105A      1.941305   106A      2.097846   107A      2.120036  
     108A      2.171393   109A      2.213518   110A      2.278856  
     111A      2.316585   112A      2.390181   113A      2.512826  
     114A      2.556998   115A      2.611077   116A      2.650773  
     117A      2.707778   118A      3.528323   119A      3.596637  
     120A      3.849175   121A      3.949072   122A      4.014625  
     123A      4.080463   124A      4.109181   125A      4.229917  
     126A      4.238180   127A      4.270716   128A      4.345129  
     129A      4.583232   130A      4.672078   131A      4.963174  
     132A      4.973198   133A      5.059623   134A      5.151214  
     135A      5.338382   136A      5.512861   137A      6.030664  
     138A      6.365862   139A      6.520383   140A      6.715699  
     141A      6.955317   142A      7.113457   143A      7.115458  
     144A      7.122526   145A      7.181421   146A      7.195709  
     147A      7.360373   148A      7.713890   149A      7.734142  
     150A      8.629428   151A     15.619174  

    Final Occupation by Irrep:
              A 
    DOCC [    14 ]
    NA   [    14 ]
    NB   [    14 ]

  @DF-RHF Final Energy:  -675.10126818591823

   => Energetics <=

    Nuclear Repulsion Energy =             48.2462470593658495
    One-Electron Energy =               -1019.7722288144800586
    Two-Electron Energy =                 296.4247135691959443
    Total Energy =                       -675.1012681859183431

Computation Completed


Properties will be evaluated at   0.000000,   0.000000,   0.000000 [a0]

Properties computed using the SCF density matrix


 Multipole Moments:

 ------------------------------------------------------------------------------------
     Multipole            Electronic (a.u.)      Nuclear  (a.u.)        Total (a.u.)
 ------------------------------------------------------------------------------------

 L = 1.  Multiply by 2.5417464519 to convert [e a0] to [Debye]
 Dipole X            :        -82.9159966           86.4618866            3.5458900
 Dipole Y            :          0.3822966           -0.5790234           -0.1967268
 Dipole Z            :         -0.3522555            0.5592928            0.2070373
 Magnitude           :                                                    3.5573729

 ------------------------------------------------------------------------------------

*** tstop() called on moses-razer at Wed Jan  3 14:45:37 2024
Module time:
	user time   =      11.94 seconds =       0.20 minutes
	system time =       2.42 seconds =       0.04 minutes
	total time  =          6 seconds =       0.10 minutes
Total time:
	user time   =      43.09 seconds =       0.72 minutes
	system time =       7.76 seconds =       0.13 minutes
	total time  =         24 seconds =       0.40 minutes

*** tstart() called on moses-razer
*** at Wed Jan  3 14:45:37 2024


  //>>>>>>>>>>>>>>>>>>>>>>>>>>>>>>>>>>>//
  //               DFMP2               //
  //<<<<<<<<<<<<<<<<<<<<<<<<<<<<<<<<<<<//

   => Loading Basis Set <=

    Name: (AUG-CC-PVTZ AUX)
    Role: RIFIT
    Keyword: DF_BASIS_MP2
    atoms 1   entry O          line   264 file /home/kchung25/anaconda3/envs/p415env/share/psi4/basis/aug-cc-pvtz-ri.gbs 
    atoms 2-3 entry H          line    30 file /home/kchung25/anaconda3/envs/p415env/share/psi4/basis/aug-cc-pvtz-ri.gbs 
    atoms 4   entry K          line  1282 file /home/kchung25/anaconda3/envs/p415env/share/psi4/basis/def2-qzvpp-ri.gbs 

	 --------------------------------------------------------
	                          DF-MP2                         
	      2nd-Order Density-Fitted Moller-Plesset Theory     
	              RMP2 Wavefunction,   6 Threads             
	                                                         
	        Rob Parrish, Justin Turney, Andy Simmonett,      
	           Ed Hohenstein, and C. David Sherrill          
	 --------------------------------------------------------

   => Auxiliary Basis Set <=

  Basis Set: (AUG-CC-PVTZ AUX)
    Blend: AUG-CC-PVTZ-RI + DEF2-QZVPP-RI
    Number of shells: 105
    Number of basis functions: 397
    Number of Cartesian functions: 508
    Spherical Harmonics?: true
    Max angular momentum: 4

	 --------------------------------------------------------
	                 NBF =   151, NAUX =   397
	 --------------------------------------------------------
	   CLASS    FOCC     OCC    AOCC    AVIR     VIR    FVIR
	   PAIRS       0      14      14     137     137       0
	 --------------------------------------------------------

	-----------------------------------------------------------
	 ==================> DF-MP2 Energies <==================== 
	-----------------------------------------------------------
	 Reference Energy          =    -675.1012681859182294 [Eh]
	 Singles Energy            =      -0.0000000000000000 [Eh]
	 Same-Spin Energy          =      -0.0985697866870491 [Eh]
	 Opposite-Spin Energy      =      -0.2842209273968943 [Eh]
	 Correlation Energy        =      -0.3827907140839434 [Eh]
	 Total Energy              =    -675.4840589000021964 [Eh]
	-----------------------------------------------------------
	 ================> DF-SCS-MP2 Energies <================== 
	-----------------------------------------------------------
	 SCS Same-Spin Scale       =       0.3333333333333333 [-]
	 SCS Opposite-Spin Scale   =       1.2000000000000000 [-]
	 SCS Same-Spin Energy      =      -0.0328565955623497 [Eh]
	 SCS Opposite-Spin Energy  =      -0.3410651128762732 [Eh]
	 SCS Correlation Energy    =      -0.3739217084386229 [Eh]
	 SCS Total Energy          =    -675.4751898943568449 [Eh]
	-----------------------------------------------------------


*** tstop() called on moses-razer at Wed Jan  3 14:45:41 2024
Module time:
	user time   =       5.87 seconds =       0.10 minutes
	system time =       0.73 seconds =       0.01 minutes
	total time  =          4 seconds =       0.07 minutes
Total time:
	user time   =      48.96 seconds =       0.82 minutes
	system time =       8.49 seconds =       0.14 minutes
	total time  =         28 seconds =       0.47 minutes

    Psi4 stopped on: Wednesday, 03 January 2024 02:45PM
    Psi4 wall time for execution: 0:00:10.33


  //>>>>>>>>>>>>>>>>>>>>>>>>>>>>>>>>>>>//
  //          ManyBody Results         //
  //<<<<<<<<<<<<<<<<<<<<<<<<<<<<<<<<<<<//


   ==> N-Body: Counterpoise Corrected (CP) energies <==

        n-Body     Total Energy            Interaction Energy                          N-body Contribution to Interaction Energy
                   [Eh]                    [Eh]                  [kcal/mol]            [Eh]                  [kcal/mol]
             1  N/A                         0.000000000000        0.000000000000        0.000000000000        0.000000000000
  FULL/RTN   2  N/A                        -0.024399119246      -15.310678478924       -0.024399119246      -15.310678478924


    Psi4 stopped on: Wednesday, 03 January 2024 02:45PM
    Psi4 wall time for execution: 0:00:30.20

*** Psi4 exiting successfully. Buy a developer a beer!
