
    -----------------------------------------------------------------------
          Psi4: An Open-Source Ab Initio Electronic Structure Package
                               Psi4 1.9 release

                         Git: Rev {} zzzzzzz 


    D. G. A. Smith, L. A. Burns, A. C. Simmonett, R. M. Parrish,
    M. C. Schieber, R. Galvelis, P. Kraus, H. Kruse, R. Di Remigio,
    A. Alenaizan, A. M. James, S. Lehtola, J. P. Misiewicz, M. Scheurer,
    R. A. Shaw, J. B. Schriber, Y. Xie, Z. L. Glick, D. A. Sirianni,
    J. S. O'Brien, J. M. Waldrop, A. Kumar, E. G. Hohenstein,
    B. P. Pritchard, B. R. Brooks, H. F. Schaefer III, A. Yu. Sokolov,
    K. Patkowski, A. E. DePrince III, U. Bozkaya, R. A. King,
    F. A. Evangelista, J. M. Turney, T. D. Crawford, C. D. Sherrill,
    J. Chem. Phys. 152(18) 184108 (2020). https://doi.org/10.1063/5.0006002

                            Additional Code Authors
    E. T. Seidl, C. L. Janssen, E. F. Valeev, M. L. Leininger,
    J. F. Gonthier, R. M. Richard, H. R. McAlexander, M. Saitow, X. Wang,
    P. Verma, M. H. Lechner, A. Jiang, S. Behnle, A. G. Heide,
    M. F. Herbst, and D. L. Poole

             Previous Authors, Complete List of Code Contributors,
                       and Citations for Specific Modules
    https://github.com/psi4/psi4/blob/master/codemeta.json
    https://github.com/psi4/psi4/graphs/contributors
    http://psicode.org/psi4manual/master/introduction.html#citing-psifour

    -----------------------------------------------------------------------


    Psi4 started on: Wednesday, 03 January 2024 03:01PM

    Process ID: 406181
    Host:       moses-razer
    PSIDATADIR: /home/kchung25/anaconda3/envs/psi4_19/share/psi4
    Memory:     500.0 MiB
    Threads:    6
    
  ==> Input File <==

--------------------------------------------------------------------------
MEMORY 60 GB

molecule dimer {
0 1
O      0.000000     0.000000     0.000000
H     -0.866713     0.334379     0.232235
H      0.542672     0.899651    -0.145409
--
-1 1
F      2.426389     0.000000     0.000000

units ang
no_reorient
no_com
symmetry c1
}

set {
basis        aug-cc-pVTZ
scf_type     df
}

energy("mp2", bsse_type="cp")
--------------------------------------------------------------------------

  Memory set to  55.879 GiB by Python driver.

Scratch directory: /scratch/

  //>>>>>>>>>>>>>>>>>>>>>>>>>>>>>>>>>>>>>//
  // ManyBody Setup: N-Body Levels [1, 2]//
  //<<<<<<<<<<<<<<<<<<<<<<<<<<<<<<<<<<<<<//

        Number of 1-body computations:     2
        Number of 2-body computations:     1

    -----------------------------------------------------------------------
          Psi4: An Open-Source Ab Initio Electronic Structure Package
                               Psi4 1.9 release

                         Git: Rev {} zzzzzzz 


    D. G. A. Smith, L. A. Burns, A. C. Simmonett, R. M. Parrish,
    M. C. Schieber, R. Galvelis, P. Kraus, H. Kruse, R. Di Remigio,
    A. Alenaizan, A. M. James, S. Lehtola, J. P. Misiewicz, M. Scheurer,
    R. A. Shaw, J. B. Schriber, Y. Xie, Z. L. Glick, D. A. Sirianni,
    J. S. O'Brien, J. M. Waldrop, A. Kumar, E. G. Hohenstein,
    B. P. Pritchard, B. R. Brooks, H. F. Schaefer III, A. Yu. Sokolov,
    K. Patkowski, A. E. DePrince III, U. Bozkaya, R. A. King,
    F. A. Evangelista, J. M. Turney, T. D. Crawford, C. D. Sherrill,
    J. Chem. Phys. 152(18) 184108 (2020). https://doi.org/10.1063/5.0006002

                            Additional Code Authors
    E. T. Seidl, C. L. Janssen, E. F. Valeev, M. L. Leininger,
    J. F. Gonthier, R. M. Richard, H. R. McAlexander, M. Saitow, X. Wang,
    P. Verma, M. H. Lechner, A. Jiang, S. Behnle, A. G. Heide,
    M. F. Herbst, and D. L. Poole

             Previous Authors, Complete List of Code Contributors,
                       and Citations for Specific Modules
    https://github.com/psi4/psi4/blob/master/codemeta.json
    https://github.com/psi4/psi4/graphs/contributors
    http://psicode.org/psi4manual/master/introduction.html#citing-psifour

    -----------------------------------------------------------------------


    Psi4 started on: Wednesday, 03 January 2024 03:01PM

    Process ID: 406181
    Host:       moses-razer
    PSIDATADIR: /home/kchung25/anaconda3/envs/psi4_19/share/psi4
    Memory:     55.9 GiB
    Threads:    6
    
  ==> Input QCSchema <==

--------------------------------------------------------------------------
{'driver': 'energy',
 'extras': {'psiapi': True, 'wfn_qcvars_only': True},
 'id': None,
 'keywords': {'SCF_TYPE': 'DF', 'function_kwargs': {}},
 'model': {'basis': 'aug-cc-pvtz', 'method': 'mp2'},
 'molecule': {'atom_labels': ['', '', '', ''],
              'atomic_numbers': [8, 1, 1, 9],
              'extras': {},
              'fix_com': True,
              'fix_orientation': True,
              'fix_symmetry': 'c1',
              'fragment_charges': [0.0, -1.0],
              'fragment_multiplicities': [1, 1],
              'fragments': [[0, 1, 2], [3]],
              'geometry': [0.0, 0.0, 0.0, -1.6378501993739305, 0.631884732104463, 0.4388605467456987,
                           1.0255014559544506, 1.7000939984942605, -0.27478318617669734, 4.585210683823494, 0.0, 0.0],
              'mass_numbers': [16, 1, 1, 19],
              'masses': [15.99491461957, 1.00782503223, 1.00782503223, 18.99840316273],
              'molecular_charge': -1.0,
              'molecular_multiplicity': 1,
              'name': 'dimer',
              'provenance': {'creator': 'QCElemental',
                             'routine': 'qcelemental.molparse.from_string',
                             'version': '0.27.1'},
              'real': [False, False, False, True],
              'schema_name': 'qcschema_molecule',
              'schema_version': 2,
              'symbols': ['O', 'H', 'H', 'F'],
              'validated': True},
 'protocols': {'stdout': True},
 'provenance': {'creator': 'QCElemental', 'routine': 'qcelemental.models.results', 'version': '0.27.1'},
 'schema_name': 'qcschema_input',
 'schema_version': 1}
--------------------------------------------------------------------------

Scratch directory: /scratch/
   => Libint2 <=

    Primary   basis highest AM E, G, H:  5, 4, 3
    Auxiliary basis highest AM E, G, H:  6, 5, 4
    Onebody   basis highest AM E, G, H:  6, 5, 4
    Solid Harmonics ordering:            gaussian

*** tstart() called on moses-razer
*** at Wed Jan  3 15:01:32 2024

   => Loading Basis Set <=

    Name: AUG-CC-PVTZ
    Role: ORBITAL
    Keyword: BASIS
    atoms 1   entry O          line   331 file /home/kchung25/anaconda3/envs/p415env/share/psi4/basis/aug-cc-pvtz.gbs 
    atoms 2-3 entry H          line    40 file /home/kchung25/anaconda3/envs/p415env/share/psi4/basis/aug-cc-pvtz.gbs 
    atoms 4   entry F          line   377 file /home/kchung25/anaconda3/envs/p415env/share/psi4/basis/aug-cc-pvtz.gbs 


         ---------------------------------------------------------
                                   SCF
               by Justin Turney, Rob Parrish, Andy Simmonett
                          and Daniel G. A. Smith
                              RHF Reference
                        6 Threads,  57220 MiB Core
         ---------------------------------------------------------

  ==> Geometry <==

    Molecular point group: c1
    Full point group: C1

    Geometry (in Bohr), charge = -1, multiplicity = 1:

       Center              X                  Y                   Z               Mass       
    ------------   -----------------  -----------------  -----------------  -----------------
      Gh(O)           0.000000000000     0.000000000000     0.000000000000    15.994914619570
      Gh(H)          -1.637850199374     0.631884732104     0.438860546746     1.007825032230
      Gh(H)           1.025501455954     1.700093998494    -0.274783186177     1.007825032230
         F            4.585210683823     0.000000000000     0.000000000000    18.998403162730

  Running in c1 symmetry.

  Rotational constants: A =     16.80738  B =      0.14921  C =      0.14809 [cm^-1]
  Rotational constants: A = 503872.63657  B =   4473.28692  C =   4439.50627 [MHz]
  Nuclear repulsion =    0.000000000000000

  Charge       = -1
  Multiplicity = 1
  Electrons    = 10
  Nalpha       = 5
  Nbeta        = 5

  ==> Algorithm <==

  SCF Algorithm Type is DF.
  DIIS enabled.
  MOM disabled.
  Fractional occupation disabled.
  Guess Type is SAD.
  Energy threshold   = 1.00e-08
  Density threshold  = 1.00e-08
  Integral threshold = 1.00e-12

  ==> Primary Basis <==

  Basis Set: AUG-CC-PVTZ
    Blend: AUG-CC-PVTZ
    Number of shells: 46
    Number of basis functions: 138
    Number of Cartesian functions: 160
    Spherical Harmonics?: true
    Max angular momentum: 3

   => Loading Basis Set <=

    Name: (AUG-CC-PVTZ AUX)
    Role: JKFIT
    Keyword: DF_BASIS_SCF
    atoms 1   entry O          line   286 file /home/kchung25/anaconda3/envs/p415env/share/psi4/basis/aug-cc-pvtz-jkfit.gbs 
    atoms 2-3 entry H          line    70 file /home/kchung25/anaconda3/envs/p415env/share/psi4/basis/aug-cc-pvtz-jkfit.gbs 
    atoms 4   entry F          line   348 file /home/kchung25/anaconda3/envs/p415env/share/psi4/basis/aug-cc-pvtz-jkfit.gbs 

  ==> Integral Setup <==

  DFHelper Memory: AOs need 0.048 GiB; user supplied 41.910 GiB. 
  Using in-core AOs.

  ==> MemDFJK: Density-Fitted J/K Matrices <==

    J tasked:                   Yes
    K tasked:                   Yes
    wK tasked:                   No
    OpenMP threads:               6
    Memory [MiB]:             42915
    Algorithm:                 Core
    Schwarz Cutoff:           1E-12
    Mask sparsity (%):       0.6826
    Fitting Condition:        1E-10

   => Auxiliary Basis Set <=

  Basis Set: (AUG-CC-PVTZ AUX)
    Blend: AUG-CC-PVTZ-JKFIT
    Number of shells: 88
    Number of basis functions: 300
    Number of Cartesian functions: 372
    Spherical Harmonics?: true
    Max angular momentum: 4

  Minimum eigenvalue in the overlap matrix is 3.5159133909E-04.
  Reciprocal condition number of the overlap matrix is 4.8613491293E-05.
    Using symmetric orthogonalization.

  ==> Pre-Iterations <==

  SCF Guess: Superposition of Atomic Densities via on-the-fly atomic UHF (no occupation information).

   -------------------------
    Irrep   Nso     Nmo    
   -------------------------
     A        138     138 
   -------------------------
    Total     138     138
   -------------------------

  ==> Iterations <==

                           Total Energy        Delta E     RMS |[F,P]|

   @DF-RHF iter SAD:   -98.82535134584714   -9.88254e+01   0.00000e+00 
   @DF-RHF iter   1:   -99.33788755648078   -5.12536e-01   3.95753e-03 ADIIS/DIIS
   @DF-RHF iter   2:   -99.37432410884176   -3.64366e-02   3.84032e-03 ADIIS/DIIS
   @DF-RHF iter   3:   -99.45079740843063   -7.64733e-02   1.21881e-04 ADIIS/DIIS
   @DF-RHF iter   4:   -99.45086060596176   -6.31975e-05   4.55628e-05 DIIS
   @DF-RHF iter   5:   -99.45087077088900   -1.01649e-05   3.54389e-06 DIIS
   @DF-RHF iter   6:   -99.45087090916134   -1.38272e-07   2.74911e-07 DIIS
   @DF-RHF iter   7:   -99.45087091028910   -1.12776e-09   4.15055e-08 DIIS
   @DF-RHF iter   8:   -99.45087091035441   -6.53131e-11   1.12950e-08 DIIS
   @DF-RHF iter   9:   -99.45087091035917   -4.76064e-12   1.27761e-09 DIIS
  Energy and wave function converged.


  ==> Post-Iterations <==

    Orbital Energies [Eh]
    ---------------------

    Doubly Occupied:                                                      

       1A    -25.833731     2A     -1.076010     3A     -0.180995  
       4A     -0.180942     5A     -0.180938  

    Virtual:                                                              

       6A      0.137204     7A      0.188037     8A      0.270936  
       9A      0.279273    10A      0.291254    11A      0.355787  
      12A      0.394194    13A      0.425879    14A      0.433222  
      15A      0.457000    16A      0.472405    17A      0.482028  
      18A      0.496360    19A      0.501485    20A      0.528546  
      21A      0.618950    22A      0.629080    23A      0.698373  
      24A      0.774669    25A      0.842164    26A      0.938054  
      27A      0.971631    28A      0.982206    29A      0.995789  
      30A      1.016743    31A      1.054064    32A      1.091979  
      33A      1.094941    34A      1.126315    35A      1.160486  
      36A      1.186114    37A      1.219114    38A      1.244893  
      39A      1.256065    40A      1.263559    41A      1.282642  
      42A      1.390871    43A      1.413195    44A      1.426964  
      45A      1.468963    46A      1.471764    47A      1.498338  
      48A      1.567947    49A      1.626418    50A      1.682730  
      51A      1.765954    52A      1.870375    53A      1.890291  
      54A      1.928738    55A      1.967374    56A      2.036070  
      57A      2.062612    58A      2.236335    59A      2.428083  
      60A      2.600266    61A      2.693908    62A      2.716938  
      63A      2.747337    64A      2.760505    65A      2.778744  
      66A      2.795167    67A      2.897847    68A      3.081591  
      69A      3.259917    70A      3.284311    71A      3.298510  
      72A      3.303450    73A      3.313269    74A      3.321870  
      75A      3.335671    76A      3.343638    77A      3.386751  
      78A      3.425901    79A      3.434364    80A      3.442381  
      81A      3.468859    82A      3.561249    83A      3.599850  
      84A      3.649598    85A      3.778844    86A      3.887588  
      87A      4.028152    88A      4.562426    89A      4.629381  
      90A      4.663936    91A      4.765245    92A      4.825417  
      93A      4.932502    94A      5.054351    95A      5.131888  
      96A      5.203111    97A      5.497822    98A      5.551963  
      99A      5.649871   100A      5.708750   101A      5.759814  
     102A      5.867471   103A      5.972044   104A      6.167901  
     105A      6.358548   106A      6.448960   107A      6.586978  
     108A      7.156046   109A      7.875470   110A      7.992057  
     111A      8.159189   112A      8.225871   113A      8.433257  
     114A      8.761169   115A      8.875733   116A      9.277822  
     117A      9.280879   118A      9.319205   119A      9.320877  
     120A      9.356501   121A      9.470780   122A      9.542951  
     123A      9.777976   124A      9.780361   125A      9.813142  
     126A      9.850734   127A      9.906831   128A      9.952243  
     129A     10.054395   130A     10.208913   131A     10.476191  
     132A     11.015618   133A     11.725492   134A     11.990901  
     135A     12.088722   136A     13.502566   137A     14.068081  
     138A     62.831898  

    Final Occupation by Irrep:
              A 
    DOCC [     5 ]
    NA   [     5 ]
    NB   [     5 ]

  @DF-RHF Final Energy:   -99.45087091035917

   => Energetics <=

    Nuclear Repulsion Energy =              0.0000000000000000
    One-Electron Energy =                -143.9965113638531591
    Two-Electron Energy =                  44.5456404534939878
    Total Energy =                        -99.4508709103591713

Computation Completed


Properties will be evaluated at   0.000000,   0.000000,   0.000000 [a0]

Properties computed using the SCF density matrix


 Multipole Moments:

 ------------------------------------------------------------------------------------
     Multipole            Electronic (a.u.)      Nuclear  (a.u.)        Total (a.u.)
 ------------------------------------------------------------------------------------

 L = 1.  Multiply by 2.5417464519 to convert [e a0] to [Debye]
 Dipole X            :        -45.8524314           41.2668962           -4.5855353
 Dipole Y            :         -0.0000482            0.0000000           -0.0000482
 Dipole Z            :          0.0000222            0.0000000            0.0000222
 Magnitude           :                                                    4.5855353

 ------------------------------------------------------------------------------------

*** tstop() called on moses-razer at Wed Jan  3 15:01:33 2024
Module time:
	user time   =       2.55 seconds =       0.04 minutes
	system time =       0.05 seconds =       0.00 minutes
	total time  =          1 seconds =       0.02 minutes
Total time:
	user time   =       2.55 seconds =       0.04 minutes
	system time =       0.05 seconds =       0.00 minutes
	total time  =          1 seconds =       0.02 minutes

*** tstart() called on moses-razer
*** at Wed Jan  3 15:01:33 2024


  //>>>>>>>>>>>>>>>>>>>>>>>>>>>>>>>>>>>//
  //               DFMP2               //
  //<<<<<<<<<<<<<<<<<<<<<<<<<<<<<<<<<<<//

   => Loading Basis Set <=

    Name: (AUG-CC-PVTZ AUX)
    Role: RIFIT
    Keyword: DF_BASIS_MP2
    atoms 1   entry O          line   264 file /home/kchung25/anaconda3/envs/p415env/share/psi4/basis/aug-cc-pvtz-ri.gbs 
    atoms 2-3 entry H          line    30 file /home/kchung25/anaconda3/envs/p415env/share/psi4/basis/aug-cc-pvtz-ri.gbs 
    atoms 4   entry F          line   322 file /home/kchung25/anaconda3/envs/p415env/share/psi4/basis/aug-cc-pvtz-ri.gbs 

	 --------------------------------------------------------
	                          DF-MP2                         
	      2nd-Order Density-Fitted Moller-Plesset Theory     
	              RMP2 Wavefunction,   6 Threads             
	                                                         
	        Rob Parrish, Justin Turney, Andy Simmonett,      
	           Ed Hohenstein, and C. David Sherrill          
	 --------------------------------------------------------

   => Auxiliary Basis Set <=

  Basis Set: (AUG-CC-PVTZ AUX)
    Blend: AUG-CC-PVTZ-RI
    Number of shells: 84
    Number of basis functions: 304
    Number of Cartesian functions: 382
    Spherical Harmonics?: true
    Max angular momentum: 4

	 --------------------------------------------------------
	                 NBF =   138, NAUX =   304
	 --------------------------------------------------------
	   CLASS    FOCC     OCC    AOCC    AVIR     VIR    FVIR
	   PAIRS       0       5       5     133     133       0
	 --------------------------------------------------------

	-----------------------------------------------------------
	 ==================> DF-MP2 Energies <==================== 
	-----------------------------------------------------------
	 Reference Energy          =     -99.4508709103591713 [Eh]
	 Singles Energy            =      -0.0000000000000000 [Eh]
	 Same-Spin Energy          =      -0.0816629872415892 [Eh]
	 Opposite-Spin Energy      =      -0.2269548203150787 [Eh]
	 Correlation Energy        =      -0.3086178075566678 [Eh]
	 Total Energy              =     -99.7594887179158434 [Eh]
	-----------------------------------------------------------
	 ================> DF-SCS-MP2 Energies <================== 
	-----------------------------------------------------------
	 SCS Same-Spin Scale       =       0.3333333333333333 [-]
	 SCS Opposite-Spin Scale   =       1.2000000000000000 [-]
	 SCS Same-Spin Energy      =      -0.0272209957471964 [Eh]
	 SCS Opposite-Spin Energy  =      -0.2723457843780944 [Eh]
	 SCS Correlation Energy    =      -0.2995667801252908 [Eh]
	 SCS Total Energy          =     -99.7504376904844605 [Eh]
	-----------------------------------------------------------


*** tstop() called on moses-razer at Wed Jan  3 15:01:33 2024
Module time:
	user time   =       0.75 seconds =       0.01 minutes
	system time =       0.01 seconds =       0.00 minutes
	total time  =          0 seconds =       0.00 minutes
Total time:
	user time   =       3.30 seconds =       0.06 minutes
	system time =       0.06 seconds =       0.00 minutes
	total time  =          1 seconds =       0.02 minutes

    Psi4 stopped on: Wednesday, 03 January 2024 03:01PM
    Psi4 wall time for execution: 0:00:00.62


    -----------------------------------------------------------------------
          Psi4: An Open-Source Ab Initio Electronic Structure Package
                               Psi4 1.9 release

                         Git: Rev {} zzzzzzz 


    D. G. A. Smith, L. A. Burns, A. C. Simmonett, R. M. Parrish,
    M. C. Schieber, R. Galvelis, P. Kraus, H. Kruse, R. Di Remigio,
    A. Alenaizan, A. M. James, S. Lehtola, J. P. Misiewicz, M. Scheurer,
    R. A. Shaw, J. B. Schriber, Y. Xie, Z. L. Glick, D. A. Sirianni,
    J. S. O'Brien, J. M. Waldrop, A. Kumar, E. G. Hohenstein,
    B. P. Pritchard, B. R. Brooks, H. F. Schaefer III, A. Yu. Sokolov,
    K. Patkowski, A. E. DePrince III, U. Bozkaya, R. A. King,
    F. A. Evangelista, J. M. Turney, T. D. Crawford, C. D. Sherrill,
    J. Chem. Phys. 152(18) 184108 (2020). https://doi.org/10.1063/5.0006002

                            Additional Code Authors
    E. T. Seidl, C. L. Janssen, E. F. Valeev, M. L. Leininger,
    J. F. Gonthier, R. M. Richard, H. R. McAlexander, M. Saitow, X. Wang,
    P. Verma, M. H. Lechner, A. Jiang, S. Behnle, A. G. Heide,
    M. F. Herbst, and D. L. Poole

             Previous Authors, Complete List of Code Contributors,
                       and Citations for Specific Modules
    https://github.com/psi4/psi4/blob/master/codemeta.json
    https://github.com/psi4/psi4/graphs/contributors
    http://psicode.org/psi4manual/master/introduction.html#citing-psifour

    -----------------------------------------------------------------------


    Psi4 started on: Wednesday, 03 January 2024 03:01PM

    Process ID: 406181
    Host:       moses-razer
    PSIDATADIR: /home/kchung25/anaconda3/envs/psi4_19/share/psi4
    Memory:     55.9 GiB
    Threads:    6
    
  ==> Input QCSchema <==

--------------------------------------------------------------------------
{'driver': 'energy',
 'extras': {'psiapi': True, 'wfn_qcvars_only': True},
 'id': None,
 'keywords': {'SCF_TYPE': 'DF', 'function_kwargs': {}},
 'model': {'basis': 'aug-cc-pvtz', 'method': 'mp2'},
 'molecule': {'atom_labels': ['', '', '', ''],
              'atomic_numbers': [8, 1, 1, 9],
              'extras': {},
              'fix_com': True,
              'fix_orientation': True,
              'fix_symmetry': 'c1',
              'fragment_charges': [0.0, 0.0],
              'fragment_multiplicities': [1, 1],
              'fragments': [[0, 1, 2], [3]],
              'geometry': [0.0, 0.0, 0.0, -1.6378501993739305, 0.631884732104463, 0.4388605467456987,
                           1.0255014559544506, 1.7000939984942605, -0.27478318617669734, 4.585210683823494, 0.0, 0.0],
              'mass_numbers': [16, 1, 1, 19],
              'masses': [15.99491461957, 1.00782503223, 1.00782503223, 18.99840316273],
              'molecular_charge': 0.0,
              'molecular_multiplicity': 1,
              'name': 'dimer',
              'provenance': {'creator': 'QCElemental',
                             'routine': 'qcelemental.molparse.from_string',
                             'version': '0.27.1'},
              'real': [True, True, True, False],
              'schema_name': 'qcschema_molecule',
              'schema_version': 2,
              'symbols': ['O', 'H', 'H', 'F'],
              'validated': True},
 'protocols': {'stdout': True},
 'provenance': {'creator': 'QCElemental', 'routine': 'qcelemental.models.results', 'version': '0.27.1'},
 'schema_name': 'qcschema_input',
 'schema_version': 1}
--------------------------------------------------------------------------

Scratch directory: /scratch/
   => Libint2 <=

    Primary   basis highest AM E, G, H:  5, 4, 3
    Auxiliary basis highest AM E, G, H:  6, 5, 4
    Onebody   basis highest AM E, G, H:  6, 5, 4
    Solid Harmonics ordering:            gaussian

*** tstart() called on moses-razer
*** at Wed Jan  3 15:01:33 2024

   => Loading Basis Set <=

    Name: AUG-CC-PVTZ
    Role: ORBITAL
    Keyword: BASIS
    atoms 1   entry O          line   331 file /home/kchung25/anaconda3/envs/p415env/share/psi4/basis/aug-cc-pvtz.gbs 
    atoms 2-3 entry H          line    40 file /home/kchung25/anaconda3/envs/p415env/share/psi4/basis/aug-cc-pvtz.gbs 
    atoms 4   entry F          line   377 file /home/kchung25/anaconda3/envs/p415env/share/psi4/basis/aug-cc-pvtz.gbs 


         ---------------------------------------------------------
                                   SCF
               by Justin Turney, Rob Parrish, Andy Simmonett
                          and Daniel G. A. Smith
                              RHF Reference
                        6 Threads,  57220 MiB Core
         ---------------------------------------------------------

  ==> Geometry <==

    Molecular point group: c1
    Full point group: C1

    Geometry (in Bohr), charge = 0, multiplicity = 1:

       Center              X                  Y                   Z               Mass       
    ------------   -----------------  -----------------  -----------------  -----------------
         O            0.000000000000     0.000000000000     0.000000000000    15.994914619570
         H           -1.637850199374     0.631884732104     0.438860546746     1.007825032230
         H            1.025501455954     1.700093998494    -0.274783186177     1.007825032230
      Gh(F)           4.585210683823     0.000000000000     0.000000000000    18.998403162730

  Running in c1 symmetry.

  Rotational constants: A =     16.80738  B =      0.14921  C =      0.14809 [cm^-1]
  Rotational constants: A = 503872.63657  B =   4473.28692  C =   4439.50627 [MHz]
  Nuclear repulsion =    8.750487088367009

  Charge       = 0
  Multiplicity = 1
  Electrons    = 10
  Nalpha       = 5
  Nbeta        = 5

  ==> Algorithm <==

  SCF Algorithm Type is DF.
  DIIS enabled.
  MOM disabled.
  Fractional occupation disabled.
  Guess Type is SAD.
  Energy threshold   = 1.00e-08
  Density threshold  = 1.00e-08
  Integral threshold = 1.00e-12

  ==> Primary Basis <==

  Basis Set: AUG-CC-PVTZ
    Blend: AUG-CC-PVTZ
    Number of shells: 46
    Number of basis functions: 138
    Number of Cartesian functions: 160
    Spherical Harmonics?: true
    Max angular momentum: 3

   => Loading Basis Set <=

    Name: (AUG-CC-PVTZ AUX)
    Role: JKFIT
    Keyword: DF_BASIS_SCF
    atoms 1   entry O          line   286 file /home/kchung25/anaconda3/envs/p415env/share/psi4/basis/aug-cc-pvtz-jkfit.gbs 
    atoms 2-3 entry H          line    70 file /home/kchung25/anaconda3/envs/p415env/share/psi4/basis/aug-cc-pvtz-jkfit.gbs 
    atoms 4   entry F          line   348 file /home/kchung25/anaconda3/envs/p415env/share/psi4/basis/aug-cc-pvtz-jkfit.gbs 

  ==> Integral Setup <==

  DFHelper Memory: AOs need 0.048 GiB; user supplied 41.910 GiB. 
  Using in-core AOs.

  ==> MemDFJK: Density-Fitted J/K Matrices <==

    J tasked:                   Yes
    K tasked:                   Yes
    wK tasked:                   No
    OpenMP threads:               6
    Memory [MiB]:             42915
    Algorithm:                 Core
    Schwarz Cutoff:           1E-12
    Mask sparsity (%):       0.6826
    Fitting Condition:        1E-10

   => Auxiliary Basis Set <=

  Basis Set: (AUG-CC-PVTZ AUX)
    Blend: AUG-CC-PVTZ-JKFIT
    Number of shells: 88
    Number of basis functions: 300
    Number of Cartesian functions: 372
    Spherical Harmonics?: true
    Max angular momentum: 4

  Minimum eigenvalue in the overlap matrix is 3.5159133909E-04.
  Reciprocal condition number of the overlap matrix is 4.8613491293E-05.
    Using symmetric orthogonalization.

  ==> Pre-Iterations <==

  SCF Guess: Superposition of Atomic Densities via on-the-fly atomic UHF (no occupation information).

   -------------------------
    Irrep   Nso     Nmo    
   -------------------------
     A        138     138 
   -------------------------
    Total     138     138
   -------------------------

  ==> Iterations <==

                           Total Energy        Delta E     RMS |[F,P]|

   @DF-RHF iter SAD:   -75.41814194607095   -7.54181e+01   0.00000e+00 
   @DF-RHF iter   1:   -75.95993908337815   -5.41797e-01   3.39441e-03 ADIIS/DIIS
   @DF-RHF iter   2:   -76.01149635624087   -5.15573e-02   2.46305e-03 ADIIS/DIIS
   @DF-RHF iter   3:   -76.04806410970762   -3.65678e-02   1.69621e-04 ADIIS/DIIS
   @DF-RHF iter   4:   -76.04855475460562   -4.90645e-04   4.57388e-05 DIIS
   @DF-RHF iter   5:   -76.04859561014017   -4.08555e-05   1.12457e-05 DIIS
   @DF-RHF iter   6:   -76.04859938814923   -3.77801e-06   2.44511e-06 DIIS
   @DF-RHF iter   7:   -76.04859957508269   -1.86933e-07   4.06427e-07 DIIS
   @DF-RHF iter   8:   -76.04859957942823   -4.34554e-09   7.62304e-08 DIIS
   @DF-RHF iter   9:   -76.04859957956160   -1.33369e-10   2.16695e-08 DIIS
   @DF-RHF iter  10:   -76.04859957957260   -1.09992e-11   4.12906e-09 DIIS
  Energy and wave function converged.


  ==> Post-Iterations <==

    Orbital Energies [Eh]
    ---------------------

    Doubly Occupied:                                                      

       1A    -20.576870     2A     -1.332654     3A     -0.686437  
       4A     -0.579412     5A     -0.507540  

    Virtual:                                                              

       6A      0.027978     7A      0.047147     8A      0.123995  
       9A      0.143438    10A      0.157847    11A      0.176753  
      12A      0.183469    13A      0.198638    14A      0.206641  
      15A      0.260978    16A      0.276592    17A      0.291913  
      18A      0.304289    19A      0.314942    20A      0.365870  
      21A      0.403717    22A      0.423825    23A      0.459559  
      24A      0.597223    25A      0.656294    26A      0.687009  
      27A      0.709210    28A      0.736501    29A      0.802463  
      30A      0.803419    31A      0.818918    32A      0.833911  
      33A      0.856739    34A      0.877341    35A      0.891079  
      36A      0.932687    37A      0.940594    38A      0.945682  
      39A      0.955384    40A      0.999578    41A      1.005497  
      42A      1.019512    43A      1.045846    44A      1.071598  
      45A      1.111413    46A      1.171794    47A      1.196353  
      48A      1.236298    49A      1.276462    50A      1.325807  
      51A      1.442983    52A      1.475386    53A      1.510691  
      54A      1.609425    55A      1.643291    56A      1.815113  
      57A      1.874619    58A      1.913336    59A      2.114389  
      60A      2.257769    61A      2.304931    62A      2.379384  
      63A      2.409016    64A      2.431009    65A      2.442502  
      66A      2.555958    67A      2.694730    68A      2.701280  
      69A      2.768089    70A      2.811384    71A      2.839785  
      72A      3.042127    73A      3.059050    74A      3.093602  
      75A      3.099919    76A      3.124770    77A      3.167406  
      78A      3.179306    79A      3.216595    80A      3.248730  
      81A      3.330144    82A      3.506914    83A      3.586436  
      84A      3.595700    85A      3.604722    86A      3.677231  
      87A      3.781900    88A      3.839323    89A      3.988843  
      90A      4.068098    91A      4.079413    92A      4.179320  
      93A      4.268292    94A      4.322730    95A      4.376892  
      96A      4.443182    97A      4.556565    98A      4.576100  
      99A      4.756642   100A      4.820010   101A      4.998818  
     102A      5.078206   103A      5.162029   104A      5.308830  
     105A      5.467826   106A      5.620599   107A      6.185978  
     108A      6.548987   109A      6.721036   110A      6.870694  
     111A      7.022061   112A      7.194515   113A      7.229987  
     114A      7.307487   115A      7.360017   116A      7.377597  
     117A      7.574091   118A      7.831008   119A      7.897713  
     120A      8.562512   121A      9.744077   122A     10.161682  
     123A     10.164134   124A     10.204958   125A     10.206954  
     126A     10.249061   127A     10.381222   128A     10.464284  
     129A     12.967246   130A     12.967740   131A     13.019200  
     132A     13.058683   133A     13.088347   134A     14.251203  
     135A     14.296418   136A     14.674248   137A     14.690125  
     138A     68.080771  

    Final Occupation by Irrep:
              A 
    DOCC [     5 ]
    NA   [     5 ]
    NB   [     5 ]

  @DF-RHF Final Energy:   -76.04859957957260

   => Energetics <=

    Nuclear Repulsion Energy =              8.7504870883670094
    One-Electron Energy =                -122.2323479759617015
    Two-Electron Energy =                  37.4332613080220966
    Total Energy =                        -76.0485995795725955

Computation Completed


Properties will be evaluated at   0.000000,   0.000000,   0.000000 [a0]

Properties computed using the SCF density matrix


 Multipole Moments:

 ------------------------------------------------------------------------------------
     Multipole            Electronic (a.u.)      Nuclear  (a.u.)        Total (a.u.)
 ------------------------------------------------------------------------------------

 L = 1.  Multiply by 2.5417464519 to convert [e a0] to [Debye]
 Dipole X            :          0.3876068           -0.6123487           -0.2247419
 Dipole Y            :         -1.5495287            2.3319787            0.7824500
 Dipole Z            :         -0.1037565            0.1640774            0.0603209
 Magnitude           :                                                    0.8163183

 ------------------------------------------------------------------------------------

*** tstop() called on moses-razer at Wed Jan  3 15:01:33 2024
Module time:
	user time   =       2.32 seconds =       0.04 minutes
	system time =       0.06 seconds =       0.00 minutes
	total time  =          0 seconds =       0.00 minutes
Total time:
	user time   =       5.85 seconds =       0.10 minutes
	system time =       0.12 seconds =       0.00 minutes
	total time  =          1 seconds =       0.02 minutes

*** tstart() called on moses-razer
*** at Wed Jan  3 15:01:33 2024


  //>>>>>>>>>>>>>>>>>>>>>>>>>>>>>>>>>>>//
  //               DFMP2               //
  //<<<<<<<<<<<<<<<<<<<<<<<<<<<<<<<<<<<//

   => Loading Basis Set <=

    Name: (AUG-CC-PVTZ AUX)
    Role: RIFIT
    Keyword: DF_BASIS_MP2
    atoms 1   entry O          line   264 file /home/kchung25/anaconda3/envs/p415env/share/psi4/basis/aug-cc-pvtz-ri.gbs 
    atoms 2-3 entry H          line    30 file /home/kchung25/anaconda3/envs/p415env/share/psi4/basis/aug-cc-pvtz-ri.gbs 
    atoms 4   entry F          line   322 file /home/kchung25/anaconda3/envs/p415env/share/psi4/basis/aug-cc-pvtz-ri.gbs 

	 --------------------------------------------------------
	                          DF-MP2                         
	      2nd-Order Density-Fitted Moller-Plesset Theory     
	              RMP2 Wavefunction,   6 Threads             
	                                                         
	        Rob Parrish, Justin Turney, Andy Simmonett,      
	           Ed Hohenstein, and C. David Sherrill          
	 --------------------------------------------------------

   => Auxiliary Basis Set <=

  Basis Set: (AUG-CC-PVTZ AUX)
    Blend: AUG-CC-PVTZ-RI
    Number of shells: 84
    Number of basis functions: 304
    Number of Cartesian functions: 382
    Spherical Harmonics?: true
    Max angular momentum: 4

	 --------------------------------------------------------
	                 NBF =   138, NAUX =   304
	 --------------------------------------------------------
	   CLASS    FOCC     OCC    AOCC    AVIR     VIR    FVIR
	   PAIRS       0       5       5     133     133       0
	 --------------------------------------------------------

	-----------------------------------------------------------
	 ==================> DF-MP2 Energies <==================== 
	-----------------------------------------------------------
	 Reference Energy          =     -76.0485995795725955 [Eh]
	 Singles Energy            =      -0.0000000000000000 [Eh]
	 Same-Spin Energy          =      -0.0692833914595072 [Eh]
	 Opposite-Spin Energy      =      -0.2183955718487229 [Eh]
	 Correlation Energy        =      -0.2876789633082301 [Eh]
	 Total Energy              =     -76.3362785428808195 [Eh]
	-----------------------------------------------------------
	 ================> DF-SCS-MP2 Energies <================== 
	-----------------------------------------------------------
	 SCS Same-Spin Scale       =       0.3333333333333333 [-]
	 SCS Opposite-Spin Scale   =       1.2000000000000000 [-]
	 SCS Same-Spin Energy      =      -0.0230944638198357 [Eh]
	 SCS Opposite-Spin Energy  =      -0.2620746862184675 [Eh]
	 SCS Correlation Energy    =      -0.2851691500383032 [Eh]
	 SCS Total Energy          =     -76.3337687296108953 [Eh]
	-----------------------------------------------------------


*** tstop() called on moses-razer at Wed Jan  3 15:01:34 2024
Module time:
	user time   =       0.78 seconds =       0.01 minutes
	system time =       0.02 seconds =       0.00 minutes
	total time  =          1 seconds =       0.02 minutes
Total time:
	user time   =       6.63 seconds =       0.11 minutes
	system time =       0.14 seconds =       0.00 minutes
	total time  =          2 seconds =       0.03 minutes

    Psi4 stopped on: Wednesday, 03 January 2024 03:01PM
    Psi4 wall time for execution: 0:00:00.56


    -----------------------------------------------------------------------
          Psi4: An Open-Source Ab Initio Electronic Structure Package
                               Psi4 1.9 release

                         Git: Rev {} zzzzzzz 


    D. G. A. Smith, L. A. Burns, A. C. Simmonett, R. M. Parrish,
    M. C. Schieber, R. Galvelis, P. Kraus, H. Kruse, R. Di Remigio,
    A. Alenaizan, A. M. James, S. Lehtola, J. P. Misiewicz, M. Scheurer,
    R. A. Shaw, J. B. Schriber, Y. Xie, Z. L. Glick, D. A. Sirianni,
    J. S. O'Brien, J. M. Waldrop, A. Kumar, E. G. Hohenstein,
    B. P. Pritchard, B. R. Brooks, H. F. Schaefer III, A. Yu. Sokolov,
    K. Patkowski, A. E. DePrince III, U. Bozkaya, R. A. King,
    F. A. Evangelista, J. M. Turney, T. D. Crawford, C. D. Sherrill,
    J. Chem. Phys. 152(18) 184108 (2020). https://doi.org/10.1063/5.0006002

                            Additional Code Authors
    E. T. Seidl, C. L. Janssen, E. F. Valeev, M. L. Leininger,
    J. F. Gonthier, R. M. Richard, H. R. McAlexander, M. Saitow, X. Wang,
    P. Verma, M. H. Lechner, A. Jiang, S. Behnle, A. G. Heide,
    M. F. Herbst, and D. L. Poole

             Previous Authors, Complete List of Code Contributors,
                       and Citations for Specific Modules
    https://github.com/psi4/psi4/blob/master/codemeta.json
    https://github.com/psi4/psi4/graphs/contributors
    http://psicode.org/psi4manual/master/introduction.html#citing-psifour

    -----------------------------------------------------------------------


    Psi4 started on: Wednesday, 03 January 2024 03:01PM

    Process ID: 406181
    Host:       moses-razer
    PSIDATADIR: /home/kchung25/anaconda3/envs/psi4_19/share/psi4
    Memory:     55.9 GiB
    Threads:    6
    
  ==> Input QCSchema <==

--------------------------------------------------------------------------
{'driver': 'energy',
 'extras': {'psiapi': True, 'wfn_qcvars_only': True},
 'id': None,
 'keywords': {'SCF_TYPE': 'DF', 'function_kwargs': {}},
 'model': {'basis': 'aug-cc-pvtz', 'method': 'mp2'},
 'molecule': {'atom_labels': ['', '', '', ''],
              'atomic_numbers': [8, 1, 1, 9],
              'extras': {},
              'fix_com': True,
              'fix_orientation': True,
              'fix_symmetry': 'c1',
              'fragment_charges': [0.0, -1.0],
              'fragment_multiplicities': [1, 1],
              'fragments': [[0, 1, 2], [3]],
              'geometry': [0.0, 0.0, 0.0, -1.6378501993739305, 0.631884732104463, 0.4388605467456987,
                           1.0255014559544506, 1.7000939984942605, -0.27478318617669734, 4.585210683823494, 0.0, 0.0],
              'mass_numbers': [16, 1, 1, 19],
              'masses': [15.99491461957, 1.00782503223, 1.00782503223, 18.99840316273],
              'molecular_charge': -1.0,
              'molecular_multiplicity': 1,
              'name': 'dimer',
              'provenance': {'creator': 'QCElemental',
                             'routine': 'qcelemental.molparse.from_string',
                             'version': '0.27.1'},
              'real': [True, True, True, True],
              'schema_name': 'qcschema_molecule',
              'schema_version': 2,
              'symbols': ['O', 'H', 'H', 'F'],
              'validated': True},
 'protocols': {'stdout': True},
 'provenance': {'creator': 'QCElemental', 'routine': 'qcelemental.models.results', 'version': '0.27.1'},
 'schema_name': 'qcschema_input',
 'schema_version': 1}
--------------------------------------------------------------------------

Scratch directory: /scratch/
   => Libint2 <=

    Primary   basis highest AM E, G, H:  5, 4, 3
    Auxiliary basis highest AM E, G, H:  6, 5, 4
    Onebody   basis highest AM E, G, H:  6, 5, 4
    Solid Harmonics ordering:            gaussian

*** tstart() called on moses-razer
*** at Wed Jan  3 15:01:34 2024

   => Loading Basis Set <=

    Name: AUG-CC-PVTZ
    Role: ORBITAL
    Keyword: BASIS
    atoms 1   entry O          line   331 file /home/kchung25/anaconda3/envs/p415env/share/psi4/basis/aug-cc-pvtz.gbs 
    atoms 2-3 entry H          line    40 file /home/kchung25/anaconda3/envs/p415env/share/psi4/basis/aug-cc-pvtz.gbs 
    atoms 4   entry F          line   377 file /home/kchung25/anaconda3/envs/p415env/share/psi4/basis/aug-cc-pvtz.gbs 


         ---------------------------------------------------------
                                   SCF
               by Justin Turney, Rob Parrish, Andy Simmonett
                          and Daniel G. A. Smith
                              RHF Reference
                        6 Threads,  57220 MiB Core
         ---------------------------------------------------------

  ==> Geometry <==

    Molecular point group: c1
    Full point group: C1

    Geometry (in Bohr), charge = -1, multiplicity = 1:

       Center              X                  Y                   Z               Mass       
    ------------   -----------------  -----------------  -----------------  -----------------
         O            0.000000000000     0.000000000000     0.000000000000    15.994914619570
         H           -1.637850199374     0.631884732104     0.438860546746     1.007825032230
         H            1.025501455954     1.700093998494    -0.274783186177     1.007825032230
         F            4.585210683823     0.000000000000     0.000000000000    18.998403162730

  Running in c1 symmetry.

  Rotational constants: A =     16.80738  B =      0.14921  C =      0.14809 [cm^-1]
  Rotational constants: A = 503872.63657  B =   4473.28692  C =   4439.50627 [MHz]
  Nuclear repulsion =   28.164393356663282

  Charge       = -1
  Multiplicity = 1
  Electrons    = 20
  Nalpha       = 10
  Nbeta        = 10

  ==> Algorithm <==

  SCF Algorithm Type is DF.
  DIIS enabled.
  MOM disabled.
  Fractional occupation disabled.
  Guess Type is SAD.
  Energy threshold   = 1.00e-08
  Density threshold  = 1.00e-08
  Integral threshold = 1.00e-12

  ==> Primary Basis <==

  Basis Set: AUG-CC-PVTZ
    Blend: AUG-CC-PVTZ
    Number of shells: 46
    Number of basis functions: 138
    Number of Cartesian functions: 160
    Spherical Harmonics?: true
    Max angular momentum: 3

   => Loading Basis Set <=

    Name: (AUG-CC-PVTZ AUX)
    Role: JKFIT
    Keyword: DF_BASIS_SCF
    atoms 1   entry O          line   286 file /home/kchung25/anaconda3/envs/p415env/share/psi4/basis/aug-cc-pvtz-jkfit.gbs 
    atoms 2-3 entry H          line    70 file /home/kchung25/anaconda3/envs/p415env/share/psi4/basis/aug-cc-pvtz-jkfit.gbs 
    atoms 4   entry F          line   348 file /home/kchung25/anaconda3/envs/p415env/share/psi4/basis/aug-cc-pvtz-jkfit.gbs 

  ==> Integral Setup <==

  DFHelper Memory: AOs need 0.048 GiB; user supplied 41.910 GiB. 
  Using in-core AOs.

  ==> MemDFJK: Density-Fitted J/K Matrices <==

    J tasked:                   Yes
    K tasked:                   Yes
    wK tasked:                   No
    OpenMP threads:               6
    Memory [MiB]:             42915
    Algorithm:                 Core
    Schwarz Cutoff:           1E-12
    Mask sparsity (%):       0.6826
    Fitting Condition:        1E-10

   => Auxiliary Basis Set <=

  Basis Set: (AUG-CC-PVTZ AUX)
    Blend: AUG-CC-PVTZ-JKFIT
    Number of shells: 88
    Number of basis functions: 300
    Number of Cartesian functions: 372
    Spherical Harmonics?: true
    Max angular momentum: 4

  Minimum eigenvalue in the overlap matrix is 3.5159133909E-04.
  Reciprocal condition number of the overlap matrix is 4.8613491293E-05.
    Using symmetric orthogonalization.

  ==> Pre-Iterations <==

  SCF Guess: Superposition of Atomic Densities via on-the-fly atomic UHF (no occupation information).

   -------------------------
    Irrep   Nso     Nmo    
   -------------------------
     A        138     138 
   -------------------------
    Total     138     138
   -------------------------

  ==> Iterations <==

                           Total Energy        Delta E     RMS |[F,P]|

   @DF-RHF iter SAD:  -174.29038203996001   -1.74290e+02   0.00000e+00 
   @DF-RHF iter   1:  -175.28459261529517   -9.94211e-01   5.24828e-03 ADIIS/DIIS
   @DF-RHF iter   2:  -175.37663218529684   -9.20396e-02   4.54986e-03 ADIIS/DIIS
   @DF-RHF iter   3:  -175.49148613029899   -1.14854e-01   2.64274e-04 ADIIS/DIIS
   @DF-RHF iter   4:  -175.49212971087314   -6.43581e-04   1.52558e-04 ADIIS/DIIS
   @DF-RHF iter   5:  -175.49230795620548   -1.78245e-04   3.29565e-05 DIIS
   @DF-RHF iter   6:  -175.49232523039211   -1.72742e-05   8.26121e-06 DIIS
   @DF-RHF iter   7:  -175.49232705083551   -1.82044e-06   2.13473e-06 DIIS
   @DF-RHF iter   8:  -175.49232720304772   -1.52212e-07   4.90938e-07 DIIS
   @DF-RHF iter   9:  -175.49232720869222   -5.64449e-09   9.17190e-08 DIIS
   @DF-RHF iter  10:  -175.49232720893292   -2.40703e-10   2.42598e-08 DIIS
   @DF-RHF iter  11:  -175.49232720895188   -1.89573e-11   6.19220e-09 DIIS
  Energy and wave function converged.


  ==> Post-Iterations <==

    Orbital Energies [Eh]
    ---------------------

    Doubly Occupied:                                                      

       1A    -25.835030     2A    -20.372868     3A     -1.130670  
       4A     -1.081840     5A     -0.479864     6A     -0.374914  
       7A     -0.304110     8A     -0.186245     9A     -0.185691  
      10A     -0.184519  

    Virtual:                                                              

      11A      0.138998    12A      0.182098    13A      0.278108  
      14A      0.308514    15A      0.318051    16A      0.361215  
      17A      0.385342    18A      0.415297    19A      0.422082  
      20A      0.453870    21A      0.462094    22A      0.477313  
      23A      0.488198    24A      0.507025    25A      0.590228  
      26A      0.594214    27A      0.633725    28A      0.698456  
      29A      0.803284    30A      0.870668    31A      0.897915  
      32A      0.918121    33A      0.926978    34A      1.020556  
      35A      1.058955    36A      1.076179    37A      1.096170  
      38A      1.121100    39A      1.124393    40A      1.136331  
      41A      1.176137    42A      1.211120    43A      1.219527  
      44A      1.245288    45A      1.247416    46A      1.275793  
      47A      1.362951    48A      1.391196    49A      1.409767  
      50A      1.435368    51A      1.452546    52A      1.460257  
      53A      1.515057    54A      1.612823    55A      1.684370  
      56A      1.710666    57A      1.757466    58A      1.856220  
      59A      1.932192    60A      2.024905    61A      2.091980  
      62A      2.125261    63A      2.317116    64A      2.412152  
      65A      2.486968    66A      2.536707    67A      2.594371  
      68A      2.608995    69A      2.635320    70A      2.668500  
      71A      2.789677    72A      2.906480    73A      2.909297  
      74A      2.988276    75A      3.027380    76A      3.061042  
      77A      3.291769    78A      3.296747    79A      3.314861  
      80A      3.330601    81A      3.332246    82A      3.356638  
      83A      3.385916    84A      3.425258    85A      3.458790  
      86A      3.519678    87A      3.562811    88A      3.765610  
      89A      3.841823    90A      4.083431    91A      4.244182  
      92A      4.273404    93A      4.362998    94A      4.465376  
      95A      4.513038    96A      4.584962    97A      4.626661  
      98A      4.744900    99A      4.756990   100A      4.934816  
     101A      5.006738   102A      5.201668   103A      5.268629  
     104A      5.366943   105A      5.476836   106A      5.650383  
     107A      5.720833   108A      5.766521   109A      5.817750  
     110A      6.130649   111A      6.391520   112A      6.753654  
     113A      6.925054   114A      7.074494   115A      7.229394  
     116A      7.401757   117A      7.436271   118A      7.510011  
     119A      7.562831   120A      7.581650   121A      7.780628  
     122A      8.035377   123A      8.102568   124A      8.759796  
     125A      9.272766   126A      9.275287   127A      9.314332  
     128A      9.315971   129A      9.355206   130A      9.473740  
     131A      9.531355   132A      9.776563   133A      9.777471  
     134A      9.838841   135A      9.894717   136A      9.951228  
     137A     12.019131   138A     14.867950  

    Final Occupation by Irrep:
              A 
    DOCC [    10 ]
    NA   [    10 ]
    NB   [    10 ]

  @DF-RHF Final Energy:  -175.49232720895188

   => Energetics <=

    Nuclear Repulsion Energy =             28.1643933566632825
    One-Electron Energy =                -307.0419422942401866
    Two-Electron Energy =                 103.3852217286249697
    Total Energy =                       -175.4923272089519060

Computation Completed


Properties will be evaluated at   0.000000,   0.000000,   0.000000 [a0]

Properties computed using the SCF density matrix


 Multipole Moments:

 ------------------------------------------------------------------------------------
     Multipole            Electronic (a.u.)      Nuclear  (a.u.)        Total (a.u.)
 ------------------------------------------------------------------------------------

 L = 1.  Multiply by 2.5417464519 to convert [e a0] to [Debye]
 Dipole X            :        -45.1100023           40.6545474           -4.4554549
 Dipole Y            :         -1.6316393            2.3319787            0.7003395
 Dipole Z            :         -0.1012144            0.1640774            0.0628629
 Magnitude           :                                                    4.5105993

 ------------------------------------------------------------------------------------

*** tstop() called on moses-razer at Wed Jan  3 15:01:34 2024
Module time:
	user time   =       2.87 seconds =       0.05 minutes
	system time =       0.05 seconds =       0.00 minutes
	total time  =          0 seconds =       0.00 minutes
Total time:
	user time   =       9.75 seconds =       0.16 minutes
	system time =       0.20 seconds =       0.00 minutes
	total time  =          2 seconds =       0.03 minutes

*** tstart() called on moses-razer
*** at Wed Jan  3 15:01:34 2024


  //>>>>>>>>>>>>>>>>>>>>>>>>>>>>>>>>>>>//
  //               DFMP2               //
  //<<<<<<<<<<<<<<<<<<<<<<<<<<<<<<<<<<<//

   => Loading Basis Set <=

    Name: (AUG-CC-PVTZ AUX)
    Role: RIFIT
    Keyword: DF_BASIS_MP2
    atoms 1   entry O          line   264 file /home/kchung25/anaconda3/envs/p415env/share/psi4/basis/aug-cc-pvtz-ri.gbs 
    atoms 2-3 entry H          line    30 file /home/kchung25/anaconda3/envs/p415env/share/psi4/basis/aug-cc-pvtz-ri.gbs 
    atoms 4   entry F          line   322 file /home/kchung25/anaconda3/envs/p415env/share/psi4/basis/aug-cc-pvtz-ri.gbs 

	 --------------------------------------------------------
	                          DF-MP2                         
	      2nd-Order Density-Fitted Moller-Plesset Theory     
	              RMP2 Wavefunction,   6 Threads             
	                                                         
	        Rob Parrish, Justin Turney, Andy Simmonett,      
	           Ed Hohenstein, and C. David Sherrill          
	 --------------------------------------------------------

   => Auxiliary Basis Set <=

  Basis Set: (AUG-CC-PVTZ AUX)
    Blend: AUG-CC-PVTZ-RI
    Number of shells: 84
    Number of basis functions: 304
    Number of Cartesian functions: 382
    Spherical Harmonics?: true
    Max angular momentum: 4

	 --------------------------------------------------------
	                 NBF =   138, NAUX =   304
	 --------------------------------------------------------
	   CLASS    FOCC     OCC    AOCC    AVIR     VIR    FVIR
	   PAIRS       0      10      10     128     128       0
	 --------------------------------------------------------

	-----------------------------------------------------------
	 ==================> DF-MP2 Energies <==================== 
	-----------------------------------------------------------
	 Reference Energy          =    -175.4923272089518775 [Eh]
	 Singles Energy            =      -0.0000000000000000 [Eh]
	 Same-Spin Energy          =      -0.1532160484483787 [Eh]
	 Opposite-Spin Energy      =      -0.4477434644684668 [Eh]
	 Correlation Energy        =      -0.6009595129168455 [Eh]
	 Total Energy              =    -176.0932867218687363 [Eh]
	-----------------------------------------------------------
	 ================> DF-SCS-MP2 Energies <================== 
	-----------------------------------------------------------
	 SCS Same-Spin Scale       =       0.3333333333333333 [-]
	 SCS Opposite-Spin Scale   =       1.2000000000000000 [-]
	 SCS Same-Spin Energy      =      -0.0510720161494596 [Eh]
	 SCS Opposite-Spin Energy  =      -0.5372921573621602 [Eh]
	 SCS Correlation Energy    =      -0.5883641735116197 [Eh]
	 SCS Total Energy          =    -176.0806913824634989 [Eh]
	-----------------------------------------------------------


*** tstop() called on moses-razer at Wed Jan  3 15:01:34 2024
Module time:
	user time   =       0.91 seconds =       0.02 minutes
	system time =       0.04 seconds =       0.00 minutes
	total time  =          0 seconds =       0.00 minutes
Total time:
	user time   =      10.66 seconds =       0.18 minutes
	system time =       0.24 seconds =       0.00 minutes
	total time  =          2 seconds =       0.03 minutes

    Psi4 stopped on: Wednesday, 03 January 2024 03:01PM
    Psi4 wall time for execution: 0:00:00.67


  //>>>>>>>>>>>>>>>>>>>>>>>>>>>>>>>>>>>//
  //          ManyBody Results         //
  //<<<<<<<<<<<<<<<<<<<<<<<<<<<<<<<<<<<//


   ==> N-Body: Counterpoise Corrected (CP) energies <==

        n-Body     Total Energy            Interaction Energy                          N-body Contribution to Interaction Energy
                   [Eh]                    [Eh]                  [kcal/mol]            [Eh]                  [kcal/mol]
             1  N/A                         0.000000000000        0.000000000000        0.000000000000        0.000000000000
  FULL/RTN   2  N/A                         0.002480538928        1.556561677348        0.002480538928        1.556561677348


    Psi4 stopped on: Wednesday, 03 January 2024 03:01PM
    Psi4 wall time for execution: 0:00:03.41

*** Psi4 exiting successfully. Buy a developer a beer!
