
    -----------------------------------------------------------------------
          Psi4: An Open-Source Ab Initio Electronic Structure Package
                               Psi4 1.9 release

                         Git: Rev {} zzzzzzz 


    D. G. A. Smith, L. A. Burns, A. C. Simmonett, R. M. Parrish,
    M. C. Schieber, R. Galvelis, P. Kraus, H. Kruse, R. Di Remigio,
    A. Alenaizan, A. M. James, S. Lehtola, J. P. Misiewicz, M. Scheurer,
    R. A. Shaw, J. B. Schriber, Y. Xie, Z. L. Glick, D. A. Sirianni,
    J. S. O'Brien, J. M. Waldrop, A. Kumar, E. G. Hohenstein,
    B. P. Pritchard, B. R. Brooks, H. F. Schaefer III, A. Yu. Sokolov,
    K. Patkowski, A. E. DePrince III, U. Bozkaya, R. A. King,
    F. A. Evangelista, J. M. Turney, T. D. Crawford, C. D. Sherrill,
    J. Chem. Phys. 152(18) 184108 (2020). https://doi.org/10.1063/5.0006002

                            Additional Code Authors
    E. T. Seidl, C. L. Janssen, E. F. Valeev, M. L. Leininger,
    J. F. Gonthier, R. M. Richard, H. R. McAlexander, M. Saitow, X. Wang,
    P. Verma, M. H. Lechner, A. Jiang, S. Behnle, A. G. Heide,
    M. F. Herbst, and D. L. Poole

             Previous Authors, Complete List of Code Contributors,
                       and Citations for Specific Modules
    https://github.com/psi4/psi4/blob/master/codemeta.json
    https://github.com/psi4/psi4/graphs/contributors
    http://psicode.org/psi4manual/master/introduction.html#citing-psifour

    -----------------------------------------------------------------------


    Psi4 started on: Wednesday, 03 January 2024 02:31PM

    Process ID: 402743
    Host:       moses-razer
    PSIDATADIR: /home/kchung25/anaconda3/envs/psi4_19/share/psi4
    Memory:     500.0 MiB
    Threads:    6
    
  ==> Input File <==

--------------------------------------------------------------------------
MEMORY 60 GB

molecule dimer {
0 1
O      0.000000     0.000000     0.000000
H     -0.628905     0.369011     0.628905
H     -0.088480    -0.954754     0.088480
--
1 1
Li     1.828878     0.000000     0.000000

units ang
no_reorient
no_com
symmetry c1
}

set {
basis        aug-cc-pVTZ
scf_type     df
}

energy("mp2", bsse_type="cp")
--------------------------------------------------------------------------

  Memory set to  55.879 GiB by Python driver.

Scratch directory: /scratch/

  //>>>>>>>>>>>>>>>>>>>>>>>>>>>>>>>>>>>>>//
  // ManyBody Setup: N-Body Levels [1, 2]//
  //<<<<<<<<<<<<<<<<<<<<<<<<<<<<<<<<<<<<<//

        Number of 1-body computations:     2
        Number of 2-body computations:     1

    -----------------------------------------------------------------------
          Psi4: An Open-Source Ab Initio Electronic Structure Package
                               Psi4 1.9 release

                         Git: Rev {} zzzzzzz 


    D. G. A. Smith, L. A. Burns, A. C. Simmonett, R. M. Parrish,
    M. C. Schieber, R. Galvelis, P. Kraus, H. Kruse, R. Di Remigio,
    A. Alenaizan, A. M. James, S. Lehtola, J. P. Misiewicz, M. Scheurer,
    R. A. Shaw, J. B. Schriber, Y. Xie, Z. L. Glick, D. A. Sirianni,
    J. S. O'Brien, J. M. Waldrop, A. Kumar, E. G. Hohenstein,
    B. P. Pritchard, B. R. Brooks, H. F. Schaefer III, A. Yu. Sokolov,
    K. Patkowski, A. E. DePrince III, U. Bozkaya, R. A. King,
    F. A. Evangelista, J. M. Turney, T. D. Crawford, C. D. Sherrill,
    J. Chem. Phys. 152(18) 184108 (2020). https://doi.org/10.1063/5.0006002

                            Additional Code Authors
    E. T. Seidl, C. L. Janssen, E. F. Valeev, M. L. Leininger,
    J. F. Gonthier, R. M. Richard, H. R. McAlexander, M. Saitow, X. Wang,
    P. Verma, M. H. Lechner, A. Jiang, S. Behnle, A. G. Heide,
    M. F. Herbst, and D. L. Poole

             Previous Authors, Complete List of Code Contributors,
                       and Citations for Specific Modules
    https://github.com/psi4/psi4/blob/master/codemeta.json
    https://github.com/psi4/psi4/graphs/contributors
    http://psicode.org/psi4manual/master/introduction.html#citing-psifour

    -----------------------------------------------------------------------


    Psi4 started on: Wednesday, 03 January 2024 02:31PM

    Process ID: 402743
    Host:       moses-razer
    PSIDATADIR: /home/kchung25/anaconda3/envs/psi4_19/share/psi4
    Memory:     55.9 GiB
    Threads:    6
    
  ==> Input QCSchema <==

--------------------------------------------------------------------------
{'driver': 'energy',
 'extras': {'psiapi': True, 'wfn_qcvars_only': True},
 'id': None,
 'keywords': {'SCF_TYPE': 'DF', 'function_kwargs': {}},
 'model': {'basis': 'aug-cc-pvtz', 'method': 'mp2'},
 'molecule': {'atom_labels': ['', '', '', ''],
              'atomic_numbers': [8, 1, 1, 3],
              'extras': {},
              'fix_com': True,
              'fix_orientation': True,
              'fix_symmetry': 'c1',
              'fragment_charges': [0.0, 1.0],
              'fragment_multiplicities': [1, 1],
              'fragments': [[0, 1, 2], [3]],
              'geometry': [0.0, 0.0, 0.0, -1.1884582089310556, 0.6973297272813186, 1.1884582089310556,
                           -0.16720296758050865, -1.8042235771853632, 0.16720296758050865, 3.456078536875062, 0.0,
                           0.0],
              'mass_numbers': [16, 1, 1, 7],
              'masses': [15.99491461957, 1.00782503223, 1.00782503223, 7.0160034366],
              'molecular_charge': 1.0,
              'molecular_multiplicity': 1,
              'name': 'dimer',
              'provenance': {'creator': 'QCElemental',
                             'routine': 'qcelemental.molparse.from_string',
                             'version': '0.27.1'},
              'real': [False, False, False, True],
              'schema_name': 'qcschema_molecule',
              'schema_version': 2,
              'symbols': ['O', 'H', 'H', 'Li'],
              'validated': True},
 'protocols': {'stdout': True},
 'provenance': {'creator': 'QCElemental', 'routine': 'qcelemental.models.results', 'version': '0.27.1'},
 'schema_name': 'qcschema_input',
 'schema_version': 1}
--------------------------------------------------------------------------

Scratch directory: /scratch/
   => Libint2 <=

    Primary   basis highest AM E, G, H:  5, 4, 3
    Auxiliary basis highest AM E, G, H:  6, 5, 4
    Onebody   basis highest AM E, G, H:  6, 5, 4
    Solid Harmonics ordering:            gaussian

*** tstart() called on moses-razer
*** at Wed Jan  3 14:31:22 2024

   => Loading Basis Set <=

    Name: AUG-CC-PVTZ
    Role: ORBITAL
    Keyword: BASIS
    atoms 1   entry O          line   331 file /home/kchung25/anaconda3/envs/p415env/share/psi4/basis/aug-cc-pvtz.gbs 
    atoms 2-3 entry H          line    40 file /home/kchung25/anaconda3/envs/p415env/share/psi4/basis/aug-cc-pvtz.gbs 
    atoms 4   entry LI         line    85 file /home/kchung25/anaconda3/envs/p415env/share/psi4/basis/aug-cc-pvtz.gbs 


         ---------------------------------------------------------
                                   SCF
               by Justin Turney, Rob Parrish, Andy Simmonett
                          and Daniel G. A. Smith
                              RHF Reference
                        6 Threads,  57220 MiB Core
         ---------------------------------------------------------

  ==> Geometry <==

    Molecular point group: c1
    Full point group: C1

    Geometry (in Bohr), charge = 1, multiplicity = 1:

       Center              X                  Y                   Z               Mass       
    ------------   -----------------  -----------------  -----------------  -----------------
      Gh(O)           0.000000000000     0.000000000000     0.000000000000    15.994914619570
      Gh(H)          -1.188458208931     0.697329727281     1.188458208931     1.007825032230
      Gh(H)          -0.167202967581    -1.804223577185     0.167202967581     1.007825032230
         LI           3.456078536875     0.000000000000     0.000000000000     7.016003436600

  Running in c1 symmetry.

  Rotational constants: A =     11.59089  B =      0.69516  C =      0.67518 [cm^-1]
  Rotational constants: A = 347485.99766  B =  20840.37495  C =  20241.33529 [MHz]
  Nuclear repulsion =    0.000000000000000

  Charge       = 1
  Multiplicity = 1
  Electrons    = 2
  Nalpha       = 1
  Nbeta        = 1

  ==> Algorithm <==

  SCF Algorithm Type is DF.
  DIIS enabled.
  MOM disabled.
  Fractional occupation disabled.
  Guess Type is SAD.
  Energy threshold   = 1.00e-08
  Density threshold  = 1.00e-08
  Integral threshold = 1.00e-12

  ==> Primary Basis <==

  Basis Set: AUG-CC-PVTZ
    Blend: AUG-CC-PVTZ
    Number of shells: 46
    Number of basis functions: 138
    Number of Cartesian functions: 160
    Spherical Harmonics?: true
    Max angular momentum: 3

   => Loading Basis Set <=

    Name: (AUG-CC-PVTZ AUX)
    Role: JKFIT
    Keyword: DF_BASIS_SCF
    atoms 1   entry O          line   286 file /home/kchung25/anaconda3/envs/p415env/share/psi4/basis/aug-cc-pvtz-jkfit.gbs 
    atoms 2-3 entry H          line    70 file /home/kchung25/anaconda3/envs/p415env/share/psi4/basis/aug-cc-pvtz-jkfit.gbs 
    atoms 4   entry LI         line    54 file /home/kchung25/anaconda3/envs/p415env/share/psi4/basis/def2-universal-jkfit.gbs 

  ==> Integral Setup <==

  DFHelper Memory: AOs need 0.040 GiB; user supplied 41.910 GiB. 
  Using in-core AOs.

  ==> MemDFJK: Density-Fitted J/K Matrices <==

    J tasked:                   Yes
    K tasked:                   Yes
    wK tasked:                   No
    OpenMP threads:               6
    Memory [MiB]:             42915
    Algorithm:                 Core
    Schwarz Cutoff:           1E-12
    Mask sparsity (%):       0.0000
    Fitting Condition:        1E-10

   => Auxiliary Basis Set <=

  Basis Set: (AUG-CC-PVTZ AUX)
    Blend: AUG-CC-PVTZ-JKFIT + DEF2-UNIVERSAL-JKFIT
    Number of shells: 75
    Number of basis functions: 247
    Number of Cartesian functions: 301
    Spherical Harmonics?: true
    Max angular momentum: 4

  Minimum eigenvalue in the overlap matrix is 1.4347719970E-04.
  Reciprocal condition number of the overlap matrix is 1.5422310313E-05.
    Using symmetric orthogonalization.

  ==> Pre-Iterations <==

  SCF Guess: Superposition of Atomic Densities via on-the-fly atomic UHF (no occupation information).

   -------------------------
    Irrep   Nso     Nmo    
   -------------------------
     A        138     138 
   -------------------------
    Total     138     138
   -------------------------

  ==> Iterations <==

                           Total Energy        Delta E     RMS |[F,P]|

   @DF-RHF iter SAD:    -7.31449274769653   -7.31449e+00   0.00000e+00 
   @DF-RHF iter   1:    -7.23638166776549    7.81111e-02   1.64464e-05 DIIS
   @DF-RHF iter   2:    -7.23638353496254   -1.86720e-06   1.87488e-06 DIIS
   @DF-RHF iter   3:    -7.23638356303552   -2.80730e-08   9.50004e-08 DIIS
   @DF-RHF iter   4:    -7.23638356309147   -5.59526e-11   7.87496e-10 DIIS
  Energy and wave function converged.


  ==> Post-Iterations <==

    Orbital Energies [Eh]
    ---------------------

    Doubly Occupied:                                                      

       1A     -2.792368  

    Virtual:                                                              

       2A     -0.196298     3A     -0.128598     4A     -0.128595  
       5A     -0.128595     6A     -0.073714     7A     -0.056372  
       8A     -0.056354     9A     -0.056347    10A     -0.047069  
      11A     -0.046666    12A     -0.032285    13A     -0.031385  
      14A     -0.031363    15A     -0.010856    16A     -0.006079  
      17A     -0.004556    18A     -0.003966    19A      0.014191  
      20A      0.022489    21A      0.054102    22A      0.057092  
      23A      0.061564    24A      0.114636    25A      0.118200  
      26A      0.126784    27A      0.126957    28A      0.127698  
      29A      0.134837    30A      0.135137    31A      0.151742  
      32A      0.166346    33A      0.175252    34A      0.178316  
      35A      0.192742    36A      0.196117    37A      0.209787  
      38A      0.222389    39A      0.231673    40A      0.236114  
      41A      0.244686    42A      0.270497    43A      0.273946  
      44A      0.295339    45A      0.315847    46A      0.351279  
      47A      0.406825    48A      0.515133    49A      0.521233  
      50A      0.531128    51A      0.534244    52A      0.536411  
      53A      0.547729    54A      0.556959    55A      0.562543  
      56A      0.565586    57A      0.569981    58A      0.586971  
      59A      0.601543    60A      0.666325    61A      0.701043  
      62A      0.708901    63A      0.736406    64A      0.764444  
      65A      0.781308    66A      0.802466    67A      0.858531  
      68A      0.902853    69A      0.921445    70A      0.935149  
      71A      0.955558    72A      0.981680    73A      1.023078  
      74A      1.029987    75A      1.059732    76A      1.118406  
      77A      1.147933    78A      1.185461    79A      1.316494  
      80A      1.414617    81A      1.573065    82A      1.600133  
      83A      1.666699    84A      1.684966    85A      1.734385  
      86A      1.862477    87A      2.151648    88A      2.210147  
      89A      2.296646    90A      2.320145    91A      2.330052  
      92A      2.380726    93A      2.473674    94A      2.587252  
      95A      2.617256    96A      2.949751    97A      2.958471  
      98A      3.059305    99A      3.083459   100A      3.099991  
     101A      3.321575   102A      3.446319   103A      3.591357  
     104A      4.177134   105A      4.292175   106A      4.367943  
     107A      4.446343   108A      4.518158   109A      4.525040  
     110A      4.748813   111A      4.815072   112A      4.821726  
     113A      5.033686   114A      5.304723   115A      5.378642  
     116A      5.476389   117A      5.638381   118A      5.986407  
     119A      6.172775   120A      6.415966   121A      6.817358  
     122A      7.430492   123A      7.565085   124A      7.825694  
     125A      7.914478   126A      8.030187   127A      8.493302  
     128A      8.554168   129A      9.502024   130A      9.661885  
     131A      9.746766   132A      9.942585   133A     10.949317  
     134A     11.484895   135A     11.902310   136A     13.272761  
     137A     13.593102   138A     64.688059  

    Final Occupation by Irrep:
              A 
    DOCC [     1 ]
    NA   [     1 ]
    NB   [     1 ]

  @DF-RHF Final Energy:    -7.23638356309147

   => Energetics <=

    Nuclear Repulsion Energy =              0.0000000000000000
    One-Electron Energy =                  -8.8880312317916772
    Two-Electron Energy =                   1.6516476687002037
    Total Energy =                         -7.2363835630914739

Computation Completed


Properties will be evaluated at   0.000000,   0.000000,   0.000000 [a0]

Properties computed using the SCF density matrix


 Multipole Moments:

 ------------------------------------------------------------------------------------
     Multipole            Electronic (a.u.)      Nuclear  (a.u.)        Total (a.u.)
 ------------------------------------------------------------------------------------

 L = 1.  Multiply by 2.5417464519 to convert [e a0] to [Debye]
 Dipole X            :         -6.9121765           10.3682356            3.4560591
 Dipole Y            :         -0.0000082            0.0000000           -0.0000082
 Dipole Z            :          0.0000169            0.0000000            0.0000169
 Magnitude           :                                                    3.4560591

 ------------------------------------------------------------------------------------

*** tstop() called on moses-razer at Wed Jan  3 14:31:22 2024
Module time:
	user time   =       2.25 seconds =       0.04 minutes
	system time =       0.10 seconds =       0.00 minutes
	total time  =          0 seconds =       0.00 minutes
Total time:
	user time   =       2.25 seconds =       0.04 minutes
	system time =       0.10 seconds =       0.00 minutes
	total time  =          0 seconds =       0.00 minutes

*** tstart() called on moses-razer
*** at Wed Jan  3 14:31:22 2024


  //>>>>>>>>>>>>>>>>>>>>>>>>>>>>>>>>>>>//
  //               DFMP2               //
  //<<<<<<<<<<<<<<<<<<<<<<<<<<<<<<<<<<<//

   => Loading Basis Set <=

    Name: (AUG-CC-PVTZ AUX)
    Role: RIFIT
    Keyword: DF_BASIS_MP2
    atoms 1   entry O          line   264 file /home/kchung25/anaconda3/envs/p415env/share/psi4/basis/aug-cc-pvtz-ri.gbs 
    atoms 2-3 entry H          line    30 file /home/kchung25/anaconda3/envs/p415env/share/psi4/basis/aug-cc-pvtz-ri.gbs 
    atoms 4   entry LI         line    90 file /home/kchung25/anaconda3/envs/p415env/share/psi4/basis/def2-qzvpp-ri.gbs 

	 --------------------------------------------------------
	                          DF-MP2                         
	      2nd-Order Density-Fitted Moller-Plesset Theory     
	              RMP2 Wavefunction,   6 Threads             
	                                                         
	        Rob Parrish, Justin Turney, Andy Simmonett,      
	           Ed Hohenstein, and C. David Sherrill          
	 --------------------------------------------------------

   => Auxiliary Basis Set <=

  Basis Set: (AUG-CC-PVTZ AUX)
    Blend: AUG-CC-PVTZ-RI + DEF2-QZVPP-RI
    Number of shells: 83
    Number of basis functions: 299
    Number of Cartesian functions: 376
    Spherical Harmonics?: true
    Max angular momentum: 4

	 --------------------------------------------------------
	                 NBF =   138, NAUX =   299
	 --------------------------------------------------------
	   CLASS    FOCC     OCC    AOCC    AVIR     VIR    FVIR
	   PAIRS       0       1       1     137     137       0
	 --------------------------------------------------------

	-----------------------------------------------------------
	 ==================> DF-MP2 Energies <==================== 
	-----------------------------------------------------------
	 Reference Energy          =      -7.2363835630914730 [Eh]
	 Singles Energy            =      -0.0000000000000000 [Eh]
	 Same-Spin Energy          =       0.0000000000000000 [Eh]
	 Opposite-Spin Energy      =      -0.0133211073508254 [Eh]
	 Correlation Energy        =      -0.0133211073508254 [Eh]
	 Total Energy              =      -7.2497046704422985 [Eh]
	-----------------------------------------------------------
	 ================> DF-SCS-MP2 Energies <================== 
	-----------------------------------------------------------
	 SCS Same-Spin Scale       =       0.3333333333333333 [-]
	 SCS Opposite-Spin Scale   =       1.2000000000000000 [-]
	 SCS Same-Spin Energy      =       0.0000000000000000 [Eh]
	 SCS Opposite-Spin Energy  =      -0.0159853288209905 [Eh]
	 SCS Correlation Energy    =      -0.0159853288209905 [Eh]
	 SCS Total Energy          =      -7.2523688919124636 [Eh]
	-----------------------------------------------------------


*** tstop() called on moses-razer at Wed Jan  3 14:31:23 2024
Module time:
	user time   =       1.23 seconds =       0.02 minutes
	system time =       0.07 seconds =       0.00 minutes
	total time  =          1 seconds =       0.02 minutes
Total time:
	user time   =       3.48 seconds =       0.06 minutes
	system time =       0.17 seconds =       0.00 minutes
	total time  =          1 seconds =       0.02 minutes

    Psi4 stopped on: Wednesday, 03 January 2024 02:31PM
    Psi4 wall time for execution: 0:00:00.67


    -----------------------------------------------------------------------
          Psi4: An Open-Source Ab Initio Electronic Structure Package
                               Psi4 1.9 release

                         Git: Rev {} zzzzzzz 


    D. G. A. Smith, L. A. Burns, A. C. Simmonett, R. M. Parrish,
    M. C. Schieber, R. Galvelis, P. Kraus, H. Kruse, R. Di Remigio,
    A. Alenaizan, A. M. James, S. Lehtola, J. P. Misiewicz, M. Scheurer,
    R. A. Shaw, J. B. Schriber, Y. Xie, Z. L. Glick, D. A. Sirianni,
    J. S. O'Brien, J. M. Waldrop, A. Kumar, E. G. Hohenstein,
    B. P. Pritchard, B. R. Brooks, H. F. Schaefer III, A. Yu. Sokolov,
    K. Patkowski, A. E. DePrince III, U. Bozkaya, R. A. King,
    F. A. Evangelista, J. M. Turney, T. D. Crawford, C. D. Sherrill,
    J. Chem. Phys. 152(18) 184108 (2020). https://doi.org/10.1063/5.0006002

                            Additional Code Authors
    E. T. Seidl, C. L. Janssen, E. F. Valeev, M. L. Leininger,
    J. F. Gonthier, R. M. Richard, H. R. McAlexander, M. Saitow, X. Wang,
    P. Verma, M. H. Lechner, A. Jiang, S. Behnle, A. G. Heide,
    M. F. Herbst, and D. L. Poole

             Previous Authors, Complete List of Code Contributors,
                       and Citations for Specific Modules
    https://github.com/psi4/psi4/blob/master/codemeta.json
    https://github.com/psi4/psi4/graphs/contributors
    http://psicode.org/psi4manual/master/introduction.html#citing-psifour

    -----------------------------------------------------------------------


    Psi4 started on: Wednesday, 03 January 2024 02:31PM

    Process ID: 402743
    Host:       moses-razer
    PSIDATADIR: /home/kchung25/anaconda3/envs/psi4_19/share/psi4
    Memory:     55.9 GiB
    Threads:    6
    
  ==> Input QCSchema <==

--------------------------------------------------------------------------
{'driver': 'energy',
 'extras': {'psiapi': True, 'wfn_qcvars_only': True},
 'id': None,
 'keywords': {'SCF_TYPE': 'DF', 'function_kwargs': {}},
 'model': {'basis': 'aug-cc-pvtz', 'method': 'mp2'},
 'molecule': {'atom_labels': ['', '', '', ''],
              'atomic_numbers': [8, 1, 1, 3],
              'extras': {},
              'fix_com': True,
              'fix_orientation': True,
              'fix_symmetry': 'c1',
              'fragment_charges': [0.0, 0.0],
              'fragment_multiplicities': [1, 1],
              'fragments': [[0, 1, 2], [3]],
              'geometry': [0.0, 0.0, 0.0, -1.1884582089310556, 0.6973297272813186, 1.1884582089310556,
                           -0.16720296758050865, -1.8042235771853632, 0.16720296758050865, 3.456078536875062, 0.0,
                           0.0],
              'mass_numbers': [16, 1, 1, 7],
              'masses': [15.99491461957, 1.00782503223, 1.00782503223, 7.0160034366],
              'molecular_charge': 0.0,
              'molecular_multiplicity': 1,
              'name': 'dimer',
              'provenance': {'creator': 'QCElemental',
                             'routine': 'qcelemental.molparse.from_string',
                             'version': '0.27.1'},
              'real': [True, True, True, False],
              'schema_name': 'qcschema_molecule',
              'schema_version': 2,
              'symbols': ['O', 'H', 'H', 'Li'],
              'validated': True},
 'protocols': {'stdout': True},
 'provenance': {'creator': 'QCElemental', 'routine': 'qcelemental.models.results', 'version': '0.27.1'},
 'schema_name': 'qcschema_input',
 'schema_version': 1}
--------------------------------------------------------------------------

Scratch directory: /scratch/
   => Libint2 <=

    Primary   basis highest AM E, G, H:  5, 4, 3
    Auxiliary basis highest AM E, G, H:  6, 5, 4
    Onebody   basis highest AM E, G, H:  6, 5, 4
    Solid Harmonics ordering:            gaussian

*** tstart() called on moses-razer
*** at Wed Jan  3 14:31:23 2024

   => Loading Basis Set <=

    Name: AUG-CC-PVTZ
    Role: ORBITAL
    Keyword: BASIS
    atoms 1   entry O          line   331 file /home/kchung25/anaconda3/envs/p415env/share/psi4/basis/aug-cc-pvtz.gbs 
    atoms 2-3 entry H          line    40 file /home/kchung25/anaconda3/envs/p415env/share/psi4/basis/aug-cc-pvtz.gbs 
    atoms 4   entry LI         line    85 file /home/kchung25/anaconda3/envs/p415env/share/psi4/basis/aug-cc-pvtz.gbs 


         ---------------------------------------------------------
                                   SCF
               by Justin Turney, Rob Parrish, Andy Simmonett
                          and Daniel G. A. Smith
                              RHF Reference
                        6 Threads,  57220 MiB Core
         ---------------------------------------------------------

  ==> Geometry <==

    Molecular point group: c1
    Full point group: C1

    Geometry (in Bohr), charge = 0, multiplicity = 1:

       Center              X                  Y                   Z               Mass       
    ------------   -----------------  -----------------  -----------------  -----------------
         O            0.000000000000     0.000000000000     0.000000000000    15.994914619570
         H           -1.188458208931     0.697329727281     1.188458208931     1.007825032230
         H           -0.167202967581    -1.804223577185     0.167202967581     1.007825032230
      Gh(LI)          3.456078536875     0.000000000000     0.000000000000     7.016003436600

  Running in c1 symmetry.

  Rotational constants: A =     11.59089  B =      0.69516  C =      0.67518 [cm^-1]
  Rotational constants: A = 347485.99766  B =  20840.37495  C =  20241.33529 [MHz]
  Nuclear repulsion =    9.139082340437367

  Charge       = 0
  Multiplicity = 1
  Electrons    = 10
  Nalpha       = 5
  Nbeta        = 5

  ==> Algorithm <==

  SCF Algorithm Type is DF.
  DIIS enabled.
  MOM disabled.
  Fractional occupation disabled.
  Guess Type is SAD.
  Energy threshold   = 1.00e-08
  Density threshold  = 1.00e-08
  Integral threshold = 1.00e-12

  ==> Primary Basis <==

  Basis Set: AUG-CC-PVTZ
    Blend: AUG-CC-PVTZ
    Number of shells: 46
    Number of basis functions: 138
    Number of Cartesian functions: 160
    Spherical Harmonics?: true
    Max angular momentum: 3

   => Loading Basis Set <=

    Name: (AUG-CC-PVTZ AUX)
    Role: JKFIT
    Keyword: DF_BASIS_SCF
    atoms 1   entry O          line   286 file /home/kchung25/anaconda3/envs/p415env/share/psi4/basis/aug-cc-pvtz-jkfit.gbs 
    atoms 2-3 entry H          line    70 file /home/kchung25/anaconda3/envs/p415env/share/psi4/basis/aug-cc-pvtz-jkfit.gbs 
    atoms 4   entry LI         line    54 file /home/kchung25/anaconda3/envs/p415env/share/psi4/basis/def2-universal-jkfit.gbs 

  ==> Integral Setup <==

  DFHelper Memory: AOs need 0.040 GiB; user supplied 41.910 GiB. 
  Using in-core AOs.

  ==> MemDFJK: Density-Fitted J/K Matrices <==

    J tasked:                   Yes
    K tasked:                   Yes
    wK tasked:                   No
    OpenMP threads:               6
    Memory [MiB]:             42915
    Algorithm:                 Core
    Schwarz Cutoff:           1E-12
    Mask sparsity (%):       0.0000
    Fitting Condition:        1E-10

   => Auxiliary Basis Set <=

  Basis Set: (AUG-CC-PVTZ AUX)
    Blend: AUG-CC-PVTZ-JKFIT + DEF2-UNIVERSAL-JKFIT
    Number of shells: 75
    Number of basis functions: 247
    Number of Cartesian functions: 301
    Spherical Harmonics?: true
    Max angular momentum: 4

  Minimum eigenvalue in the overlap matrix is 1.4347719970E-04.
  Reciprocal condition number of the overlap matrix is 1.5422310313E-05.
    Using symmetric orthogonalization.

  ==> Pre-Iterations <==

  SCF Guess: Superposition of Atomic Densities via on-the-fly atomic UHF (no occupation information).

   -------------------------
    Irrep   Nso     Nmo    
   -------------------------
     A        138     138 
   -------------------------
    Total     138     138
   -------------------------

  ==> Iterations <==

                           Total Energy        Delta E     RMS |[F,P]|

   @DF-RHF iter SAD:   -75.47094805569891   -7.54709e+01   0.00000e+00 
   @DF-RHF iter   1:   -75.97584126046341   -5.04893e-01   3.39258e-03 ADIIS/DIIS
   @DF-RHF iter   2:   -76.02820534474228   -5.23641e-02   2.31991e-03 ADIIS/DIIS
   @DF-RHF iter   3:   -76.05984229308022   -3.16369e-02   1.59171e-04 ADIIS/DIIS
   @DF-RHF iter   4:   -76.06024066557730   -3.98372e-04   3.79197e-05 DIIS
   @DF-RHF iter   5:   -76.06026568403122   -2.50185e-05   8.66408e-06 DIIS
   @DF-RHF iter   6:   -76.06026775009866   -2.06607e-06   1.90438e-06 DIIS
   @DF-RHF iter   7:   -76.06026785999887   -1.09900e-07   3.45666e-07 DIIS
   @DF-RHF iter   8:   -76.06026786317231   -3.17344e-09   5.76983e-08 DIIS
   @DF-RHF iter   9:   -76.06026786324303   -7.07132e-11   1.44359e-08 DIIS
   @DF-RHF iter  10:   -76.06026786324702   -3.99325e-12   2.07229e-09 DIIS
  Energy and wave function converged.


  ==> Post-Iterations <==

    Orbital Energies [Eh]
    ---------------------

    Doubly Occupied:                                                      

       1A    -20.567811     2A     -1.350206     3A     -0.715717  
       4A     -0.582706     5A     -0.509704  

    Virtual:                                                              

       6A      0.009479     7A      0.018457     8A      0.019193  
       9A      0.020886    10A      0.048991    11A      0.061275  
      12A      0.068079    13A      0.070382    14A      0.073630  
      15A      0.081419    16A      0.122046    17A      0.123984  
      18A      0.126372    19A      0.155202    20A      0.158680  
      21A      0.172881    22A      0.183444    23A      0.194844  
      24A      0.198700    25A      0.212762    26A      0.224910  
      27A      0.238387    28A      0.267885    29A      0.281466  
      30A      0.309614    31A      0.311598    32A      0.350396  
      33A      0.354284    34A      0.355158    35A      0.362942  
      36A      0.364194    37A      0.377612    38A      0.382177  
      39A      0.389161    40A      0.389754    41A      0.399243  
      42A      0.415309    43A      0.424403    44A      0.451274  
      45A      0.454731    46A      0.483337    47A      0.494513  
      48A      0.516811    49A      0.621642    50A      0.669214  
      51A      0.685598    52A      0.712542    53A      0.754362  
      54A      0.788348    55A      0.819444    56A      0.819762  
      57A      0.837973    58A      0.850407    59A      0.877771  
      60A      0.887893    61A      0.906807    62A      0.915898  
      63A      0.938285    64A      0.940665    65A      0.947820  
      66A      0.962309    67A      0.984951    68A      1.005179  
      69A      1.032611    70A      1.078769    71A      1.084871  
      72A      1.090707    73A      1.126746    74A      1.157661  
      75A      1.177840    76A      1.194384    77A      1.233053  
      78A      1.274710    79A      1.300850    80A      1.377725  
      81A      1.483303    82A      1.530954    83A      1.628852  
      84A      1.692201    85A      1.749307    86A      1.826396  
      87A      1.877098    88A      1.937605    89A      2.061558  
      90A      2.181474    91A      2.243521    92A      2.384469  
      93A      2.458873    94A      2.477199    95A      2.559315  
      96A      2.568805    97A      2.660510    98A      2.716059  
      99A      2.780960   100A      2.807616   101A      2.862345  
     102A      2.914616   103A      3.036825   104A      3.793444  
     105A      3.851187   106A      4.072292   107A      4.229894  
     108A      4.270168   109A      4.313715   110A      4.444777  
     111A      4.469427   112A      4.528044   113A      4.553447  
     114A      4.596138   115A      4.808874   116A      4.880900  
     117A      5.174550   118A      5.200959   119A      5.302043  
     120A      5.364845   121A      5.555358   122A      5.772477  
     123A      6.289946   124A      6.585366   125A      6.777303  
     126A      6.934139   127A      7.195829   128A      7.334873  
     129A      7.342690   130A      7.351743   131A      7.404989  
     132A      7.424964   133A      7.626124   134A      7.923337  
     135A      7.950218   136A      8.849806   137A     11.314316  
     138A     15.924179  

    Final Occupation by Irrep:
              A 
    DOCC [     5 ]
    NA   [     5 ]
    NB   [     5 ]

  @DF-RHF Final Energy:   -76.06026786324702

   => Energetics <=

    Nuclear Repulsion Energy =              9.1390823404373673
    One-Electron Energy =                -122.9464136702159180
    Two-Electron Energy =                  37.7470634665315288
    Total Energy =                        -76.0602678632470202

Computation Completed


Properties will be evaluated at   0.000000,   0.000000,   0.000000 [a0]

Properties computed using the SCF density matrix


 Multipole Moments:

 ------------------------------------------------------------------------------------
     Multipole            Electronic (a.u.)      Nuclear  (a.u.)        Total (a.u.)
 ------------------------------------------------------------------------------------

 L = 1.  Multiply by 2.5417464519 to convert [e a0] to [Debye]
 Dipole X            :          0.8791335           -1.3556612           -0.4765276
 Dipole Y            :          0.7180334           -1.1068938           -0.3888605
 Dipole Z            :         -0.8795799            1.3556612            0.4760813
 Magnitude           :                                                    0.7777818

 ------------------------------------------------------------------------------------

*** tstop() called on moses-razer at Wed Jan  3 14:31:23 2024
Module time:
	user time   =       3.48 seconds =       0.06 minutes
	system time =       0.06 seconds =       0.00 minutes
	total time  =          0 seconds =       0.00 minutes
Total time:
	user time   =       7.23 seconds =       0.12 minutes
	system time =       0.23 seconds =       0.00 minutes
	total time  =          1 seconds =       0.02 minutes

*** tstart() called on moses-razer
*** at Wed Jan  3 14:31:23 2024


  //>>>>>>>>>>>>>>>>>>>>>>>>>>>>>>>>>>>//
  //               DFMP2               //
  //<<<<<<<<<<<<<<<<<<<<<<<<<<<<<<<<<<<//

   => Loading Basis Set <=

    Name: (AUG-CC-PVTZ AUX)
    Role: RIFIT
    Keyword: DF_BASIS_MP2
    atoms 1   entry O          line   264 file /home/kchung25/anaconda3/envs/p415env/share/psi4/basis/aug-cc-pvtz-ri.gbs 
    atoms 2-3 entry H          line    30 file /home/kchung25/anaconda3/envs/p415env/share/psi4/basis/aug-cc-pvtz-ri.gbs 
    atoms 4   entry LI         line    90 file /home/kchung25/anaconda3/envs/p415env/share/psi4/basis/def2-qzvpp-ri.gbs 

	 --------------------------------------------------------
	                          DF-MP2                         
	      2nd-Order Density-Fitted Moller-Plesset Theory     
	              RMP2 Wavefunction,   6 Threads             
	                                                         
	        Rob Parrish, Justin Turney, Andy Simmonett,      
	           Ed Hohenstein, and C. David Sherrill          
	 --------------------------------------------------------

   => Auxiliary Basis Set <=

  Basis Set: (AUG-CC-PVTZ AUX)
    Blend: AUG-CC-PVTZ-RI + DEF2-QZVPP-RI
    Number of shells: 83
    Number of basis functions: 299
    Number of Cartesian functions: 376
    Spherical Harmonics?: true
    Max angular momentum: 4

	 --------------------------------------------------------
	                 NBF =   138, NAUX =   299
	 --------------------------------------------------------
	   CLASS    FOCC     OCC    AOCC    AVIR     VIR    FVIR
	   PAIRS       0       5       5     133     133       0
	 --------------------------------------------------------

	-----------------------------------------------------------
	 ==================> DF-MP2 Energies <==================== 
	-----------------------------------------------------------
	 Reference Energy          =     -76.0602678632470202 [Eh]
	 Singles Energy            =      -0.0000000000000000 [Eh]
	 Same-Spin Energy          =      -0.0684799871215021 [Eh]
	 Opposite-Spin Energy      =      -0.2158954357484001 [Eh]
	 Correlation Energy        =      -0.2843754228699022 [Eh]
	 Total Energy              =     -76.3446432861169200 [Eh]
	-----------------------------------------------------------
	 ================> DF-SCS-MP2 Energies <================== 
	-----------------------------------------------------------
	 SCS Same-Spin Scale       =       0.3333333333333333 [-]
	 SCS Opposite-Spin Scale   =       1.2000000000000000 [-]
	 SCS Same-Spin Energy      =      -0.0228266623738340 [Eh]
	 SCS Opposite-Spin Energy  =      -0.2590745228980801 [Eh]
	 SCS Correlation Energy    =      -0.2819011852719141 [Eh]
	 SCS Total Energy          =     -76.3421690485189401 [Eh]
	-----------------------------------------------------------


*** tstop() called on moses-razer at Wed Jan  3 14:31:24 2024
Module time:
	user time   =       1.26 seconds =       0.02 minutes
	system time =       0.06 seconds =       0.00 minutes
	total time  =          1 seconds =       0.02 minutes
Total time:
	user time   =       8.50 seconds =       0.14 minutes
	system time =       0.29 seconds =       0.00 minutes
	total time  =          2 seconds =       0.03 minutes

    Psi4 stopped on: Wednesday, 03 January 2024 02:31PM
    Psi4 wall time for execution: 0:00:00.85


    -----------------------------------------------------------------------
          Psi4: An Open-Source Ab Initio Electronic Structure Package
                               Psi4 1.9 release

                         Git: Rev {} zzzzzzz 


    D. G. A. Smith, L. A. Burns, A. C. Simmonett, R. M. Parrish,
    M. C. Schieber, R. Galvelis, P. Kraus, H. Kruse, R. Di Remigio,
    A. Alenaizan, A. M. James, S. Lehtola, J. P. Misiewicz, M. Scheurer,
    R. A. Shaw, J. B. Schriber, Y. Xie, Z. L. Glick, D. A. Sirianni,
    J. S. O'Brien, J. M. Waldrop, A. Kumar, E. G. Hohenstein,
    B. P. Pritchard, B. R. Brooks, H. F. Schaefer III, A. Yu. Sokolov,
    K. Patkowski, A. E. DePrince III, U. Bozkaya, R. A. King,
    F. A. Evangelista, J. M. Turney, T. D. Crawford, C. D. Sherrill,
    J. Chem. Phys. 152(18) 184108 (2020). https://doi.org/10.1063/5.0006002

                            Additional Code Authors
    E. T. Seidl, C. L. Janssen, E. F. Valeev, M. L. Leininger,
    J. F. Gonthier, R. M. Richard, H. R. McAlexander, M. Saitow, X. Wang,
    P. Verma, M. H. Lechner, A. Jiang, S. Behnle, A. G. Heide,
    M. F. Herbst, and D. L. Poole

             Previous Authors, Complete List of Code Contributors,
                       and Citations for Specific Modules
    https://github.com/psi4/psi4/blob/master/codemeta.json
    https://github.com/psi4/psi4/graphs/contributors
    http://psicode.org/psi4manual/master/introduction.html#citing-psifour

    -----------------------------------------------------------------------


    Psi4 started on: Wednesday, 03 January 2024 02:31PM

    Process ID: 402743
    Host:       moses-razer
    PSIDATADIR: /home/kchung25/anaconda3/envs/psi4_19/share/psi4
    Memory:     55.9 GiB
    Threads:    6
    
  ==> Input QCSchema <==

--------------------------------------------------------------------------
{'driver': 'energy',
 'extras': {'psiapi': True, 'wfn_qcvars_only': True},
 'id': None,
 'keywords': {'SCF_TYPE': 'DF', 'function_kwargs': {}},
 'model': {'basis': 'aug-cc-pvtz', 'method': 'mp2'},
 'molecule': {'atom_labels': ['', '', '', ''],
              'atomic_numbers': [8, 1, 1, 3],
              'extras': {},
              'fix_com': True,
              'fix_orientation': True,
              'fix_symmetry': 'c1',
              'fragment_charges': [0.0, 1.0],
              'fragment_multiplicities': [1, 1],
              'fragments': [[0, 1, 2], [3]],
              'geometry': [0.0, 0.0, 0.0, -1.1884582089310556, 0.6973297272813186, 1.1884582089310556,
                           -0.16720296758050865, -1.8042235771853632, 0.16720296758050865, 3.456078536875062, 0.0,
                           0.0],
              'mass_numbers': [16, 1, 1, 7],
              'masses': [15.99491461957, 1.00782503223, 1.00782503223, 7.0160034366],
              'molecular_charge': 1.0,
              'molecular_multiplicity': 1,
              'name': 'dimer',
              'provenance': {'creator': 'QCElemental',
                             'routine': 'qcelemental.molparse.from_string',
                             'version': '0.27.1'},
              'real': [True, True, True, True],
              'schema_name': 'qcschema_molecule',
              'schema_version': 2,
              'symbols': ['O', 'H', 'H', 'Li'],
              'validated': True},
 'protocols': {'stdout': True},
 'provenance': {'creator': 'QCElemental', 'routine': 'qcelemental.models.results', 'version': '0.27.1'},
 'schema_name': 'qcschema_input',
 'schema_version': 1}
--------------------------------------------------------------------------

Scratch directory: /scratch/
   => Libint2 <=

    Primary   basis highest AM E, G, H:  5, 4, 3
    Auxiliary basis highest AM E, G, H:  6, 5, 4
    Onebody   basis highest AM E, G, H:  6, 5, 4
    Solid Harmonics ordering:            gaussian

*** tstart() called on moses-razer
*** at Wed Jan  3 14:31:24 2024

   => Loading Basis Set <=

    Name: AUG-CC-PVTZ
    Role: ORBITAL
    Keyword: BASIS
    atoms 1   entry O          line   331 file /home/kchung25/anaconda3/envs/p415env/share/psi4/basis/aug-cc-pvtz.gbs 
    atoms 2-3 entry H          line    40 file /home/kchung25/anaconda3/envs/p415env/share/psi4/basis/aug-cc-pvtz.gbs 
    atoms 4   entry LI         line    85 file /home/kchung25/anaconda3/envs/p415env/share/psi4/basis/aug-cc-pvtz.gbs 


         ---------------------------------------------------------
                                   SCF
               by Justin Turney, Rob Parrish, Andy Simmonett
                          and Daniel G. A. Smith
                              RHF Reference
                        6 Threads,  57220 MiB Core
         ---------------------------------------------------------

  ==> Geometry <==

    Molecular point group: c1
    Full point group: C1

    Geometry (in Bohr), charge = 1, multiplicity = 1:

       Center              X                  Y                   Z               Mass       
    ------------   -----------------  -----------------  -----------------  -----------------
         O            0.000000000000     0.000000000000     0.000000000000    15.994914619570
         H           -1.188458208931     0.697329727281     1.188458208931     1.007825032230
         H           -0.167202967581    -1.804223577185     0.167202967581     1.007825032230
         LI           3.456078536875     0.000000000000     0.000000000000     7.016003436600

  Running in c1 symmetry.

  Rotational constants: A =     11.59089  B =      0.69516  C =      0.67518 [cm^-1]
  Rotational constants: A = 347485.99766  B =  20840.37495  C =  20241.33529 [MHz]
  Nuclear repulsion =   17.443152556071897

  Charge       = 1
  Multiplicity = 1
  Electrons    = 12
  Nalpha       = 6
  Nbeta        = 6

  ==> Algorithm <==

  SCF Algorithm Type is DF.
  DIIS enabled.
  MOM disabled.
  Fractional occupation disabled.
  Guess Type is SAD.
  Energy threshold   = 1.00e-08
  Density threshold  = 1.00e-08
  Integral threshold = 1.00e-12

  ==> Primary Basis <==

  Basis Set: AUG-CC-PVTZ
    Blend: AUG-CC-PVTZ
    Number of shells: 46
    Number of basis functions: 138
    Number of Cartesian functions: 160
    Spherical Harmonics?: true
    Max angular momentum: 3

   => Loading Basis Set <=

    Name: (AUG-CC-PVTZ AUX)
    Role: JKFIT
    Keyword: DF_BASIS_SCF
    atoms 1   entry O          line   286 file /home/kchung25/anaconda3/envs/p415env/share/psi4/basis/aug-cc-pvtz-jkfit.gbs 
    atoms 2-3 entry H          line    70 file /home/kchung25/anaconda3/envs/p415env/share/psi4/basis/aug-cc-pvtz-jkfit.gbs 
    atoms 4   entry LI         line    54 file /home/kchung25/anaconda3/envs/p415env/share/psi4/basis/def2-universal-jkfit.gbs 

  ==> Integral Setup <==

  DFHelper Memory: AOs need 0.040 GiB; user supplied 41.910 GiB. 
  Using in-core AOs.

  ==> MemDFJK: Density-Fitted J/K Matrices <==

    J tasked:                   Yes
    K tasked:                   Yes
    wK tasked:                   No
    OpenMP threads:               6
    Memory [MiB]:             42915
    Algorithm:                 Core
    Schwarz Cutoff:           1E-12
    Mask sparsity (%):       0.0000
    Fitting Condition:        1E-10

   => Auxiliary Basis Set <=

  Basis Set: (AUG-CC-PVTZ AUX)
    Blend: AUG-CC-PVTZ-JKFIT + DEF2-UNIVERSAL-JKFIT
    Number of shells: 75
    Number of basis functions: 247
    Number of Cartesian functions: 301
    Spherical Harmonics?: true
    Max angular momentum: 4

  Minimum eigenvalue in the overlap matrix is 1.4347719970E-04.
  Reciprocal condition number of the overlap matrix is 1.5422310313E-05.
    Using symmetric orthogonalization.

  ==> Pre-Iterations <==

  SCF Guess: Superposition of Atomic Densities via on-the-fly atomic UHF (no occupation information).

   -------------------------
    Irrep   Nso     Nmo    
   -------------------------
     A        138     138 
   -------------------------
    Total     138     138
   -------------------------

  ==> Iterations <==

                           Total Energy        Delta E     RMS |[F,P]|

   @DF-RHF iter SAD:   -82.88424882480103   -8.28842e+01   0.00000e+00 
   @DF-RHF iter   1:   -83.26109896152700   -3.76850e-01   3.40726e-03 ADIIS/DIIS
   @DF-RHF iter   2:   -83.31579062479682   -5.46917e-02   2.16684e-03 ADIIS/DIIS
   @DF-RHF iter   3:   -83.34278501259683   -2.69944e-02   1.65561e-04 ADIIS/DIIS
   @DF-RHF iter   4:   -83.34317957116940   -3.94559e-04   3.59354e-05 DIIS
   @DF-RHF iter   5:   -83.34320030673813   -2.07356e-05   7.73214e-06 DIIS
   @DF-RHF iter   6:   -83.34320172394041   -1.41720e-06   1.43157e-06 DIIS
   @DF-RHF iter   7:   -83.34320177825208   -5.43117e-08   2.66624e-07 DIIS
   @DF-RHF iter   8:   -83.34320177989801   -1.64593e-09   4.33721e-08 DIIS
   @DF-RHF iter   9:   -83.34320177993277   -3.47598e-11   1.01911e-08 DIIS
   @DF-RHF iter  10:   -83.34320177993507   -2.30216e-12   2.08715e-09 DIIS
  Energy and wave function converged.


  ==> Post-Iterations <==

    Orbital Energies [Eh]
    ---------------------

    Doubly Occupied:                                                      

       1A    -20.820036     2A     -2.710522     3A     -1.610141  
       4A     -0.972088     5A     -0.858919     6A     -0.775451  

    Virtual:                                                              

       7A     -0.160429     8A     -0.107967     9A     -0.103543  
      10A     -0.096371    11A     -0.064440    12A     -0.056653  
      13A     -0.051762    14A     -0.047864    15A     -0.045905  
      16A     -0.043376    17A     -0.026778    18A     -0.023620  
      19A     -0.015121    20A     -0.000284    21A      0.004706  
      22A      0.010183    23A      0.017537    24A      0.027784  
      25A      0.038329    26A      0.051741    27A      0.060121  
      28A      0.065984    29A      0.096724    30A      0.105264  
      31A      0.136019    32A      0.137634    33A      0.149286  
      34A      0.151430    35A      0.163841    36A      0.171863  
      37A      0.180505    38A      0.190706    39A      0.193326  
      40A      0.208298    41A      0.215841    42A      0.222525  
      43A      0.224692    44A      0.233409    45A      0.256443  
      46A      0.263738    47A      0.282994    48A      0.301052  
      49A      0.314001    50A      0.325732    51A      0.342137  
      52A      0.383973    53A      0.488858    54A      0.501153  
      55A      0.536736    56A      0.557949    57A      0.558246  
      58A      0.572355    59A      0.585465    60A      0.595074  
      61A      0.596546    62A      0.599069    63A      0.616851  
      64A      0.646645    65A      0.662489    66A      0.678271  
      67A      0.712400    68A      0.753438    69A      0.771355  
      70A      0.796020    71A      0.830166    72A      0.859048  
      73A      0.873315    74A      0.884485    75A      0.900914  
      76A      0.929881    77A      0.959917    78A      0.982233  
      79A      1.008440    80A      1.071664    81A      1.115073  
      82A      1.155544    83A      1.199840    84A      1.317305  
      85A      1.389121    86A      1.475646    87A      1.537527  
      88A      1.627059    89A      1.737693    90A      1.820124  
      91A      1.930376    92A      2.121210    93A      2.138068  
      94A      2.177097    95A      2.202851    96A      2.292680  
      97A      2.327670    98A      2.411913    99A      2.490703  
     100A      2.550801   101A      2.573823   102A      2.627619  
     103A      2.681125   104A      3.384418   105A      3.568842  
     106A      3.615443   107A      3.848574   108A      3.990007  
     109A      4.028380   110A      4.075517   111A      4.209026  
     112A      4.241611   113A      4.292316   114A      4.311115  
     115A      4.449768   116A      4.563753   117A      4.664603  
     118A      4.935214   119A      4.963707   120A      5.056683  
     121A      5.118101   122A      5.302730   123A      5.525126  
     124A      6.037807   125A      6.328558   126A      6.513099  
     127A      6.674792   128A      6.930444   129A      7.077913  
     130A      7.080166   131A      7.095365   132A      7.145863  
     133A      7.169502   134A      7.370271   135A      7.665100  
     136A      7.688350   137A      8.606741   138A     15.665947  

    Final Occupation by Irrep:
              A 
    DOCC [     6 ]
    NA   [     6 ]
    NB   [     6 ]

  @DF-RHF Final Energy:   -83.34320177993507

   => Energetics <=

    Nuclear Repulsion Energy =             17.4431525560718974
    One-Electron Energy =                -146.0783939407556034
    Two-Electron Energy =                  45.2920396047486307
    Total Energy =                        -83.3432017799350717

Computation Completed


Properties will be evaluated at   0.000000,   0.000000,   0.000000 [a0]

Properties computed using the SCF density matrix


 Multipole Moments:

 ------------------------------------------------------------------------------------
     Multipole            Electronic (a.u.)      Nuclear  (a.u.)        Total (a.u.)
 ------------------------------------------------------------------------------------

 L = 1.  Multiply by 2.5417464519 to convert [e a0] to [Debye]
 Dipole X            :         -6.4741242            9.0125744            2.5384502
 Dipole Y            :          0.6987619           -1.1068938           -0.4081319
 Dipole Z            :         -0.8310854            1.3556612            0.5245758
 Magnitude           :                                                    2.6240200

 ------------------------------------------------------------------------------------

*** tstop() called on moses-razer at Wed Jan  3 14:31:24 2024
Module time:
	user time   =       3.35 seconds =       0.06 minutes
	system time =       0.09 seconds =       0.00 minutes
	total time  =          0 seconds =       0.00 minutes
Total time:
	user time   =      12.12 seconds =       0.20 minutes
	system time =       0.38 seconds =       0.01 minutes
	total time  =          2 seconds =       0.03 minutes

*** tstart() called on moses-razer
*** at Wed Jan  3 14:31:24 2024


  //>>>>>>>>>>>>>>>>>>>>>>>>>>>>>>>>>>>//
  //               DFMP2               //
  //<<<<<<<<<<<<<<<<<<<<<<<<<<<<<<<<<<<//

   => Loading Basis Set <=

    Name: (AUG-CC-PVTZ AUX)
    Role: RIFIT
    Keyword: DF_BASIS_MP2
    atoms 1   entry O          line   264 file /home/kchung25/anaconda3/envs/p415env/share/psi4/basis/aug-cc-pvtz-ri.gbs 
    atoms 2-3 entry H          line    30 file /home/kchung25/anaconda3/envs/p415env/share/psi4/basis/aug-cc-pvtz-ri.gbs 
    atoms 4   entry LI         line    90 file /home/kchung25/anaconda3/envs/p415env/share/psi4/basis/def2-qzvpp-ri.gbs 

	 --------------------------------------------------------
	                          DF-MP2                         
	      2nd-Order Density-Fitted Moller-Plesset Theory     
	              RMP2 Wavefunction,   6 Threads             
	                                                         
	        Rob Parrish, Justin Turney, Andy Simmonett,      
	           Ed Hohenstein, and C. David Sherrill          
	 --------------------------------------------------------

   => Auxiliary Basis Set <=

  Basis Set: (AUG-CC-PVTZ AUX)
    Blend: AUG-CC-PVTZ-RI + DEF2-QZVPP-RI
    Number of shells: 83
    Number of basis functions: 299
    Number of Cartesian functions: 376
    Spherical Harmonics?: true
    Max angular momentum: 4

	 --------------------------------------------------------
	                 NBF =   138, NAUX =   299
	 --------------------------------------------------------
	   CLASS    FOCC     OCC    AOCC    AVIR     VIR    FVIR
	   PAIRS       0       6       6     132     132       0
	 --------------------------------------------------------

	-----------------------------------------------------------
	 ==================> DF-MP2 Energies <==================== 
	-----------------------------------------------------------
	 Reference Energy          =     -83.3432017799350717 [Eh]
	 Singles Energy            =      -0.0000000000000000 [Eh]
	 Same-Spin Energy          =      -0.0680106526820757 [Eh]
	 Opposite-Spin Energy      =      -0.2270522794898741 [Eh]
	 Correlation Energy        =      -0.2950629321719498 [Eh]
	 Total Energy              =     -83.6382647121070164 [Eh]
	-----------------------------------------------------------
	 ================> DF-SCS-MP2 Energies <================== 
	-----------------------------------------------------------
	 SCS Same-Spin Scale       =       0.3333333333333333 [-]
	 SCS Opposite-Spin Scale   =       1.2000000000000000 [-]
	 SCS Same-Spin Energy      =      -0.0226702175606919 [Eh]
	 SCS Opposite-Spin Energy  =      -0.2724627353878489 [Eh]
	 SCS Correlation Energy    =      -0.2951329529485408 [Eh]
	 SCS Total Energy          =     -83.6383347328836066 [Eh]
	-----------------------------------------------------------


*** tstop() called on moses-razer at Wed Jan  3 14:31:24 2024
Module time:
	user time   =       1.27 seconds =       0.02 minutes
	system time =       0.08 seconds =       0.00 minutes
	total time  =          0 seconds =       0.00 minutes
Total time:
	user time   =      13.39 seconds =       0.22 minutes
	system time =       0.46 seconds =       0.01 minutes
	total time  =          2 seconds =       0.03 minutes

    Psi4 stopped on: Wednesday, 03 January 2024 02:31PM
    Psi4 wall time for execution: 0:00:00.83


  //>>>>>>>>>>>>>>>>>>>>>>>>>>>>>>>>>>>//
  //          ManyBody Results         //
  //<<<<<<<<<<<<<<<<<<<<<<<<<<<<<<<<<<<//


   ==> N-Body: Counterpoise Corrected (CP) energies <==

        n-Body     Total Energy            Interaction Energy                          N-body Contribution to Interaction Energy
                   [Eh]                    [Eh]                  [kcal/mol]            [Eh]                  [kcal/mol]
             1  N/A                         0.000000000000        0.000000000000        0.000000000000        0.000000000000
  FULL/RTN   2  N/A                        -0.043916755548      -27.558180163815       -0.043916755548      -27.558180163815


    Psi4 stopped on: Wednesday, 03 January 2024 02:31PM
    Psi4 wall time for execution: 0:00:03.95

*** Psi4 exiting successfully. Buy a developer a beer!
