
    -----------------------------------------------------------------------
          Psi4: An Open-Source Ab Initio Electronic Structure Package
                               Psi4 1.9 release

                         Git: Rev {} zzzzzzz 


    D. G. A. Smith, L. A. Burns, A. C. Simmonett, R. M. Parrish,
    M. C. Schieber, R. Galvelis, P. Kraus, H. Kruse, R. Di Remigio,
    A. Alenaizan, A. M. James, S. Lehtola, J. P. Misiewicz, M. Scheurer,
    R. A. Shaw, J. B. Schriber, Y. Xie, Z. L. Glick, D. A. Sirianni,
    J. S. O'Brien, J. M. Waldrop, A. Kumar, E. G. Hohenstein,
    B. P. Pritchard, B. R. Brooks, H. F. Schaefer III, A. Yu. Sokolov,
    K. Patkowski, A. E. DePrince III, U. Bozkaya, R. A. King,
    F. A. Evangelista, J. M. Turney, T. D. Crawford, C. D. Sherrill,
    J. Chem. Phys. 152(18) 184108 (2020). https://doi.org/10.1063/5.0006002

                            Additional Code Authors
    E. T. Seidl, C. L. Janssen, E. F. Valeev, M. L. Leininger,
    J. F. Gonthier, R. M. Richard, H. R. McAlexander, M. Saitow, X. Wang,
    P. Verma, M. H. Lechner, A. Jiang, S. Behnle, A. G. Heide,
    M. F. Herbst, and D. L. Poole

             Previous Authors, Complete List of Code Contributors,
                       and Citations for Specific Modules
    https://github.com/psi4/psi4/blob/master/codemeta.json
    https://github.com/psi4/psi4/graphs/contributors
    http://psicode.org/psi4manual/master/introduction.html#citing-psifour

    -----------------------------------------------------------------------


    Psi4 started on: Wednesday, 03 January 2024 03:02PM

    Process ID: 406611
    Host:       moses-razer
    PSIDATADIR: /home/kchung25/anaconda3/envs/psi4_19/share/psi4
    Memory:     500.0 MiB
    Threads:    6
    
  ==> Input File <==

--------------------------------------------------------------------------
MEMORY 60 GB

molecule dimer {
0 1
O      0.000000     0.000000     0.000000
H     -0.634478     0.334379     0.634478
H      0.397263     0.899651    -0.397263
--
-1 1
F      2.426389     0.000000     0.000000

units ang
no_reorient
no_com
symmetry c1
}

set {
basis        aug-cc-pVTZ
scf_type     df
}

energy("mp2", bsse_type="cp")
--------------------------------------------------------------------------

  Memory set to  55.879 GiB by Python driver.

Scratch directory: /scratch/

  //>>>>>>>>>>>>>>>>>>>>>>>>>>>>>>>>>>>>>//
  // ManyBody Setup: N-Body Levels [1, 2]//
  //<<<<<<<<<<<<<<<<<<<<<<<<<<<<<<<<<<<<<//

        Number of 1-body computations:     2
        Number of 2-body computations:     1

    -----------------------------------------------------------------------
          Psi4: An Open-Source Ab Initio Electronic Structure Package
                               Psi4 1.9 release

                         Git: Rev {} zzzzzzz 


    D. G. A. Smith, L. A. Burns, A. C. Simmonett, R. M. Parrish,
    M. C. Schieber, R. Galvelis, P. Kraus, H. Kruse, R. Di Remigio,
    A. Alenaizan, A. M. James, S. Lehtola, J. P. Misiewicz, M. Scheurer,
    R. A. Shaw, J. B. Schriber, Y. Xie, Z. L. Glick, D. A. Sirianni,
    J. S. O'Brien, J. M. Waldrop, A. Kumar, E. G. Hohenstein,
    B. P. Pritchard, B. R. Brooks, H. F. Schaefer III, A. Yu. Sokolov,
    K. Patkowski, A. E. DePrince III, U. Bozkaya, R. A. King,
    F. A. Evangelista, J. M. Turney, T. D. Crawford, C. D. Sherrill,
    J. Chem. Phys. 152(18) 184108 (2020). https://doi.org/10.1063/5.0006002

                            Additional Code Authors
    E. T. Seidl, C. L. Janssen, E. F. Valeev, M. L. Leininger,
    J. F. Gonthier, R. M. Richard, H. R. McAlexander, M. Saitow, X. Wang,
    P. Verma, M. H. Lechner, A. Jiang, S. Behnle, A. G. Heide,
    M. F. Herbst, and D. L. Poole

             Previous Authors, Complete List of Code Contributors,
                       and Citations for Specific Modules
    https://github.com/psi4/psi4/blob/master/codemeta.json
    https://github.com/psi4/psi4/graphs/contributors
    http://psicode.org/psi4manual/master/introduction.html#citing-psifour

    -----------------------------------------------------------------------


    Psi4 started on: Wednesday, 03 January 2024 03:02PM

    Process ID: 406611
    Host:       moses-razer
    PSIDATADIR: /home/kchung25/anaconda3/envs/psi4_19/share/psi4
    Memory:     55.9 GiB
    Threads:    6
    
  ==> Input QCSchema <==

--------------------------------------------------------------------------
{'driver': 'energy',
 'extras': {'psiapi': True, 'wfn_qcvars_only': True},
 'id': None,
 'keywords': {'SCF_TYPE': 'DF', 'function_kwargs': {}},
 'model': {'basis': 'aug-cc-pvtz', 'method': 'mp2'},
 'molecule': {'atom_labels': ['', '', '', ''],
              'atomic_numbers': [8, 1, 1, 9],
              'extras': {},
              'fix_com': True,
              'fix_orientation': True,
              'fix_symmetry': 'c1',
              'fragment_charges': [0.0, -1.0],
              'fragment_multiplicities': [1, 1],
              'fragments': [[0, 1, 2], [3]],
              'geometry': [0.0, 0.0, 0.0, -1.1989896526282315, 0.631884732104463, 1.1989896526282315,
                           0.7507182697777531, 1.7000939984942605, -0.7507182697777531, 4.585210683823494, 0.0, 0.0],
              'mass_numbers': [16, 1, 1, 19],
              'masses': [15.99491461957, 1.00782503223, 1.00782503223, 18.99840316273],
              'molecular_charge': -1.0,
              'molecular_multiplicity': 1,
              'name': 'dimer',
              'provenance': {'creator': 'QCElemental',
                             'routine': 'qcelemental.molparse.from_string',
                             'version': '0.27.1'},
              'real': [False, False, False, True],
              'schema_name': 'qcschema_molecule',
              'schema_version': 2,
              'symbols': ['O', 'H', 'H', 'F'],
              'validated': True},
 'protocols': {'stdout': True},
 'provenance': {'creator': 'QCElemental', 'routine': 'qcelemental.models.results', 'version': '0.27.1'},
 'schema_name': 'qcschema_input',
 'schema_version': 1}
--------------------------------------------------------------------------

Scratch directory: /scratch/
   => Libint2 <=

    Primary   basis highest AM E, G, H:  5, 4, 3
    Auxiliary basis highest AM E, G, H:  6, 5, 4
    Onebody   basis highest AM E, G, H:  6, 5, 4
    Solid Harmonics ordering:            gaussian

*** tstart() called on moses-razer
*** at Wed Jan  3 15:02:42 2024

   => Loading Basis Set <=

    Name: AUG-CC-PVTZ
    Role: ORBITAL
    Keyword: BASIS
    atoms 1   entry O          line   331 file /home/kchung25/anaconda3/envs/p415env/share/psi4/basis/aug-cc-pvtz.gbs 
    atoms 2-3 entry H          line    40 file /home/kchung25/anaconda3/envs/p415env/share/psi4/basis/aug-cc-pvtz.gbs 
    atoms 4   entry F          line   377 file /home/kchung25/anaconda3/envs/p415env/share/psi4/basis/aug-cc-pvtz.gbs 


         ---------------------------------------------------------
                                   SCF
               by Justin Turney, Rob Parrish, Andy Simmonett
                          and Daniel G. A. Smith
                              RHF Reference
                        6 Threads,  57220 MiB Core
         ---------------------------------------------------------

  ==> Geometry <==

    Molecular point group: c1
    Full point group: C1

    Geometry (in Bohr), charge = -1, multiplicity = 1:

       Center              X                  Y                   Z               Mass       
    ------------   -----------------  -----------------  -----------------  -----------------
      Gh(O)           0.000000000000     0.000000000000     0.000000000000    15.994914619570
      Gh(H)          -1.198989652628     0.631884732104     1.198989652628     1.007825032230
      Gh(H)           0.750718269778     1.700093998494    -0.750718269778     1.007825032230
         F            4.585210683823     0.000000000000     0.000000000000    18.998403162730

  Running in c1 symmetry.

  Rotational constants: A =     11.31302  B =      0.14928  C =      0.14866 [cm^-1]
  Rotational constants: A = 339155.72915  B =   4475.17727  C =   4456.70872 [MHz]
  Nuclear repulsion =    0.000000000000000

  Charge       = -1
  Multiplicity = 1
  Electrons    = 10
  Nalpha       = 5
  Nbeta        = 5

  ==> Algorithm <==

  SCF Algorithm Type is DF.
  DIIS enabled.
  MOM disabled.
  Fractional occupation disabled.
  Guess Type is SAD.
  Energy threshold   = 1.00e-08
  Density threshold  = 1.00e-08
  Integral threshold = 1.00e-12

  ==> Primary Basis <==

  Basis Set: AUG-CC-PVTZ
    Blend: AUG-CC-PVTZ
    Number of shells: 46
    Number of basis functions: 138
    Number of Cartesian functions: 160
    Spherical Harmonics?: true
    Max angular momentum: 3

   => Loading Basis Set <=

    Name: (AUG-CC-PVTZ AUX)
    Role: JKFIT
    Keyword: DF_BASIS_SCF
    atoms 1   entry O          line   286 file /home/kchung25/anaconda3/envs/p415env/share/psi4/basis/aug-cc-pvtz-jkfit.gbs 
    atoms 2-3 entry H          line    70 file /home/kchung25/anaconda3/envs/p415env/share/psi4/basis/aug-cc-pvtz-jkfit.gbs 
    atoms 4   entry F          line   348 file /home/kchung25/anaconda3/envs/p415env/share/psi4/basis/aug-cc-pvtz-jkfit.gbs 

  ==> Integral Setup <==

  DFHelper Memory: AOs need 0.048 GiB; user supplied 41.910 GiB. 
  Using in-core AOs.

  ==> MemDFJK: Density-Fitted J/K Matrices <==

    J tasked:                   Yes
    K tasked:                   Yes
    wK tasked:                   No
    OpenMP threads:               6
    Memory [MiB]:             42915
    Algorithm:                 Core
    Schwarz Cutoff:           1E-12
    Mask sparsity (%):       0.3466
    Fitting Condition:        1E-10

   => Auxiliary Basis Set <=

  Basis Set: (AUG-CC-PVTZ AUX)
    Blend: AUG-CC-PVTZ-JKFIT
    Number of shells: 88
    Number of basis functions: 300
    Number of Cartesian functions: 372
    Spherical Harmonics?: true
    Max angular momentum: 4

  Minimum eigenvalue in the overlap matrix is 3.2331812096E-04.
  Reciprocal condition number of the overlap matrix is 4.4634663915E-05.
    Using symmetric orthogonalization.

  ==> Pre-Iterations <==

  SCF Guess: Superposition of Atomic Densities via on-the-fly atomic UHF (no occupation information).

   -------------------------
    Irrep   Nso     Nmo    
   -------------------------
     A        138     138 
   -------------------------
    Total     138     138
   -------------------------

  ==> Iterations <==

                           Total Energy        Delta E     RMS |[F,P]|

   @DF-RHF iter SAD:   -98.82535134501509   -9.88254e+01   0.00000e+00 
   @DF-RHF iter   1:   -99.33788966557510   -5.12538e-01   3.95756e-03 ADIIS/DIIS
   @DF-RHF iter   2:   -99.37423950568108   -3.63498e-02   3.84153e-03 ADIIS/DIIS
   @DF-RHF iter   3:   -99.45079238161088   -7.65529e-02   1.21515e-04 ADIIS/DIIS
   @DF-RHF iter   4:   -99.45085566150972   -6.32799e-05   4.55601e-05 DIIS
   @DF-RHF iter   5:   -99.45086584924694   -1.01877e-05   3.54076e-06 DIIS
   @DF-RHF iter   6:   -99.45086598732588   -1.38079e-07   2.69762e-07 DIIS
   @DF-RHF iter   7:   -99.45086598842970   -1.10381e-09   4.23268e-08 DIIS
   @DF-RHF iter   8:   -99.45086598849856   -6.88658e-11   1.13181e-08 DIIS
   @DF-RHF iter   9:   -99.45086598850317   -4.60432e-12   1.28495e-09 DIIS
  Energy and wave function converged.


  ==> Post-Iterations <==

    Orbital Energies [Eh]
    ---------------------

    Doubly Occupied:                                                      

       1A    -25.833742     2A     -1.076024     3A     -0.181004  
       4A     -0.180957     5A     -0.180945  

    Virtual:                                                              

       6A      0.143179     7A      0.177806     8A      0.267932  
       9A      0.272010    10A      0.298599    11A      0.344435  
      12A      0.403420    13A      0.417304    14A      0.429204  
      15A      0.446789    16A      0.465567    17A      0.493606  
      18A      0.504451    19A      0.516480    20A      0.535906  
      21A      0.557462    22A      0.623630    23A      0.667855  
      24A      0.811765    25A      0.869138    26A      0.934940  
      27A      0.959762    28A      0.967147    29A      1.013226  
      30A      1.020452    31A      1.045150    32A      1.081340  
      33A      1.106893    34A      1.121765    35A      1.151054  
      36A      1.179765    37A      1.190787    38A      1.221674  
      39A      1.278516    40A      1.286385    41A      1.304148  
      42A      1.381664    43A      1.400273    44A      1.417504  
      45A      1.431146    46A      1.455462    47A      1.474460  
      48A      1.579699    49A      1.608392    50A      1.640866  
      51A      1.727334    52A      1.862765    53A      1.876247  
      54A      1.959302    55A      1.985132    56A      2.031173  
      57A      2.055281    58A      2.225417    59A      2.366059  
      60A      2.598188    61A      2.664227    62A      2.726480  
      63A      2.750914    64A      2.759251    65A      2.780550  
      66A      2.875075    67A      2.962237    68A      3.052436  
      69A      3.265466    70A      3.282698    71A      3.299449  
      72A      3.303394    73A      3.317473    74A      3.333940  
      75A      3.336934    76A      3.346919    77A      3.379857  
      78A      3.394266    79A      3.428597    80A      3.463926  
      81A      3.470403    82A      3.528859    83A      3.582669  
      84A      3.629722    85A      3.729233    86A      3.877834  
      87A      3.949552    88A      4.559973    89A      4.634162  
      90A      4.661688    91A      4.787753    92A      4.821663  
      93A      4.875025    94A      5.044938    95A      5.108467  
      96A      5.220203    97A      5.433088    98A      5.552878  
      99A      5.603016   100A      5.702448   101A      5.766855  
     102A      5.865022   103A      5.982340   104A      6.085453  
     105A      6.395873   106A      6.459921   107A      6.538411  
     108A      7.133883   109A      7.892032   110A      7.985764  
     111A      8.165581   112A      8.242278   113A      8.439238  
     114A      8.722909   115A      8.871716   116A      9.277325  
     117A      9.279054   118A      9.308205   119A      9.312716  
     120A      9.352283   121A      9.402114   122A      9.488230  
     123A      9.775697   124A      9.777507   125A      9.805196  
     126A      9.854199   127A      9.890970   128A      9.954055  
     129A     10.082912   130A     10.233547   131A     10.430713  
     132A     10.995777   133A     11.644889   134A     11.954760  
     135A     12.218026   136A     13.485933   137A     14.079118  
     138A     62.812589  

    Final Occupation by Irrep:
              A 
    DOCC [     5 ]
    NA   [     5 ]
    NB   [     5 ]

  @DF-RHF Final Energy:   -99.45086598850317

   => Energetics <=

    Nuclear Repulsion Energy =              0.0000000000000000
    One-Electron Energy =                -143.9963896860294881
    Two-Electron Energy =                  44.5455236975263205
    Total Energy =                        -99.4508659885031676

Computation Completed


Properties will be evaluated at   0.000000,   0.000000,   0.000000 [a0]

Properties computed using the SCF density matrix


 Multipole Moments:

 ------------------------------------------------------------------------------------
     Multipole            Electronic (a.u.)      Nuclear  (a.u.)        Total (a.u.)
 ------------------------------------------------------------------------------------

 L = 1.  Multiply by 2.5417464519 to convert [e a0] to [Debye]
 Dipole X            :        -45.8524033           41.2668962           -4.5855072
 Dipole Y            :         -0.0000713            0.0000000           -0.0000713
 Dipole Z            :         -0.0001486            0.0000000           -0.0001486
 Magnitude           :                                                    4.5855072

 ------------------------------------------------------------------------------------

*** tstop() called on moses-razer at Wed Jan  3 15:02:42 2024
Module time:
	user time   =       2.54 seconds =       0.04 minutes
	system time =       0.07 seconds =       0.00 minutes
	total time  =          0 seconds =       0.00 minutes
Total time:
	user time   =       2.54 seconds =       0.04 minutes
	system time =       0.07 seconds =       0.00 minutes
	total time  =          0 seconds =       0.00 minutes

*** tstart() called on moses-razer
*** at Wed Jan  3 15:02:42 2024


  //>>>>>>>>>>>>>>>>>>>>>>>>>>>>>>>>>>>//
  //               DFMP2               //
  //<<<<<<<<<<<<<<<<<<<<<<<<<<<<<<<<<<<//

   => Loading Basis Set <=

    Name: (AUG-CC-PVTZ AUX)
    Role: RIFIT
    Keyword: DF_BASIS_MP2
    atoms 1   entry O          line   264 file /home/kchung25/anaconda3/envs/p415env/share/psi4/basis/aug-cc-pvtz-ri.gbs 
    atoms 2-3 entry H          line    30 file /home/kchung25/anaconda3/envs/p415env/share/psi4/basis/aug-cc-pvtz-ri.gbs 
    atoms 4   entry F          line   322 file /home/kchung25/anaconda3/envs/p415env/share/psi4/basis/aug-cc-pvtz-ri.gbs 

	 --------------------------------------------------------
	                          DF-MP2                         
	      2nd-Order Density-Fitted Moller-Plesset Theory     
	              RMP2 Wavefunction,   6 Threads             
	                                                         
	        Rob Parrish, Justin Turney, Andy Simmonett,      
	           Ed Hohenstein, and C. David Sherrill          
	 --------------------------------------------------------

   => Auxiliary Basis Set <=

  Basis Set: (AUG-CC-PVTZ AUX)
    Blend: AUG-CC-PVTZ-RI
    Number of shells: 84
    Number of basis functions: 304
    Number of Cartesian functions: 382
    Spherical Harmonics?: true
    Max angular momentum: 4

	 --------------------------------------------------------
	                 NBF =   138, NAUX =   304
	 --------------------------------------------------------
	   CLASS    FOCC     OCC    AOCC    AVIR     VIR    FVIR
	   PAIRS       0       5       5     133     133       0
	 --------------------------------------------------------

	-----------------------------------------------------------
	 ==================> DF-MP2 Energies <==================== 
	-----------------------------------------------------------
	 Reference Energy          =     -99.4508659885031676 [Eh]
	 Singles Energy            =      -0.0000000000000000 [Eh]
	 Same-Spin Energy          =      -0.0816527136198144 [Eh]
	 Opposite-Spin Energy      =      -0.2268569888641005 [Eh]
	 Correlation Energy        =      -0.3085097024839150 [Eh]
	 Total Energy              =     -99.7593756909870848 [Eh]
	-----------------------------------------------------------
	 ================> DF-SCS-MP2 Energies <================== 
	-----------------------------------------------------------
	 SCS Same-Spin Scale       =       0.3333333333333333 [-]
	 SCS Opposite-Spin Scale   =       1.2000000000000000 [-]
	 SCS Same-Spin Energy      =      -0.0272175712066048 [Eh]
	 SCS Opposite-Spin Energy  =      -0.2722283866369206 [Eh]
	 SCS Correlation Energy    =      -0.2994459578435255 [Eh]
	 SCS Total Energy          =     -99.7503119463466987 [Eh]
	-----------------------------------------------------------


*** tstop() called on moses-razer at Wed Jan  3 15:02:42 2024
Module time:
	user time   =       0.73 seconds =       0.01 minutes
	system time =       0.03 seconds =       0.00 minutes
	total time  =          0 seconds =       0.00 minutes
Total time:
	user time   =       3.27 seconds =       0.05 minutes
	system time =       0.10 seconds =       0.00 minutes
	total time  =          0 seconds =       0.00 minutes

    Psi4 stopped on: Wednesday, 03 January 2024 03:02PM
    Psi4 wall time for execution: 0:00:00.62


    -----------------------------------------------------------------------
          Psi4: An Open-Source Ab Initio Electronic Structure Package
                               Psi4 1.9 release

                         Git: Rev {} zzzzzzz 


    D. G. A. Smith, L. A. Burns, A. C. Simmonett, R. M. Parrish,
    M. C. Schieber, R. Galvelis, P. Kraus, H. Kruse, R. Di Remigio,
    A. Alenaizan, A. M. James, S. Lehtola, J. P. Misiewicz, M. Scheurer,
    R. A. Shaw, J. B. Schriber, Y. Xie, Z. L. Glick, D. A. Sirianni,
    J. S. O'Brien, J. M. Waldrop, A. Kumar, E. G. Hohenstein,
    B. P. Pritchard, B. R. Brooks, H. F. Schaefer III, A. Yu. Sokolov,
    K. Patkowski, A. E. DePrince III, U. Bozkaya, R. A. King,
    F. A. Evangelista, J. M. Turney, T. D. Crawford, C. D. Sherrill,
    J. Chem. Phys. 152(18) 184108 (2020). https://doi.org/10.1063/5.0006002

                            Additional Code Authors
    E. T. Seidl, C. L. Janssen, E. F. Valeev, M. L. Leininger,
    J. F. Gonthier, R. M. Richard, H. R. McAlexander, M. Saitow, X. Wang,
    P. Verma, M. H. Lechner, A. Jiang, S. Behnle, A. G. Heide,
    M. F. Herbst, and D. L. Poole

             Previous Authors, Complete List of Code Contributors,
                       and Citations for Specific Modules
    https://github.com/psi4/psi4/blob/master/codemeta.json
    https://github.com/psi4/psi4/graphs/contributors
    http://psicode.org/psi4manual/master/introduction.html#citing-psifour

    -----------------------------------------------------------------------


    Psi4 started on: Wednesday, 03 January 2024 03:02PM

    Process ID: 406611
    Host:       moses-razer
    PSIDATADIR: /home/kchung25/anaconda3/envs/psi4_19/share/psi4
    Memory:     55.9 GiB
    Threads:    6
    
  ==> Input QCSchema <==

--------------------------------------------------------------------------
{'driver': 'energy',
 'extras': {'psiapi': True, 'wfn_qcvars_only': True},
 'id': None,
 'keywords': {'SCF_TYPE': 'DF', 'function_kwargs': {}},
 'model': {'basis': 'aug-cc-pvtz', 'method': 'mp2'},
 'molecule': {'atom_labels': ['', '', '', ''],
              'atomic_numbers': [8, 1, 1, 9],
              'extras': {},
              'fix_com': True,
              'fix_orientation': True,
              'fix_symmetry': 'c1',
              'fragment_charges': [0.0, 0.0],
              'fragment_multiplicities': [1, 1],
              'fragments': [[0, 1, 2], [3]],
              'geometry': [0.0, 0.0, 0.0, -1.1989896526282315, 0.631884732104463, 1.1989896526282315,
                           0.7507182697777531, 1.7000939984942605, -0.7507182697777531, 4.585210683823494, 0.0, 0.0],
              'mass_numbers': [16, 1, 1, 19],
              'masses': [15.99491461957, 1.00782503223, 1.00782503223, 18.99840316273],
              'molecular_charge': 0.0,
              'molecular_multiplicity': 1,
              'name': 'dimer',
              'provenance': {'creator': 'QCElemental',
                             'routine': 'qcelemental.molparse.from_string',
                             'version': '0.27.1'},
              'real': [True, True, True, False],
              'schema_name': 'qcschema_molecule',
              'schema_version': 2,
              'symbols': ['O', 'H', 'H', 'F'],
              'validated': True},
 'protocols': {'stdout': True},
 'provenance': {'creator': 'QCElemental', 'routine': 'qcelemental.models.results', 'version': '0.27.1'},
 'schema_name': 'qcschema_input',
 'schema_version': 1}
--------------------------------------------------------------------------

Scratch directory: /scratch/
   => Libint2 <=

    Primary   basis highest AM E, G, H:  5, 4, 3
    Auxiliary basis highest AM E, G, H:  6, 5, 4
    Onebody   basis highest AM E, G, H:  6, 5, 4
    Solid Harmonics ordering:            gaussian

*** tstart() called on moses-razer
*** at Wed Jan  3 15:02:42 2024

   => Loading Basis Set <=

    Name: AUG-CC-PVTZ
    Role: ORBITAL
    Keyword: BASIS
    atoms 1   entry O          line   331 file /home/kchung25/anaconda3/envs/p415env/share/psi4/basis/aug-cc-pvtz.gbs 
    atoms 2-3 entry H          line    40 file /home/kchung25/anaconda3/envs/p415env/share/psi4/basis/aug-cc-pvtz.gbs 
    atoms 4   entry F          line   377 file /home/kchung25/anaconda3/envs/p415env/share/psi4/basis/aug-cc-pvtz.gbs 


         ---------------------------------------------------------
                                   SCF
               by Justin Turney, Rob Parrish, Andy Simmonett
                          and Daniel G. A. Smith
                              RHF Reference
                        6 Threads,  57220 MiB Core
         ---------------------------------------------------------

  ==> Geometry <==

    Molecular point group: c1
    Full point group: C1

    Geometry (in Bohr), charge = 0, multiplicity = 1:

       Center              X                  Y                   Z               Mass       
    ------------   -----------------  -----------------  -----------------  -----------------
         O            0.000000000000     0.000000000000     0.000000000000    15.994914619570
         H           -1.198989652628     0.631884732104     1.198989652628     1.007825032230
         H            0.750718269778     1.700093998494    -0.750718269778     1.007825032230
      Gh(F)           4.585210683823     0.000000000000     0.000000000000    18.998403162730

  Running in c1 symmetry.

  Rotational constants: A =     11.31302  B =      0.14928  C =      0.14866 [cm^-1]
  Rotational constants: A = 339155.72915  B =   4475.17727  C =   4456.70872 [MHz]
  Nuclear repulsion =    8.750488468812405

  Charge       = 0
  Multiplicity = 1
  Electrons    = 10
  Nalpha       = 5
  Nbeta        = 5

  ==> Algorithm <==

  SCF Algorithm Type is DF.
  DIIS enabled.
  MOM disabled.
  Fractional occupation disabled.
  Guess Type is SAD.
  Energy threshold   = 1.00e-08
  Density threshold  = 1.00e-08
  Integral threshold = 1.00e-12

  ==> Primary Basis <==

  Basis Set: AUG-CC-PVTZ
    Blend: AUG-CC-PVTZ
    Number of shells: 46
    Number of basis functions: 138
    Number of Cartesian functions: 160
    Spherical Harmonics?: true
    Max angular momentum: 3

   => Loading Basis Set <=

    Name: (AUG-CC-PVTZ AUX)
    Role: JKFIT
    Keyword: DF_BASIS_SCF
    atoms 1   entry O          line   286 file /home/kchung25/anaconda3/envs/p415env/share/psi4/basis/aug-cc-pvtz-jkfit.gbs 
    atoms 2-3 entry H          line    70 file /home/kchung25/anaconda3/envs/p415env/share/psi4/basis/aug-cc-pvtz-jkfit.gbs 
    atoms 4   entry F          line   348 file /home/kchung25/anaconda3/envs/p415env/share/psi4/basis/aug-cc-pvtz-jkfit.gbs 

  ==> Integral Setup <==

  DFHelper Memory: AOs need 0.048 GiB; user supplied 41.910 GiB. 
  Using in-core AOs.

  ==> MemDFJK: Density-Fitted J/K Matrices <==

    J tasked:                   Yes
    K tasked:                   Yes
    wK tasked:                   No
    OpenMP threads:               6
    Memory [MiB]:             42915
    Algorithm:                 Core
    Schwarz Cutoff:           1E-12
    Mask sparsity (%):       0.3466
    Fitting Condition:        1E-10

   => Auxiliary Basis Set <=

  Basis Set: (AUG-CC-PVTZ AUX)
    Blend: AUG-CC-PVTZ-JKFIT
    Number of shells: 88
    Number of basis functions: 300
    Number of Cartesian functions: 372
    Spherical Harmonics?: true
    Max angular momentum: 4

  Minimum eigenvalue in the overlap matrix is 3.2331812096E-04.
  Reciprocal condition number of the overlap matrix is 4.4634663915E-05.
    Using symmetric orthogonalization.

  ==> Pre-Iterations <==

  SCF Guess: Superposition of Atomic Densities via on-the-fly atomic UHF (no occupation information).

   -------------------------
    Irrep   Nso     Nmo    
   -------------------------
     A        138     138 
   -------------------------
    Total     138     138
   -------------------------

  ==> Iterations <==

                           Total Energy        Delta E     RMS |[F,P]|

   @DF-RHF iter SAD:   -75.41814220241849   -7.54181e+01   0.00000e+00 
   @DF-RHF iter   1:   -75.95994552371478   -5.41803e-01   3.39444e-03 ADIIS/DIIS
   @DF-RHF iter   2:   -76.01150534975375   -5.15598e-02   2.46305e-03 ADIIS/DIIS
   @DF-RHF iter   3:   -76.04807175492905   -3.65664e-02   1.69631e-04 ADIIS/DIIS
   @DF-RHF iter   4:   -76.04856249424884   -4.90739e-04   4.57440e-05 DIIS
   @DF-RHF iter   5:   -76.04860336483543   -4.08706e-05   1.12459e-05 DIIS
   @DF-RHF iter   6:   -76.04860714375319   -3.77892e-06   2.44638e-06 DIIS
   @DF-RHF iter   7:   -76.04860733092184   -1.87169e-07   4.06670e-07 DIIS
   @DF-RHF iter   8:   -76.04860733527451   -4.35267e-09   7.62457e-08 DIIS
   @DF-RHF iter   9:   -76.04860733540804   -1.33525e-10   2.16697e-08 DIIS
   @DF-RHF iter  10:   -76.04860733541882   -1.07860e-11   4.12795e-09 DIIS
  Energy and wave function converged.


  ==> Post-Iterations <==

    Orbital Energies [Eh]
    ---------------------

    Doubly Occupied:                                                      

       1A    -20.576833     2A     -1.332637     3A     -0.686415  
       4A     -0.579394     5A     -0.507552  

    Virtual:                                                              

       6A      0.027947     7A      0.047373     8A      0.120960  
       9A      0.133880    10A      0.162696    11A      0.181580  
      12A      0.187858    13A      0.200174    14A      0.204336  
      15A      0.243247    16A      0.258649    17A      0.281937  
      18A      0.311668    19A      0.326974    20A      0.373654  
      21A      0.399364    22A      0.422274    23A      0.459036  
      24A      0.597227    25A      0.655474    26A      0.677297  
      27A      0.707653    28A      0.734735    29A      0.791027  
      30A      0.799641    31A      0.806765    32A      0.830765  
      33A      0.845282    34A      0.896509    35A      0.912048  
      36A      0.921859    37A      0.924622    38A      0.947308  
      39A      0.955656    40A      0.980260    41A      1.022610  
      42A      1.035935    43A      1.053811    44A      1.076418  
      45A      1.132859    46A      1.166784    47A      1.184468  
      48A      1.209545    49A      1.249749    50A      1.286301  
      51A      1.377537    52A      1.527805    53A      1.550354  
      54A      1.568170    55A      1.648043    56A      1.799602  
      57A      1.858591    58A      1.927388    59A      2.132734  
      60A      2.265611    61A      2.321963    62A      2.350557  
      63A      2.421574    64A      2.439550    65A      2.476856  
      66A      2.524951    67A      2.708846    68A      2.730253  
      69A      2.764084    70A      2.818525    71A      2.843980  
      72A      3.046857    73A      3.055918    74A      3.097333  
      75A      3.102479    76A      3.121576    77A      3.152251  
      78A      3.175287    79A      3.203316    80A      3.235305  
      81A      3.278560    82A      3.498982    83A      3.589547  
      84A      3.594094    85A      3.624641    86A      3.668823  
      87A      3.766441    88A      3.802506    89A      3.898922  
      90A      4.086667    91A      4.133618    92A      4.184169  
      93A      4.276919    94A      4.354601    95A      4.390019  
      96A      4.447929    97A      4.514245    98A      4.569008  
      99A      4.680088   100A      4.825036   101A      5.002071  
     102A      5.035703   103A      5.170572   104A      5.319117  
     105A      5.465781   106A      5.583851   107A      6.198554  
     108A      6.551675   109A      6.742211   110A      6.857932  
     111A      7.031741   112A      7.197552   113A      7.244887  
     114A      7.326464   115A      7.358052   116A      7.397348  
     117A      7.496943   118A      7.810025   119A      7.907483  
     120A      8.565466   121A      9.679596   122A     10.168272  
     123A     10.169837   124A     10.200998   125A     10.205586  
     126A     10.250981   127A     10.313113   128A     10.414663  
     129A     12.972482   130A     12.976047   131A     13.022340  
     132A     13.057025   133A     13.093201   134A     14.250195  
     135A     14.289205   136A     14.537321   137A     14.841126  
     138A     67.863784  

    Final Occupation by Irrep:
              A 
    DOCC [     5 ]
    NA   [     5 ]
    NB   [     5 ]

  @DF-RHF Final Energy:   -76.04860733541882

   => Energetics <=

    Nuclear Repulsion Energy =              8.7504884688124047
    One-Electron Energy =                -122.2325290644667035
    Two-Electron Energy =                  37.4334332602354678
    Total Energy =                        -76.0486073354188363

Computation Completed


Properties will be evaluated at   0.000000,   0.000000,   0.000000 [a0]

Properties computed using the SCF density matrix


 Multipole Moments:

 ------------------------------------------------------------------------------------
     Multipole            Electronic (a.u.)      Nuclear  (a.u.)        Total (a.u.)
 ------------------------------------------------------------------------------------

 L = 1.  Multiply by 2.5417464519 to convert [e a0] to [Debye]
 Dipole X            :          0.2836569           -0.4482714           -0.1646145
 Dipole Y            :         -1.5496292            2.3319787            0.7823495
 Dipole Z            :         -0.2837383            0.4482714            0.1645331
 Magnitude           :                                                    0.8162352

 ------------------------------------------------------------------------------------

*** tstop() called on moses-razer at Wed Jan  3 15:02:43 2024
Module time:
	user time   =       2.41 seconds =       0.04 minutes
	system time =       0.03 seconds =       0.00 minutes
	total time  =          1 seconds =       0.02 minutes
Total time:
	user time   =       5.92 seconds =       0.10 minutes
	system time =       0.14 seconds =       0.00 minutes
	total time  =          1 seconds =       0.02 minutes

*** tstart() called on moses-razer
*** at Wed Jan  3 15:02:43 2024


  //>>>>>>>>>>>>>>>>>>>>>>>>>>>>>>>>>>>//
  //               DFMP2               //
  //<<<<<<<<<<<<<<<<<<<<<<<<<<<<<<<<<<<//

   => Loading Basis Set <=

    Name: (AUG-CC-PVTZ AUX)
    Role: RIFIT
    Keyword: DF_BASIS_MP2
    atoms 1   entry O          line   264 file /home/kchung25/anaconda3/envs/p415env/share/psi4/basis/aug-cc-pvtz-ri.gbs 
    atoms 2-3 entry H          line    30 file /home/kchung25/anaconda3/envs/p415env/share/psi4/basis/aug-cc-pvtz-ri.gbs 
    atoms 4   entry F          line   322 file /home/kchung25/anaconda3/envs/p415env/share/psi4/basis/aug-cc-pvtz-ri.gbs 

	 --------------------------------------------------------
	                          DF-MP2                         
	      2nd-Order Density-Fitted Moller-Plesset Theory     
	              RMP2 Wavefunction,   6 Threads             
	                                                         
	        Rob Parrish, Justin Turney, Andy Simmonett,      
	           Ed Hohenstein, and C. David Sherrill          
	 --------------------------------------------------------

   => Auxiliary Basis Set <=

  Basis Set: (AUG-CC-PVTZ AUX)
    Blend: AUG-CC-PVTZ-RI
    Number of shells: 84
    Number of basis functions: 304
    Number of Cartesian functions: 382
    Spherical Harmonics?: true
    Max angular momentum: 4

	 --------------------------------------------------------
	                 NBF =   138, NAUX =   304
	 --------------------------------------------------------
	   CLASS    FOCC     OCC    AOCC    AVIR     VIR    FVIR
	   PAIRS       0       5       5     133     133       0
	 --------------------------------------------------------

	-----------------------------------------------------------
	 ==================> DF-MP2 Energies <==================== 
	-----------------------------------------------------------
	 Reference Energy          =     -76.0486073354188221 [Eh]
	 Singles Energy            =      -0.0000000000000000 [Eh]
	 Same-Spin Energy          =      -0.0692906516093053 [Eh]
	 Opposite-Spin Energy      =      -0.2184180623260368 [Eh]
	 Correlation Energy        =      -0.2877087139353420 [Eh]
	 Total Energy              =     -76.3363160493541670 [Eh]
	-----------------------------------------------------------
	 ================> DF-SCS-MP2 Energies <================== 
	-----------------------------------------------------------
	 SCS Same-Spin Scale       =       0.3333333333333333 [-]
	 SCS Opposite-Spin Scale   =       1.2000000000000000 [-]
	 SCS Same-Spin Energy      =      -0.0230968838697684 [Eh]
	 SCS Opposite-Spin Energy  =      -0.2621016747912441 [Eh]
	 SCS Correlation Energy    =      -0.2851985586610126 [Eh]
	 SCS Total Energy          =     -76.3338058940798305 [Eh]
	-----------------------------------------------------------


*** tstop() called on moses-razer at Wed Jan  3 15:02:43 2024
Module time:
	user time   =       0.77 seconds =       0.01 minutes
	system time =       0.02 seconds =       0.00 minutes
	total time  =          0 seconds =       0.00 minutes
Total time:
	user time   =       6.70 seconds =       0.11 minutes
	system time =       0.16 seconds =       0.00 minutes
	total time  =          1 seconds =       0.02 minutes

    Psi4 stopped on: Wednesday, 03 January 2024 03:02PM
    Psi4 wall time for execution: 0:00:00.57


    -----------------------------------------------------------------------
          Psi4: An Open-Source Ab Initio Electronic Structure Package
                               Psi4 1.9 release

                         Git: Rev {} zzzzzzz 


    D. G. A. Smith, L. A. Burns, A. C. Simmonett, R. M. Parrish,
    M. C. Schieber, R. Galvelis, P. Kraus, H. Kruse, R. Di Remigio,
    A. Alenaizan, A. M. James, S. Lehtola, J. P. Misiewicz, M. Scheurer,
    R. A. Shaw, J. B. Schriber, Y. Xie, Z. L. Glick, D. A. Sirianni,
    J. S. O'Brien, J. M. Waldrop, A. Kumar, E. G. Hohenstein,
    B. P. Pritchard, B. R. Brooks, H. F. Schaefer III, A. Yu. Sokolov,
    K. Patkowski, A. E. DePrince III, U. Bozkaya, R. A. King,
    F. A. Evangelista, J. M. Turney, T. D. Crawford, C. D. Sherrill,
    J. Chem. Phys. 152(18) 184108 (2020). https://doi.org/10.1063/5.0006002

                            Additional Code Authors
    E. T. Seidl, C. L. Janssen, E. F. Valeev, M. L. Leininger,
    J. F. Gonthier, R. M. Richard, H. R. McAlexander, M. Saitow, X. Wang,
    P. Verma, M. H. Lechner, A. Jiang, S. Behnle, A. G. Heide,
    M. F. Herbst, and D. L. Poole

             Previous Authors, Complete List of Code Contributors,
                       and Citations for Specific Modules
    https://github.com/psi4/psi4/blob/master/codemeta.json
    https://github.com/psi4/psi4/graphs/contributors
    http://psicode.org/psi4manual/master/introduction.html#citing-psifour

    -----------------------------------------------------------------------


    Psi4 started on: Wednesday, 03 January 2024 03:02PM

    Process ID: 406611
    Host:       moses-razer
    PSIDATADIR: /home/kchung25/anaconda3/envs/psi4_19/share/psi4
    Memory:     55.9 GiB
    Threads:    6
    
  ==> Input QCSchema <==

--------------------------------------------------------------------------
{'driver': 'energy',
 'extras': {'psiapi': True, 'wfn_qcvars_only': True},
 'id': None,
 'keywords': {'SCF_TYPE': 'DF', 'function_kwargs': {}},
 'model': {'basis': 'aug-cc-pvtz', 'method': 'mp2'},
 'molecule': {'atom_labels': ['', '', '', ''],
              'atomic_numbers': [8, 1, 1, 9],
              'extras': {},
              'fix_com': True,
              'fix_orientation': True,
              'fix_symmetry': 'c1',
              'fragment_charges': [0.0, -1.0],
              'fragment_multiplicities': [1, 1],
              'fragments': [[0, 1, 2], [3]],
              'geometry': [0.0, 0.0, 0.0, -1.1989896526282315, 0.631884732104463, 1.1989896526282315,
                           0.7507182697777531, 1.7000939984942605, -0.7507182697777531, 4.585210683823494, 0.0, 0.0],
              'mass_numbers': [16, 1, 1, 19],
              'masses': [15.99491461957, 1.00782503223, 1.00782503223, 18.99840316273],
              'molecular_charge': -1.0,
              'molecular_multiplicity': 1,
              'name': 'dimer',
              'provenance': {'creator': 'QCElemental',
                             'routine': 'qcelemental.molparse.from_string',
                             'version': '0.27.1'},
              'real': [True, True, True, True],
              'schema_name': 'qcschema_molecule',
              'schema_version': 2,
              'symbols': ['O', 'H', 'H', 'F'],
              'validated': True},
 'protocols': {'stdout': True},
 'provenance': {'creator': 'QCElemental', 'routine': 'qcelemental.models.results', 'version': '0.27.1'},
 'schema_name': 'qcschema_input',
 'schema_version': 1}
--------------------------------------------------------------------------

Scratch directory: /scratch/
   => Libint2 <=

    Primary   basis highest AM E, G, H:  5, 4, 3
    Auxiliary basis highest AM E, G, H:  6, 5, 4
    Onebody   basis highest AM E, G, H:  6, 5, 4
    Solid Harmonics ordering:            gaussian

*** tstart() called on moses-razer
*** at Wed Jan  3 15:02:43 2024

   => Loading Basis Set <=

    Name: AUG-CC-PVTZ
    Role: ORBITAL
    Keyword: BASIS
    atoms 1   entry O          line   331 file /home/kchung25/anaconda3/envs/p415env/share/psi4/basis/aug-cc-pvtz.gbs 
    atoms 2-3 entry H          line    40 file /home/kchung25/anaconda3/envs/p415env/share/psi4/basis/aug-cc-pvtz.gbs 
    atoms 4   entry F          line   377 file /home/kchung25/anaconda3/envs/p415env/share/psi4/basis/aug-cc-pvtz.gbs 


         ---------------------------------------------------------
                                   SCF
               by Justin Turney, Rob Parrish, Andy Simmonett
                          and Daniel G. A. Smith
                              RHF Reference
                        6 Threads,  57220 MiB Core
         ---------------------------------------------------------

  ==> Geometry <==

    Molecular point group: c1
    Full point group: C1

    Geometry (in Bohr), charge = -1, multiplicity = 1:

       Center              X                  Y                   Z               Mass       
    ------------   -----------------  -----------------  -----------------  -----------------
         O            0.000000000000     0.000000000000     0.000000000000    15.994914619570
         H           -1.198989652628     0.631884732104     1.198989652628     1.007825032230
         H            0.750718269778     1.700093998494    -0.750718269778     1.007825032230
         F            4.585210683823     0.000000000000     0.000000000000    18.998403162730

  Running in c1 symmetry.

  Rotational constants: A =     11.31302  B =      0.14928  C =      0.14866 [cm^-1]
  Rotational constants: A = 339155.72915  B =   4475.17727  C =   4456.70872 [MHz]
  Nuclear repulsion =   28.080195224636373

  Charge       = -1
  Multiplicity = 1
  Electrons    = 20
  Nalpha       = 10
  Nbeta        = 10

  ==> Algorithm <==

  SCF Algorithm Type is DF.
  DIIS enabled.
  MOM disabled.
  Fractional occupation disabled.
  Guess Type is SAD.
  Energy threshold   = 1.00e-08
  Density threshold  = 1.00e-08
  Integral threshold = 1.00e-12

  ==> Primary Basis <==

  Basis Set: AUG-CC-PVTZ
    Blend: AUG-CC-PVTZ
    Number of shells: 46
    Number of basis functions: 138
    Number of Cartesian functions: 160
    Spherical Harmonics?: true
    Max angular momentum: 3

   => Loading Basis Set <=

    Name: (AUG-CC-PVTZ AUX)
    Role: JKFIT
    Keyword: DF_BASIS_SCF
    atoms 1   entry O          line   286 file /home/kchung25/anaconda3/envs/p415env/share/psi4/basis/aug-cc-pvtz-jkfit.gbs 
    atoms 2-3 entry H          line    70 file /home/kchung25/anaconda3/envs/p415env/share/psi4/basis/aug-cc-pvtz-jkfit.gbs 
    atoms 4   entry F          line   348 file /home/kchung25/anaconda3/envs/p415env/share/psi4/basis/aug-cc-pvtz-jkfit.gbs 

  ==> Integral Setup <==

  DFHelper Memory: AOs need 0.048 GiB; user supplied 41.910 GiB. 
  Using in-core AOs.

  ==> MemDFJK: Density-Fitted J/K Matrices <==

    J tasked:                   Yes
    K tasked:                   Yes
    wK tasked:                   No
    OpenMP threads:               6
    Memory [MiB]:             42915
    Algorithm:                 Core
    Schwarz Cutoff:           1E-12
    Mask sparsity (%):       0.3466
    Fitting Condition:        1E-10

   => Auxiliary Basis Set <=

  Basis Set: (AUG-CC-PVTZ AUX)
    Blend: AUG-CC-PVTZ-JKFIT
    Number of shells: 88
    Number of basis functions: 300
    Number of Cartesian functions: 372
    Spherical Harmonics?: true
    Max angular momentum: 4

  Minimum eigenvalue in the overlap matrix is 3.2331812096E-04.
  Reciprocal condition number of the overlap matrix is 4.4634663915E-05.
    Using symmetric orthogonalization.

  ==> Pre-Iterations <==

  SCF Guess: Superposition of Atomic Densities via on-the-fly atomic UHF (no occupation information).

   -------------------------
    Irrep   Nso     Nmo    
   -------------------------
     A        138     138 
   -------------------------
    Total     138     138
   -------------------------

  ==> Iterations <==

                           Total Energy        Delta E     RMS |[F,P]|

   @DF-RHF iter SAD:  -174.28081370845587   -1.74281e+02   0.00000e+00 
   @DF-RHF iter   1:  -175.27302721479441   -9.92214e-01   5.28279e-03 ADIIS/DIIS
   @DF-RHF iter   2:  -175.36462189015563   -9.15947e-02   4.62056e-03 ADIIS/DIIS
   @DF-RHF iter   3:  -175.48341058009359   -1.18789e-01   2.80496e-04 ADIIS/DIIS
   @DF-RHF iter   4:  -175.48414700587054   -7.36426e-04   1.62230e-04 ADIIS/DIIS
   @DF-RHF iter   5:  -175.48435602668579   -2.09021e-04   3.50002e-05 DIIS
   @DF-RHF iter   6:  -175.48437703121292   -2.10045e-05   8.82312e-06 DIIS
   @DF-RHF iter   7:  -175.48437903560921   -2.00440e-06   2.12537e-06 DIIS
   @DF-RHF iter   8:  -175.48437918254305   -1.46934e-07   5.24903e-07 DIIS
   @DF-RHF iter   9:  -175.48437918961417   -7.07112e-09   1.02589e-07 DIIS
   @DF-RHF iter  10:  -175.48437918992545   -3.11275e-10   2.55169e-08 DIIS
   @DF-RHF iter  11:  -175.48437918994611   -2.06626e-11   6.37358e-09 DIIS
  Energy and wave function converged.


  ==> Post-Iterations <==

    Orbital Energies [Eh]
    ---------------------

    Doubly Occupied:                                                      

       1A    -25.828018     2A    -20.374488     3A     -1.131938  
       4A     -1.074658     5A     -0.483388     6A     -0.377208  
       7A     -0.307488     8A     -0.178875     9A     -0.178524  
      10A     -0.174369  

    Virtual:                                                              

      11A      0.143868    12A      0.173614    13A      0.277009  
      14A      0.298148    15A      0.316260    16A      0.350645  
      17A      0.385492    18A      0.406369    19A      0.418479  
      20A      0.442211    21A      0.458065    22A      0.488945  
      23A      0.501686    24A      0.538015    25A      0.539455  
      26A      0.591576    27A      0.628756    28A      0.689947  
      29A      0.797483    30A      0.846384    31A      0.891412  
      32A      0.918387    33A      0.944253    34A      1.008027  
      35A      1.052286    36A      1.085925    37A      1.093025  
      38A      1.106559    39A      1.123934    40A      1.138235  
      41A      1.174134    42A      1.206586    43A      1.215775  
      44A      1.238663    45A      1.261614    46A      1.280951  
      47A      1.372081    48A      1.376612    49A      1.402410  
      50A      1.414392    51A      1.445053    52A      1.463399  
      53A      1.496632    54A      1.583036    55A      1.655391  
      56A      1.721463    57A      1.792977    58A      1.815468  
      59A      1.954430    60A      1.996690    61A      2.069607  
      62A      2.123407    63A      2.271953    64A      2.405450  
      65A      2.492225    66A      2.537484    67A      2.570399  
      68A      2.622883    69A      2.641899    70A      2.725271  
      71A      2.751425    72A      2.915947    73A      2.928543  
      74A      2.988133    75A      3.032258    76A      3.075548  
      77A      3.298878    78A      3.303781    79A      3.323015  
      80A      3.328974    81A      3.334827    82A      3.339901  
      83A      3.391010    84A      3.408848    85A      3.436033  
      86A      3.514090    87A      3.544020    88A      3.754601  
      89A      3.837764    90A      3.975930    91A      4.251579  
      92A      4.333493    93A      4.367359    94A      4.444773  
      95A      4.536401    96A      4.574217    97A      4.643259  
      98A      4.703583    99A      4.711589   100A      4.872029  
     101A      5.016353   102A      5.198998   103A      5.229008  
     104A      5.369999   105A      5.504209   106A      5.639651  
     107A      5.728491   108A      5.754433   109A      5.789363  
     110A      6.072042   111A      6.399641   112A      6.764707  
     113A      6.946255   114A      7.060329   115A      7.237132  
     116A      7.399459   117A      7.449411   118A      7.528099  
     119A      7.558872   120A      7.600628   121A      7.696038  
     122A      8.011794   123A      8.109800   124A      8.764365  
     125A      9.278465   126A      9.280016   127A      9.309381  
     128A      9.314870   129A      9.356864   130A      9.413071  
     131A      9.482948   132A      9.780564   133A      9.784406  
     134A      9.838830   135A      9.887435   136A      9.949813  
     137A     11.881804   138A     14.928112  

    Final Occupation by Irrep:
              A 
    DOCC [    10 ]
    NA   [    10 ]
    NB   [    10 ]

  @DF-RHF Final Energy:  -175.48437918994611

   => Energetics <=

    Nuclear Repulsion Energy =             28.0801952246363733
    One-Electron Energy =                -306.9112431059249957
    Two-Electron Energy =                 103.3466686913424724
    Total Energy =                       -175.4843791899461394

Computation Completed


Properties will be evaluated at   0.000000,   0.000000,   0.000000 [a0]

Properties computed using the SCF density matrix


 Multipole Moments:

 ------------------------------------------------------------------------------------
     Multipole            Electronic (a.u.)      Nuclear  (a.u.)        Total (a.u.)
 ------------------------------------------------------------------------------------

 L = 1.  Multiply by 2.5417464519 to convert [e a0] to [Debye]
 Dipole X            :        -45.2750885           40.8186248           -4.4564637
 Dipole Y            :         -1.6319950            2.3319787            0.6999838
 Dipole Z            :         -0.2824953            0.4482714            0.1657761
 Magnitude           :                                                    4.5141475

 ------------------------------------------------------------------------------------

*** tstop() called on moses-razer at Wed Jan  3 15:02:43 2024
Module time:
	user time   =       2.83 seconds =       0.05 minutes
	system time =       0.04 seconds =       0.00 minutes
	total time  =          0 seconds =       0.00 minutes
Total time:
	user time   =       9.78 seconds =       0.16 minutes
	system time =       0.21 seconds =       0.00 minutes
	total time  =          1 seconds =       0.02 minutes

*** tstart() called on moses-razer
*** at Wed Jan  3 15:02:43 2024


  //>>>>>>>>>>>>>>>>>>>>>>>>>>>>>>>>>>>//
  //               DFMP2               //
  //<<<<<<<<<<<<<<<<<<<<<<<<<<<<<<<<<<<//

   => Loading Basis Set <=

    Name: (AUG-CC-PVTZ AUX)
    Role: RIFIT
    Keyword: DF_BASIS_MP2
    atoms 1   entry O          line   264 file /home/kchung25/anaconda3/envs/p415env/share/psi4/basis/aug-cc-pvtz-ri.gbs 
    atoms 2-3 entry H          line    30 file /home/kchung25/anaconda3/envs/p415env/share/psi4/basis/aug-cc-pvtz-ri.gbs 
    atoms 4   entry F          line   322 file /home/kchung25/anaconda3/envs/p415env/share/psi4/basis/aug-cc-pvtz-ri.gbs 

	 --------------------------------------------------------
	                          DF-MP2                         
	      2nd-Order Density-Fitted Moller-Plesset Theory     
	              RMP2 Wavefunction,   6 Threads             
	                                                         
	        Rob Parrish, Justin Turney, Andy Simmonett,      
	           Ed Hohenstein, and C. David Sherrill          
	 --------------------------------------------------------

   => Auxiliary Basis Set <=

  Basis Set: (AUG-CC-PVTZ AUX)
    Blend: AUG-CC-PVTZ-RI
    Number of shells: 84
    Number of basis functions: 304
    Number of Cartesian functions: 382
    Spherical Harmonics?: true
    Max angular momentum: 4

	 --------------------------------------------------------
	                 NBF =   138, NAUX =   304
	 --------------------------------------------------------
	   CLASS    FOCC     OCC    AOCC    AVIR     VIR    FVIR
	   PAIRS       0      10      10     128     128       0
	 --------------------------------------------------------

	-----------------------------------------------------------
	 ==================> DF-MP2 Energies <==================== 
	-----------------------------------------------------------
	 Reference Energy          =    -175.4843791899461110 [Eh]
	 Singles Energy            =      -0.0000000000000000 [Eh]
	 Same-Spin Energy          =      -0.1529662829691819 [Eh]
	 Opposite-Spin Energy      =      -0.4475264095850443 [Eh]
	 Correlation Energy        =      -0.6004926925542262 [Eh]
	 Total Energy              =    -176.0848718825003232 [Eh]
	-----------------------------------------------------------
	 ================> DF-SCS-MP2 Energies <================== 
	-----------------------------------------------------------
	 SCS Same-Spin Scale       =       0.3333333333333333 [-]
	 SCS Opposite-Spin Scale   =       1.2000000000000000 [-]
	 SCS Same-Spin Energy      =      -0.0509887609897273 [Eh]
	 SCS Opposite-Spin Energy  =      -0.5370316915020531 [Eh]
	 SCS Correlation Energy    =      -0.5880204524917804 [Eh]
	 SCS Total Energy          =    -176.0723996424378868 [Eh]
	-----------------------------------------------------------


*** tstop() called on moses-razer at Wed Jan  3 15:02:44 2024
Module time:
	user time   =       0.89 seconds =       0.01 minutes
	system time =       0.04 seconds =       0.00 minutes
	total time  =          1 seconds =       0.02 minutes
Total time:
	user time   =      10.68 seconds =       0.18 minutes
	system time =       0.25 seconds =       0.00 minutes
	total time  =          2 seconds =       0.03 minutes

    Psi4 stopped on: Wednesday, 03 January 2024 03:02PM
    Psi4 wall time for execution: 0:00:00.66


  //>>>>>>>>>>>>>>>>>>>>>>>>>>>>>>>>>>>//
  //          ManyBody Results         //
  //<<<<<<<<<<<<<<<<<<<<<<<<<<<<<<<<<<<//


   ==> N-Body: Counterpoise Corrected (CP) energies <==

        n-Body     Total Energy            Interaction Energy                          N-body Contribution to Interaction Energy
                   [Eh]                    [Eh]                  [kcal/mol]            [Eh]                  [kcal/mol]
             1  N/A                         0.000000000000        0.000000000000        0.000000000000        0.000000000000
  FULL/RTN   2  N/A                         0.010819857841        6.789563300100        0.010819857841        6.789563300100


    Psi4 stopped on: Wednesday, 03 January 2024 03:02PM
    Psi4 wall time for execution: 0:00:03.39

*** Psi4 exiting successfully. Buy a developer a beer!
