
    -----------------------------------------------------------------------
          Psi4: An Open-Source Ab Initio Electronic Structure Package
                               Psi4 1.9 release

                         Git: Rev {} zzzzzzz 


    D. G. A. Smith, L. A. Burns, A. C. Simmonett, R. M. Parrish,
    M. C. Schieber, R. Galvelis, P. Kraus, H. Kruse, R. Di Remigio,
    A. Alenaizan, A. M. James, S. Lehtola, J. P. Misiewicz, M. Scheurer,
    R. A. Shaw, J. B. Schriber, Y. Xie, Z. L. Glick, D. A. Sirianni,
    J. S. O'Brien, J. M. Waldrop, A. Kumar, E. G. Hohenstein,
    B. P. Pritchard, B. R. Brooks, H. F. Schaefer III, A. Yu. Sokolov,
    K. Patkowski, A. E. DePrince III, U. Bozkaya, R. A. King,
    F. A. Evangelista, J. M. Turney, T. D. Crawford, C. D. Sherrill,
    J. Chem. Phys. 152(18) 184108 (2020). https://doi.org/10.1063/5.0006002

                            Additional Code Authors
    E. T. Seidl, C. L. Janssen, E. F. Valeev, M. L. Leininger,
    J. F. Gonthier, R. M. Richard, H. R. McAlexander, M. Saitow, X. Wang,
    P. Verma, M. H. Lechner, A. Jiang, S. Behnle, A. G. Heide,
    M. F. Herbst, and D. L. Poole

             Previous Authors, Complete List of Code Contributors,
                       and Citations for Specific Modules
    https://github.com/psi4/psi4/blob/master/codemeta.json
    https://github.com/psi4/psi4/graphs/contributors
    http://psicode.org/psi4manual/master/introduction.html#citing-psifour

    -----------------------------------------------------------------------


    Psi4 started on: Wednesday, 03 January 2024 03:06PM

    Process ID: 407836
    Host:       moses-razer
    PSIDATADIR: /home/kchung25/anaconda3/envs/psi4_19/share/psi4
    Memory:     500.0 MiB
    Threads:    6
    
  ==> Input File <==

--------------------------------------------------------------------------
MEMORY 60 GB

molecule dimer {
0 1
O      0.000000     0.000000     0.000000
H      0.124276     0.941808    -0.124276
H      0.650104    -0.362740    -0.650104
--
-1 1
Cl     3.070352     0.000000     0.000000

units ang
no_reorient
no_com
symmetry c1
}

set {
basis        aug-cc-pVTZ
scf_type     df
}

energy("mp2", bsse_type="cp")
--------------------------------------------------------------------------

  Memory set to  55.879 GiB by Python driver.

Scratch directory: /scratch/

  //>>>>>>>>>>>>>>>>>>>>>>>>>>>>>>>>>>>>>//
  // ManyBody Setup: N-Body Levels [1, 2]//
  //<<<<<<<<<<<<<<<<<<<<<<<<<<<<<<<<<<<<<//

        Number of 1-body computations:     2
        Number of 2-body computations:     1

    -----------------------------------------------------------------------
          Psi4: An Open-Source Ab Initio Electronic Structure Package
                               Psi4 1.9 release

                         Git: Rev {} zzzzzzz 


    D. G. A. Smith, L. A. Burns, A. C. Simmonett, R. M. Parrish,
    M. C. Schieber, R. Galvelis, P. Kraus, H. Kruse, R. Di Remigio,
    A. Alenaizan, A. M. James, S. Lehtola, J. P. Misiewicz, M. Scheurer,
    R. A. Shaw, J. B. Schriber, Y. Xie, Z. L. Glick, D. A. Sirianni,
    J. S. O'Brien, J. M. Waldrop, A. Kumar, E. G. Hohenstein,
    B. P. Pritchard, B. R. Brooks, H. F. Schaefer III, A. Yu. Sokolov,
    K. Patkowski, A. E. DePrince III, U. Bozkaya, R. A. King,
    F. A. Evangelista, J. M. Turney, T. D. Crawford, C. D. Sherrill,
    J. Chem. Phys. 152(18) 184108 (2020). https://doi.org/10.1063/5.0006002

                            Additional Code Authors
    E. T. Seidl, C. L. Janssen, E. F. Valeev, M. L. Leininger,
    J. F. Gonthier, R. M. Richard, H. R. McAlexander, M. Saitow, X. Wang,
    P. Verma, M. H. Lechner, A. Jiang, S. Behnle, A. G. Heide,
    M. F. Herbst, and D. L. Poole

             Previous Authors, Complete List of Code Contributors,
                       and Citations for Specific Modules
    https://github.com/psi4/psi4/blob/master/codemeta.json
    https://github.com/psi4/psi4/graphs/contributors
    http://psicode.org/psi4manual/master/introduction.html#citing-psifour

    -----------------------------------------------------------------------


    Psi4 started on: Wednesday, 03 January 2024 03:06PM

    Process ID: 407836
    Host:       moses-razer
    PSIDATADIR: /home/kchung25/anaconda3/envs/psi4_19/share/psi4
    Memory:     55.9 GiB
    Threads:    6
    
  ==> Input QCSchema <==

--------------------------------------------------------------------------
{'driver': 'energy',
 'extras': {'psiapi': True, 'wfn_qcvars_only': True},
 'id': None,
 'keywords': {'SCF_TYPE': 'DF', 'function_kwargs': {}},
 'model': {'basis': 'aug-cc-pvtz', 'method': 'mp2'},
 'molecule': {'atom_labels': ['', '', '', ''],
              'atomic_numbers': [8, 1, 1, 17],
              'extras': {},
              'fix_com': True,
              'fix_orientation': True,
              'fix_symmetry': 'c1',
              'fragment_charges': [0.0, -1.0],
              'fragment_multiplicities': [1, 1],
              'fragments': [[0, 1, 2], [3]],
              'geometry': [0.0, 0.0, 0.0, 0.23484760396739704, 1.7797591827651862, -0.23484760396739704,
                           1.2285185130646359, -0.6854792547485726, -1.2285185130646359, 5.802124388751694, 0.0, 0.0],
              'mass_numbers': [16, 1, 1, 35],
              'masses': [15.99491461957, 1.00782503223, 1.00782503223, 34.968852682],
              'molecular_charge': -1.0,
              'molecular_multiplicity': 1,
              'name': 'dimer',
              'provenance': {'creator': 'QCElemental',
                             'routine': 'qcelemental.molparse.from_string',
                             'version': '0.27.1'},
              'real': [False, False, False, True],
              'schema_name': 'qcschema_molecule',
              'schema_version': 2,
              'symbols': ['O', 'H', 'H', 'Cl'],
              'validated': True},
 'protocols': {'stdout': True},
 'provenance': {'creator': 'QCElemental', 'routine': 'qcelemental.models.results', 'version': '0.27.1'},
 'schema_name': 'qcschema_input',
 'schema_version': 1}
--------------------------------------------------------------------------

Scratch directory: /scratch/
   => Libint2 <=

    Primary   basis highest AM E, G, H:  5, 4, 3
    Auxiliary basis highest AM E, G, H:  6, 5, 4
    Onebody   basis highest AM E, G, H:  6, 5, 4
    Solid Harmonics ordering:            gaussian

*** tstart() called on moses-razer
*** at Wed Jan  3 15:06:46 2024

   => Loading Basis Set <=

    Name: AUG-CC-PVTZ
    Role: ORBITAL
    Keyword: BASIS
    atoms 1   entry O          line   331 file /home/kchung25/anaconda3/envs/p415env/share/psi4/basis/aug-cc-pvtz.gbs 
    atoms 2-3 entry H          line    40 file /home/kchung25/anaconda3/envs/p415env/share/psi4/basis/aug-cc-pvtz.gbs 
    atoms 4   entry CL         line   988 file /home/kchung25/anaconda3/envs/p415env/share/psi4/basis/aug-cc-pvtz.gbs 


         ---------------------------------------------------------
                                   SCF
               by Justin Turney, Rob Parrish, Andy Simmonett
                          and Daniel G. A. Smith
                              RHF Reference
                        6 Threads,  57220 MiB Core
         ---------------------------------------------------------

  ==> Geometry <==

    Molecular point group: c1
    Full point group: C1

    Geometry (in Bohr), charge = -1, multiplicity = 1:

       Center              X                  Y                   Z               Mass       
    ------------   -----------------  -----------------  -----------------  -----------------
      Gh(O)           0.000000000000     0.000000000000     0.000000000000    15.994914619570
      Gh(H)           0.234847603967     1.779759182765    -0.234847603967     1.007825032230
      Gh(H)           1.228518513065    -0.685479254749    -1.228518513065     1.007825032230
         CL           5.802124388752     0.000000000000     0.000000000000    34.968852682000

  Running in c1 symmetry.

  Rotational constants: A =     11.48789  B =      0.05100  C =      0.05091 [cm^-1]
  Rotational constants: A = 344398.33796  B =   1529.07399  C =   1526.15331 [MHz]
  Nuclear repulsion =    0.000000000000000

  Charge       = -1
  Multiplicity = 1
  Electrons    = 18
  Nalpha       = 9
  Nbeta        = 9

  ==> Algorithm <==

  SCF Algorithm Type is DF.
  DIIS enabled.
  MOM disabled.
  Fractional occupation disabled.
  Guess Type is SAD.
  Energy threshold   = 1.00e-08
  Density threshold  = 1.00e-08
  Integral threshold = 1.00e-12

  ==> Primary Basis <==

  Basis Set: AUG-CC-PVTZ
    Blend: AUG-CC-PVTZ
    Number of shells: 48
    Number of basis functions: 142
    Number of Cartesian functions: 164
    Spherical Harmonics?: true
    Max angular momentum: 3

   => Loading Basis Set <=

    Name: (AUG-CC-PVTZ AUX)
    Role: JKFIT
    Keyword: DF_BASIS_SCF
    atoms 1   entry O          line   286 file /home/kchung25/anaconda3/envs/p415env/share/psi4/basis/aug-cc-pvtz-jkfit.gbs 
    atoms 2-3 entry H          line    70 file /home/kchung25/anaconda3/envs/p415env/share/psi4/basis/aug-cc-pvtz-jkfit.gbs 
    atoms 4   entry CL         line   816 file /home/kchung25/anaconda3/envs/p415env/share/psi4/basis/aug-cc-pvtz-jkfit.gbs 

  ==> Integral Setup <==

  DFHelper Memory: AOs need 0.057 GiB; user supplied 41.910 GiB. 
  Using in-core AOs.

  ==> MemDFJK: Density-Fitted J/K Matrices <==

    J tasked:                   Yes
    K tasked:                   Yes
    wK tasked:                   No
    OpenMP threads:               6
    Memory [MiB]:             42915
    Algorithm:                 Core
    Schwarz Cutoff:           1E-12
    Mask sparsity (%):       0.0000
    Fitting Condition:        1E-10

   => Auxiliary Basis Set <=

  Basis Set: (AUG-CC-PVTZ AUX)
    Blend: AUG-CC-PVTZ-JKFIT
    Number of shells: 100
    Number of basis functions: 342
    Number of Cartesian functions: 421
    Spherical Harmonics?: true
    Max angular momentum: 4

  Minimum eigenvalue in the overlap matrix is 3.5187281583E-04.
  Reciprocal condition number of the overlap matrix is 4.6855637588E-05.
    Using symmetric orthogonalization.

  ==> Pre-Iterations <==

  SCF Guess: Superposition of Atomic Densities via on-the-fly atomic UHF (no occupation information).

   -------------------------
    Irrep   Nso     Nmo    
   -------------------------
     A        142     142 
   -------------------------
    Total     142     142
   -------------------------

  ==> Iterations <==

                           Total Energy        Delta E     RMS |[F,P]|

   @DF-RHF iter SAD:  -459.11248996297462   -4.59112e+02   0.00000e+00 
   @DF-RHF iter   1:  -459.51388995080293   -4.01400e-01   2.10011e-03 ADIIS/DIIS
   @DF-RHF iter   2:  -459.56474348209616   -5.08535e-02   1.07307e-03 ADIIS/DIIS
   @DF-RHF iter   3:  -459.57344055267447   -8.69707e-03   7.04550e-05 DIIS
   @DF-RHF iter   4:  -459.57349475214278   -5.41995e-05   1.45636e-05 DIIS
   @DF-RHF iter   5:  -459.57349847907818   -3.72694e-06   1.50729e-06 DIIS
   @DF-RHF iter   6:  -459.57349855418931   -7.51111e-08   9.17056e-08 DIIS
   @DF-RHF iter   7:  -459.57349855451503   -3.25713e-10   1.23529e-08 DIIS
   @DF-RHF iter   8:  -459.57349855452583   -1.08002e-11   2.39592e-09 DIIS
  Energy and wave function converged.


  ==> Post-Iterations <==

    Orbital Energies [Eh]
    ---------------------

    Doubly Occupied:                                                      

       1A   -104.506182     2A    -10.229791     3A     -7.695840  
       4A     -7.695838     5A     -7.695815     6A     -0.733502  
       7A     -0.150337     8A     -0.150327     9A     -0.150326  

    Virtual:                                                              

      10A      0.142937    11A      0.163956    12A      0.236032  
      13A      0.257480    14A      0.279785    15A      0.284294  
      16A      0.298619    17A      0.302717    18A      0.315279  
      19A      0.404564    20A      0.421612    21A      0.425165  
      22A      0.461347    23A      0.473911    24A      0.513973  
      25A      0.521912    26A      0.551401    27A      0.581389  
      28A      0.608255    29A      0.630476    30A      0.641994  
      31A      0.684079    32A      0.701000    33A      0.791982  
      34A      0.877319    35A      0.892316    36A      0.896930  
      37A      0.915497    38A      0.936630    39A      0.940539  
      40A      0.969450    41A      0.990655    42A      1.004702  
      43A      1.065755    44A      1.101962    45A      1.127578  
      46A      1.145833    47A      1.161771    48A      1.191879  
      49A      1.208311    50A      1.217184    51A      1.231761  
      52A      1.239124    53A      1.247376    54A      1.263693  
      55A      1.287495    56A      1.309384    57A      1.338013  
      58A      1.384683    59A      1.399875    60A      1.471731  
      61A      1.479623    62A      1.515136    63A      1.588285  
      64A      1.616437    65A      1.652354    66A      1.657452  
      67A      1.699806    68A      1.749518    69A      1.885153  
      70A      1.897617    71A      1.947055    72A      1.989229  
      73A      2.004583    74A      2.075326    75A      2.265394  
      76A      2.552418    77A      2.627434    78A      2.687650  
      79A      2.693743    80A      2.739944    81A      2.757483  
      82A      2.813258    83A      2.837811    84A      2.841166  
      85A      2.852630    86A      2.886718    87A      2.915036  
      88A      2.985244    89A      3.007553    90A      3.017735  
      91A      3.026041    92A      3.180420    93A      3.325527  
      94A      3.337707    95A      3.375193    96A      3.383023  
      97A      3.397202    98A      3.412275    99A      3.427900  
     100A      3.501189   101A      3.505614   102A      3.516817  
     103A      3.547125   104A      3.646779   105A      3.734149  
     106A      3.849296   107A      4.609312   108A      4.613082  
     109A      4.688341   110A      4.765878   111A      4.855236  
     112A      4.873415   113A      5.043352   114A      5.098312  
     115A      5.139422   116A      5.409993   117A      5.722660  
     118A      5.768320   119A      5.817528   120A      5.951051  
     121A      6.055608   122A      6.287538   123A      6.540875  
     124A      6.708032   125A      7.184059   126A      7.877306  
     127A      8.034084   128A      8.215392   129A      8.281931  
     130A      8.452728   131A      8.815937   132A      8.971477  
     133A      9.830041   134A     10.049458   135A     10.175277  
     136A     10.405369   137A     11.333228   138A     11.816536  
     139A     12.163480   140A     13.646607   141A     13.951971  
     142A     64.272270  

    Final Occupation by Irrep:
              A 
    DOCC [     9 ]
    NA   [     9 ]
    NB   [     9 ]

  @DF-RHF Final Energy:  -459.57349855452583

   => Energetics <=

    Nuclear Repulsion Energy =              0.0000000000000000
    One-Electron Energy =                -641.1310821196523193
    Two-Electron Energy =                 181.5575835651264924
    Total Energy =                       -459.5734985545258269

Computation Completed


Properties will be evaluated at   0.000000,   0.000000,   0.000000 [a0]

Properties computed using the SCF density matrix


 Multipole Moments:

 ------------------------------------------------------------------------------------
     Multipole            Electronic (a.u.)      Nuclear  (a.u.)        Total (a.u.)
 ------------------------------------------------------------------------------------

 L = 1.  Multiply by 2.5417464519 to convert [e a0] to [Debye]
 Dipole X            :       -104.4382807           98.6361146           -5.8021661
 Dipole Y            :          0.0000143            0.0000000            0.0000143
 Dipole Z            :          0.0002004            0.0000000            0.0002004
 Magnitude           :                                                    5.8021661

 ------------------------------------------------------------------------------------

*** tstop() called on moses-razer at Wed Jan  3 15:06:47 2024
Module time:
	user time   =       4.07 seconds =       0.07 minutes
	system time =       0.41 seconds =       0.01 minutes
	total time  =          1 seconds =       0.02 minutes
Total time:
	user time   =       4.07 seconds =       0.07 minutes
	system time =       0.41 seconds =       0.01 minutes
	total time  =          1 seconds =       0.02 minutes

*** tstart() called on moses-razer
*** at Wed Jan  3 15:06:47 2024


  //>>>>>>>>>>>>>>>>>>>>>>>>>>>>>>>>>>>//
  //               DFMP2               //
  //<<<<<<<<<<<<<<<<<<<<<<<<<<<<<<<<<<<//

   => Loading Basis Set <=

    Name: (AUG-CC-PVTZ AUX)
    Role: RIFIT
    Keyword: DF_BASIS_MP2
    atoms 1   entry O          line   264 file /home/kchung25/anaconda3/envs/p415env/share/psi4/basis/aug-cc-pvtz-ri.gbs 
    atoms 2-3 entry H          line    30 file /home/kchung25/anaconda3/envs/p415env/share/psi4/basis/aug-cc-pvtz-ri.gbs 
    atoms 4   entry CL         line   742 file /home/kchung25/anaconda3/envs/p415env/share/psi4/basis/aug-cc-pvtz-ri.gbs 

	 --------------------------------------------------------
	                          DF-MP2                         
	      2nd-Order Density-Fitted Moller-Plesset Theory     
	              RMP2 Wavefunction,   6 Threads             
	                                                         
	        Rob Parrish, Justin Turney, Andy Simmonett,      
	           Ed Hohenstein, and C. David Sherrill          
	 --------------------------------------------------------

   => Auxiliary Basis Set <=

  Basis Set: (AUG-CC-PVTZ AUX)
    Blend: AUG-CC-PVTZ-RI
    Number of shells: 93
    Number of basis functions: 345
    Number of Cartesian functions: 437
    Spherical Harmonics?: true
    Max angular momentum: 4

	 --------------------------------------------------------
	                 NBF =   142, NAUX =   345
	 --------------------------------------------------------
	   CLASS    FOCC     OCC    AOCC    AVIR     VIR    FVIR
	   PAIRS       0       9       9     133     133       0
	 --------------------------------------------------------

	-----------------------------------------------------------
	 ==================> DF-MP2 Energies <==================== 
	-----------------------------------------------------------
	 Reference Energy          =    -459.5734985545258269 [Eh]
	 Singles Energy            =      -0.0000000000000000 [Eh]
	 Same-Spin Energy          =      -0.0624817024261858 [Eh]
	 Opposite-Spin Energy      =      -0.1795155426429777 [Eh]
	 Correlation Energy        =      -0.2419972450691635 [Eh]
	 Total Energy              =    -459.8154957995949985 [Eh]
	-----------------------------------------------------------
	 ================> DF-SCS-MP2 Energies <================== 
	-----------------------------------------------------------
	 SCS Same-Spin Scale       =       0.3333333333333333 [-]
	 SCS Opposite-Spin Scale   =       1.2000000000000000 [-]
	 SCS Same-Spin Energy      =      -0.0208272341420619 [Eh]
	 SCS Opposite-Spin Energy  =      -0.2154186511715732 [Eh]
	 SCS Correlation Energy    =      -0.2362458853136352 [Eh]
	 SCS Total Energy          =    -459.8097444398394487 [Eh]
	-----------------------------------------------------------


*** tstop() called on moses-razer at Wed Jan  3 15:06:47 2024
Module time:
	user time   =       1.78 seconds =       0.03 minutes
	system time =       0.09 seconds =       0.00 minutes
	total time  =          0 seconds =       0.00 minutes
Total time:
	user time   =       5.86 seconds =       0.10 minutes
	system time =       0.50 seconds =       0.01 minutes
	total time  =          1 seconds =       0.02 minutes

    Psi4 stopped on: Wednesday, 03 January 2024 03:06PM
    Psi4 wall time for execution: 0:00:01.19


    -----------------------------------------------------------------------
          Psi4: An Open-Source Ab Initio Electronic Structure Package
                               Psi4 1.9 release

                         Git: Rev {} zzzzzzz 


    D. G. A. Smith, L. A. Burns, A. C. Simmonett, R. M. Parrish,
    M. C. Schieber, R. Galvelis, P. Kraus, H. Kruse, R. Di Remigio,
    A. Alenaizan, A. M. James, S. Lehtola, J. P. Misiewicz, M. Scheurer,
    R. A. Shaw, J. B. Schriber, Y. Xie, Z. L. Glick, D. A. Sirianni,
    J. S. O'Brien, J. M. Waldrop, A. Kumar, E. G. Hohenstein,
    B. P. Pritchard, B. R. Brooks, H. F. Schaefer III, A. Yu. Sokolov,
    K. Patkowski, A. E. DePrince III, U. Bozkaya, R. A. King,
    F. A. Evangelista, J. M. Turney, T. D. Crawford, C. D. Sherrill,
    J. Chem. Phys. 152(18) 184108 (2020). https://doi.org/10.1063/5.0006002

                            Additional Code Authors
    E. T. Seidl, C. L. Janssen, E. F. Valeev, M. L. Leininger,
    J. F. Gonthier, R. M. Richard, H. R. McAlexander, M. Saitow, X. Wang,
    P. Verma, M. H. Lechner, A. Jiang, S. Behnle, A. G. Heide,
    M. F. Herbst, and D. L. Poole

             Previous Authors, Complete List of Code Contributors,
                       and Citations for Specific Modules
    https://github.com/psi4/psi4/blob/master/codemeta.json
    https://github.com/psi4/psi4/graphs/contributors
    http://psicode.org/psi4manual/master/introduction.html#citing-psifour

    -----------------------------------------------------------------------


    Psi4 started on: Wednesday, 03 January 2024 03:06PM

    Process ID: 407836
    Host:       moses-razer
    PSIDATADIR: /home/kchung25/anaconda3/envs/psi4_19/share/psi4
    Memory:     55.9 GiB
    Threads:    6
    
  ==> Input QCSchema <==

--------------------------------------------------------------------------
{'driver': 'energy',
 'extras': {'psiapi': True, 'wfn_qcvars_only': True},
 'id': None,
 'keywords': {'SCF_TYPE': 'DF', 'function_kwargs': {}},
 'model': {'basis': 'aug-cc-pvtz', 'method': 'mp2'},
 'molecule': {'atom_labels': ['', '', '', ''],
              'atomic_numbers': [8, 1, 1, 17],
              'extras': {},
              'fix_com': True,
              'fix_orientation': True,
              'fix_symmetry': 'c1',
              'fragment_charges': [0.0, 0.0],
              'fragment_multiplicities': [1, 1],
              'fragments': [[0, 1, 2], [3]],
              'geometry': [0.0, 0.0, 0.0, 0.23484760396739704, 1.7797591827651862, -0.23484760396739704,
                           1.2285185130646359, -0.6854792547485726, -1.2285185130646359, 5.802124388751694, 0.0, 0.0],
              'mass_numbers': [16, 1, 1, 35],
              'masses': [15.99491461957, 1.00782503223, 1.00782503223, 34.968852682],
              'molecular_charge': 0.0,
              'molecular_multiplicity': 1,
              'name': 'dimer',
              'provenance': {'creator': 'QCElemental',
                             'routine': 'qcelemental.molparse.from_string',
                             'version': '0.27.1'},
              'real': [True, True, True, False],
              'schema_name': 'qcschema_molecule',
              'schema_version': 2,
              'symbols': ['O', 'H', 'H', 'Cl'],
              'validated': True},
 'protocols': {'stdout': True},
 'provenance': {'creator': 'QCElemental', 'routine': 'qcelemental.models.results', 'version': '0.27.1'},
 'schema_name': 'qcschema_input',
 'schema_version': 1}
--------------------------------------------------------------------------

Scratch directory: /scratch/
   => Libint2 <=

    Primary   basis highest AM E, G, H:  5, 4, 3
    Auxiliary basis highest AM E, G, H:  6, 5, 4
    Onebody   basis highest AM E, G, H:  6, 5, 4
    Solid Harmonics ordering:            gaussian

*** tstart() called on moses-razer
*** at Wed Jan  3 15:06:47 2024

   => Loading Basis Set <=

    Name: AUG-CC-PVTZ
    Role: ORBITAL
    Keyword: BASIS
    atoms 1   entry O          line   331 file /home/kchung25/anaconda3/envs/p415env/share/psi4/basis/aug-cc-pvtz.gbs 
    atoms 2-3 entry H          line    40 file /home/kchung25/anaconda3/envs/p415env/share/psi4/basis/aug-cc-pvtz.gbs 
    atoms 4   entry CL         line   988 file /home/kchung25/anaconda3/envs/p415env/share/psi4/basis/aug-cc-pvtz.gbs 


         ---------------------------------------------------------
                                   SCF
               by Justin Turney, Rob Parrish, Andy Simmonett
                          and Daniel G. A. Smith
                              RHF Reference
                        6 Threads,  57220 MiB Core
         ---------------------------------------------------------

  ==> Geometry <==

    Molecular point group: c1
    Full point group: C1

    Geometry (in Bohr), charge = 0, multiplicity = 1:

       Center              X                  Y                   Z               Mass       
    ------------   -----------------  -----------------  -----------------  -----------------
         O            0.000000000000     0.000000000000     0.000000000000    15.994914619570
         H            0.234847603967     1.779759182765    -0.234847603967     1.007825032230
         H            1.228518513065    -0.685479254749    -1.228518513065     1.007825032230
      Gh(CL)          5.802124388752     0.000000000000     0.000000000000    34.968852682000

  Running in c1 symmetry.

  Rotational constants: A =     11.48789  B =      0.05100  C =      0.05091 [cm^-1]
  Rotational constants: A = 344398.33796  B =   1529.07399  C =   1526.15331 [MHz]
  Nuclear repulsion =    9.054401554662833

  Charge       = 0
  Multiplicity = 1
  Electrons    = 10
  Nalpha       = 5
  Nbeta        = 5

  ==> Algorithm <==

  SCF Algorithm Type is DF.
  DIIS enabled.
  MOM disabled.
  Fractional occupation disabled.
  Guess Type is SAD.
  Energy threshold   = 1.00e-08
  Density threshold  = 1.00e-08
  Integral threshold = 1.00e-12

  ==> Primary Basis <==

  Basis Set: AUG-CC-PVTZ
    Blend: AUG-CC-PVTZ
    Number of shells: 48
    Number of basis functions: 142
    Number of Cartesian functions: 164
    Spherical Harmonics?: true
    Max angular momentum: 3

   => Loading Basis Set <=

    Name: (AUG-CC-PVTZ AUX)
    Role: JKFIT
    Keyword: DF_BASIS_SCF
    atoms 1   entry O          line   286 file /home/kchung25/anaconda3/envs/p415env/share/psi4/basis/aug-cc-pvtz-jkfit.gbs 
    atoms 2-3 entry H          line    70 file /home/kchung25/anaconda3/envs/p415env/share/psi4/basis/aug-cc-pvtz-jkfit.gbs 
    atoms 4   entry CL         line   816 file /home/kchung25/anaconda3/envs/p415env/share/psi4/basis/aug-cc-pvtz-jkfit.gbs 

  ==> Integral Setup <==

  DFHelper Memory: AOs need 0.057 GiB; user supplied 41.910 GiB. 
  Using in-core AOs.

  ==> MemDFJK: Density-Fitted J/K Matrices <==

    J tasked:                   Yes
    K tasked:                   Yes
    wK tasked:                   No
    OpenMP threads:               6
    Memory [MiB]:             42915
    Algorithm:                 Core
    Schwarz Cutoff:           1E-12
    Mask sparsity (%):       0.0000
    Fitting Condition:        1E-10

   => Auxiliary Basis Set <=

  Basis Set: (AUG-CC-PVTZ AUX)
    Blend: AUG-CC-PVTZ-JKFIT
    Number of shells: 100
    Number of basis functions: 342
    Number of Cartesian functions: 421
    Spherical Harmonics?: true
    Max angular momentum: 4

  Minimum eigenvalue in the overlap matrix is 3.5187281583E-04.
  Reciprocal condition number of the overlap matrix is 4.6855637588E-05.
    Using symmetric orthogonalization.

  ==> Pre-Iterations <==

  SCF Guess: Superposition of Atomic Densities via on-the-fly atomic UHF (no occupation information).

   -------------------------
    Irrep   Nso     Nmo    
   -------------------------
     A        142     142 
   -------------------------
    Total     142     142
   -------------------------

  ==> Iterations <==

                           Total Energy        Delta E     RMS |[F,P]|

   @DF-RHF iter SAD:   -75.46304111886842   -7.54630e+01   0.00000e+00 
   @DF-RHF iter   1:   -75.97275637927395   -5.09715e-01   3.29386e-03 ADIIS/DIIS
   @DF-RHF iter   2:   -76.02494559255274   -5.21892e-02   2.28921e-03 ADIIS/DIIS
   @DF-RHF iter   3:   -76.05778939681538   -3.28438e-02   1.56538e-04 ADIIS/DIIS
   @DF-RHF iter   4:   -76.05819939691656   -4.10000e-04   3.84103e-05 DIIS
   @DF-RHF iter   5:   -76.05822714943392   -2.77525e-05   8.99578e-06 DIIS
   @DF-RHF iter   6:   -76.05822951579027   -2.36636e-06   1.95251e-06 DIIS
   @DF-RHF iter   7:   -76.05822963601878   -1.20229e-07   3.31828e-07 DIIS
   @DF-RHF iter   8:   -76.05822963899669   -2.97791e-09   5.58942e-08 DIIS
   @DF-RHF iter   9:   -76.05822963906346   -6.67626e-11   1.38241e-08 DIIS
   @DF-RHF iter  10:   -76.05822963906785   -4.39115e-12   2.26442e-09 DIIS
  Energy and wave function converged.


  ==> Post-Iterations <==

    Orbital Energies [Eh]
    ---------------------

    Doubly Occupied:                                                      

       1A    -20.571472     2A     -1.348209     3A     -0.702395  
       4A     -0.588698     5A     -0.510132  

    Virtual:                                                              

       6A      0.026700     7A      0.047358     8A      0.078015  
       9A      0.090936    10A      0.109058    11A      0.119665  
      12A      0.151542    13A      0.182541    14A      0.184684  
      15A      0.209598    16A      0.230123    17A      0.252197  
      18A      0.292923    19A      0.315328    20A      0.338247  
      21A      0.359065    22A      0.401769    23A      0.402883  
      24A      0.417794    25A      0.429152    26A      0.449000  
      27A      0.459577    28A      0.473148    29A      0.494292  
      30A      0.513236    31A      0.535130    32A      0.588783  
      33A      0.615076    34A      0.682335    35A      0.726981  
      36A      0.744986    37A      0.827025    38A      0.839180  
      39A      0.909433    40A      0.921588    41A      0.939823  
      42A      0.942215    43A      0.977624    44A      1.007569  
      45A      1.013678    46A      1.041293    47A      1.080948  
      48A      1.111330    49A      1.136755    50A      1.188795  
      51A      1.203248    52A      1.272518    53A      1.293158  
      54A      1.297521    55A      1.308220    56A      1.310829  
      57A      1.326973    58A      1.360847    59A      1.407976  
      60A      1.429899    61A      1.442067    62A      1.474570  
      63A      1.480133    64A      1.497862    65A      1.540398  
      66A      1.546512    67A      1.591591    68A      1.608537  
      69A      1.672465    70A      1.737423    71A      1.827048  
      72A      1.873441    73A      1.889346    74A      2.037691  
      75A      2.143260    76A      2.322549    77A      2.346619  
      78A      2.396165    79A      2.480023    80A      2.492194  
      81A      2.550885    82A      2.622351    83A      2.699666  
      84A      2.759606    85A      2.788269    86A      2.808557  
      87A      2.914607    88A      3.661580    89A      3.735410  
      90A      3.917065    91A      3.918579    92A      3.929697  
      93A      3.937388    94A      3.940710    95A      3.946627  
      96A      3.971051    97A      4.000217    98A      4.025176  
      99A      4.070499   100A      4.128816   101A      4.163370  
     102A      4.236437   103A      4.267860   104A      4.317051  
     105A      4.324784   106A      4.393048   107A      4.433775  
     108A      4.516718   109A      4.540881   110A      4.658155  
     111A      4.661540   112A      4.690033   113A      4.717692  
     114A      4.740745   115A      4.838751   116A      4.892024  
     117A      5.131010   118A      5.195998   119A      5.211446  
     120A      5.335065   121A      5.519787   122A      5.625583  
     123A      6.249652   124A      6.521992   125A      6.763661  
     126A      6.945327   127A      7.144920   128A      7.237808  
     129A      7.285539   130A      7.325746   131A      7.381140  
     132A      7.406045   133A      7.514572   134A      7.849787  
     135A      7.940272   136A      8.769220   137A     14.142744  
     138A     15.548748   139A     27.714194   140A     27.731042  
     141A     27.920379   142A    160.776754  

    Final Occupation by Irrep:
              A 
    DOCC [     5 ]
    NA   [     5 ]
    NB   [     5 ]

  @DF-RHF Final Energy:   -76.05822963906785

   => Energetics <=

    Nuclear Repulsion Energy =              9.0544015546628334
    One-Electron Energy =                -122.7834506648776340
    Two-Electron Energy =                  37.6708194711469559
    Total Energy =                        -76.0582296390678465

Computation Completed


Properties will be evaluated at   0.000000,   0.000000,   0.000000 [a0]

Properties computed using the SCF density matrix


 Multipole Moments:

 ------------------------------------------------------------------------------------
     Multipole            Electronic (a.u.)      Nuclear  (a.u.)        Total (a.u.)
 ------------------------------------------------------------------------------------

 L = 1.  Multiply by 2.5417464519 to convert [e a0] to [Debye]
 Dipole X            :         -0.9602056            1.4633661            0.5031605
 Dipole Y            :         -0.7116688            1.0942799            0.3826112
 Dipole Z            :          0.9600653           -1.4633661           -0.5033008
 Magnitude           :                                                    0.8080059

 ------------------------------------------------------------------------------------

*** tstop() called on moses-razer at Wed Jan  3 15:06:48 2024
Module time:
	user time   =       3.47 seconds =       0.06 minutes
	system time =       0.22 seconds =       0.00 minutes
	total time  =          1 seconds =       0.02 minutes
Total time:
	user time   =       9.57 seconds =       0.16 minutes
	system time =       0.72 seconds =       0.01 minutes
	total time  =          2 seconds =       0.03 minutes

*** tstart() called on moses-razer
*** at Wed Jan  3 15:06:48 2024


  //>>>>>>>>>>>>>>>>>>>>>>>>>>>>>>>>>>>//
  //               DFMP2               //
  //<<<<<<<<<<<<<<<<<<<<<<<<<<<<<<<<<<<//

   => Loading Basis Set <=

    Name: (AUG-CC-PVTZ AUX)
    Role: RIFIT
    Keyword: DF_BASIS_MP2
    atoms 1   entry O          line   264 file /home/kchung25/anaconda3/envs/p415env/share/psi4/basis/aug-cc-pvtz-ri.gbs 
    atoms 2-3 entry H          line    30 file /home/kchung25/anaconda3/envs/p415env/share/psi4/basis/aug-cc-pvtz-ri.gbs 
    atoms 4   entry CL         line   742 file /home/kchung25/anaconda3/envs/p415env/share/psi4/basis/aug-cc-pvtz-ri.gbs 

	 --------------------------------------------------------
	                          DF-MP2                         
	      2nd-Order Density-Fitted Moller-Plesset Theory     
	              RMP2 Wavefunction,   6 Threads             
	                                                         
	        Rob Parrish, Justin Turney, Andy Simmonett,      
	           Ed Hohenstein, and C. David Sherrill          
	 --------------------------------------------------------

   => Auxiliary Basis Set <=

  Basis Set: (AUG-CC-PVTZ AUX)
    Blend: AUG-CC-PVTZ-RI
    Number of shells: 93
    Number of basis functions: 345
    Number of Cartesian functions: 437
    Spherical Harmonics?: true
    Max angular momentum: 4

	 --------------------------------------------------------
	                 NBF =   142, NAUX =   345
	 --------------------------------------------------------
	   CLASS    FOCC     OCC    AOCC    AVIR     VIR    FVIR
	   PAIRS       0       5       5     137     137       0
	 --------------------------------------------------------

	-----------------------------------------------------------
	 ==================> DF-MP2 Energies <==================== 
	-----------------------------------------------------------
	 Reference Energy          =     -76.0582296390678465 [Eh]
	 Singles Energy            =      -0.0000000000000000 [Eh]
	 Same-Spin Energy          =      -0.0687131255138572 [Eh]
	 Opposite-Spin Energy      =      -0.2164020888384543 [Eh]
	 Correlation Energy        =      -0.2851152143523115 [Eh]
	 Total Energy              =     -76.3433448534201631 [Eh]
	-----------------------------------------------------------
	 ================> DF-SCS-MP2 Energies <================== 
	-----------------------------------------------------------
	 SCS Same-Spin Scale       =       0.3333333333333333 [-]
	 SCS Opposite-Spin Scale   =       1.2000000000000000 [-]
	 SCS Same-Spin Energy      =      -0.0229043751712857 [Eh]
	 SCS Opposite-Spin Energy  =      -0.2596825066061451 [Eh]
	 SCS Correlation Energy    =      -0.2825868817774309 [Eh]
	 SCS Total Energy          =     -76.3408165208452800 [Eh]
	-----------------------------------------------------------


*** tstop() called on moses-razer at Wed Jan  3 15:06:48 2024
Module time:
	user time   =       1.70 seconds =       0.03 minutes
	system time =       0.14 seconds =       0.00 minutes
	total time  =          0 seconds =       0.00 minutes
Total time:
	user time   =      11.28 seconds =       0.19 minutes
	system time =       0.86 seconds =       0.01 minutes
	total time  =          2 seconds =       0.03 minutes

    Psi4 stopped on: Wednesday, 03 January 2024 03:06PM
    Psi4 wall time for execution: 0:00:01.05


    -----------------------------------------------------------------------
          Psi4: An Open-Source Ab Initio Electronic Structure Package
                               Psi4 1.9 release

                         Git: Rev {} zzzzzzz 


    D. G. A. Smith, L. A. Burns, A. C. Simmonett, R. M. Parrish,
    M. C. Schieber, R. Galvelis, P. Kraus, H. Kruse, R. Di Remigio,
    A. Alenaizan, A. M. James, S. Lehtola, J. P. Misiewicz, M. Scheurer,
    R. A. Shaw, J. B. Schriber, Y. Xie, Z. L. Glick, D. A. Sirianni,
    J. S. O'Brien, J. M. Waldrop, A. Kumar, E. G. Hohenstein,
    B. P. Pritchard, B. R. Brooks, H. F. Schaefer III, A. Yu. Sokolov,
    K. Patkowski, A. E. DePrince III, U. Bozkaya, R. A. King,
    F. A. Evangelista, J. M. Turney, T. D. Crawford, C. D. Sherrill,
    J. Chem. Phys. 152(18) 184108 (2020). https://doi.org/10.1063/5.0006002

                            Additional Code Authors
    E. T. Seidl, C. L. Janssen, E. F. Valeev, M. L. Leininger,
    J. F. Gonthier, R. M. Richard, H. R. McAlexander, M. Saitow, X. Wang,
    P. Verma, M. H. Lechner, A. Jiang, S. Behnle, A. G. Heide,
    M. F. Herbst, and D. L. Poole

             Previous Authors, Complete List of Code Contributors,
                       and Citations for Specific Modules
    https://github.com/psi4/psi4/blob/master/codemeta.json
    https://github.com/psi4/psi4/graphs/contributors
    http://psicode.org/psi4manual/master/introduction.html#citing-psifour

    -----------------------------------------------------------------------


    Psi4 started on: Wednesday, 03 January 2024 03:06PM

    Process ID: 407836
    Host:       moses-razer
    PSIDATADIR: /home/kchung25/anaconda3/envs/psi4_19/share/psi4
    Memory:     55.9 GiB
    Threads:    6
    
  ==> Input QCSchema <==

--------------------------------------------------------------------------
{'driver': 'energy',
 'extras': {'psiapi': True, 'wfn_qcvars_only': True},
 'id': None,
 'keywords': {'SCF_TYPE': 'DF', 'function_kwargs': {}},
 'model': {'basis': 'aug-cc-pvtz', 'method': 'mp2'},
 'molecule': {'atom_labels': ['', '', '', ''],
              'atomic_numbers': [8, 1, 1, 17],
              'extras': {},
              'fix_com': True,
              'fix_orientation': True,
              'fix_symmetry': 'c1',
              'fragment_charges': [0.0, -1.0],
              'fragment_multiplicities': [1, 1],
              'fragments': [[0, 1, 2], [3]],
              'geometry': [0.0, 0.0, 0.0, 0.23484760396739704, 1.7797591827651862, -0.23484760396739704,
                           1.2285185130646359, -0.6854792547485726, -1.2285185130646359, 5.802124388751694, 0.0, 0.0],
              'mass_numbers': [16, 1, 1, 35],
              'masses': [15.99491461957, 1.00782503223, 1.00782503223, 34.968852682],
              'molecular_charge': -1.0,
              'molecular_multiplicity': 1,
              'name': 'dimer',
              'provenance': {'creator': 'QCElemental',
                             'routine': 'qcelemental.molparse.from_string',
                             'version': '0.27.1'},
              'real': [True, True, True, True],
              'schema_name': 'qcschema_molecule',
              'schema_version': 2,
              'symbols': ['O', 'H', 'H', 'Cl'],
              'validated': True},
 'protocols': {'stdout': True},
 'provenance': {'creator': 'QCElemental', 'routine': 'qcelemental.models.results', 'version': '0.27.1'},
 'schema_name': 'qcschema_input',
 'schema_version': 1}
--------------------------------------------------------------------------

Scratch directory: /scratch/
   => Libint2 <=

    Primary   basis highest AM E, G, H:  5, 4, 3
    Auxiliary basis highest AM E, G, H:  6, 5, 4
    Onebody   basis highest AM E, G, H:  6, 5, 4
    Solid Harmonics ordering:            gaussian

*** tstart() called on moses-razer
*** at Wed Jan  3 15:06:48 2024

   => Loading Basis Set <=

    Name: AUG-CC-PVTZ
    Role: ORBITAL
    Keyword: BASIS
    atoms 1   entry O          line   331 file /home/kchung25/anaconda3/envs/p415env/share/psi4/basis/aug-cc-pvtz.gbs 
    atoms 2-3 entry H          line    40 file /home/kchung25/anaconda3/envs/p415env/share/psi4/basis/aug-cc-pvtz.gbs 
    atoms 4   entry CL         line   988 file /home/kchung25/anaconda3/envs/p415env/share/psi4/basis/aug-cc-pvtz.gbs 


         ---------------------------------------------------------
                                   SCF
               by Justin Turney, Rob Parrish, Andy Simmonett
                          and Daniel G. A. Smith
                              RHF Reference
                        6 Threads,  57220 MiB Core
         ---------------------------------------------------------

  ==> Geometry <==

    Molecular point group: c1
    Full point group: C1

    Geometry (in Bohr), charge = -1, multiplicity = 1:

       Center              X                  Y                   Z               Mass       
    ------------   -----------------  -----------------  -----------------  -----------------
         O            0.000000000000     0.000000000000     0.000000000000    15.994914619570
         H            0.234847603967     1.779759182765    -0.234847603967     1.007825032230
         H            1.228518513065    -0.685479254749    -1.228518513065     1.007825032230
         CL           5.802124388752     0.000000000000     0.000000000000    34.968852682000

  Running in c1 symmetry.

  Rotational constants: A =     11.48789  B =      0.05100  C =      0.05091 [cm^-1]
  Rotational constants: A = 344398.33796  B =   1529.07399  C =   1526.15331 [MHz]
  Nuclear repulsion =   38.953005330170143

  Charge       = -1
  Multiplicity = 1
  Electrons    = 28
  Nalpha       = 14
  Nbeta        = 14

  ==> Algorithm <==

  SCF Algorithm Type is DF.
  DIIS enabled.
  MOM disabled.
  Fractional occupation disabled.
  Guess Type is SAD.
  Energy threshold   = 1.00e-08
  Density threshold  = 1.00e-08
  Integral threshold = 1.00e-12

  ==> Primary Basis <==

  Basis Set: AUG-CC-PVTZ
    Blend: AUG-CC-PVTZ
    Number of shells: 48
    Number of basis functions: 142
    Number of Cartesian functions: 164
    Spherical Harmonics?: true
    Max angular momentum: 3

   => Loading Basis Set <=

    Name: (AUG-CC-PVTZ AUX)
    Role: JKFIT
    Keyword: DF_BASIS_SCF
    atoms 1   entry O          line   286 file /home/kchung25/anaconda3/envs/p415env/share/psi4/basis/aug-cc-pvtz-jkfit.gbs 
    atoms 2-3 entry H          line    70 file /home/kchung25/anaconda3/envs/p415env/share/psi4/basis/aug-cc-pvtz-jkfit.gbs 
    atoms 4   entry CL         line   816 file /home/kchung25/anaconda3/envs/p415env/share/psi4/basis/aug-cc-pvtz-jkfit.gbs 

  ==> Integral Setup <==

  DFHelper Memory: AOs need 0.057 GiB; user supplied 41.910 GiB. 
  Using in-core AOs.

  ==> MemDFJK: Density-Fitted J/K Matrices <==

    J tasked:                   Yes
    K tasked:                   Yes
    wK tasked:                   No
    OpenMP threads:               6
    Memory [MiB]:             42915
    Algorithm:                 Core
    Schwarz Cutoff:           1E-12
    Mask sparsity (%):       0.0000
    Fitting Condition:        1E-10

   => Auxiliary Basis Set <=

  Basis Set: (AUG-CC-PVTZ AUX)
    Blend: AUG-CC-PVTZ-JKFIT
    Number of shells: 100
    Number of basis functions: 342
    Number of Cartesian functions: 421
    Spherical Harmonics?: true
    Max angular momentum: 4

  Minimum eigenvalue in the overlap matrix is 3.5187281583E-04.
  Reciprocal condition number of the overlap matrix is 4.6855637588E-05.
    Using symmetric orthogonalization.

  ==> Pre-Iterations <==

  SCF Guess: Superposition of Atomic Densities via on-the-fly atomic UHF (no occupation information).

   -------------------------
    Irrep   Nso     Nmo    
   -------------------------
     A        142     142 
   -------------------------
    Total     142     142
   -------------------------

  ==> Iterations <==

                           Total Energy        Delta E     RMS |[F,P]|

   @DF-RHF iter SAD:  -534.62625960281139   -5.34626e+02   0.00000e+00 
   @DF-RHF iter   1:  -535.50229715657883   -8.76038e-01   3.85026e-03 ADIIS/DIIS
   @DF-RHF iter   2:  -535.59859679972260   -9.62996e-02   2.46292e-03 ADIIS/DIIS
   @DF-RHF iter   3:  -535.63716155865438   -3.85648e-02   2.26368e-04 ADIIS/DIIS
   @DF-RHF iter   4:  -535.63773986771855   -5.78309e-04   9.22327e-05 DIIS
   @DF-RHF iter   5:  -535.63784231656757   -1.02449e-04   1.59820e-05 DIIS
   @DF-RHF iter   6:  -535.63784942485552   -7.10829e-06   3.85223e-06 DIIS
   @DF-RHF iter   7:  -535.63784993588763   -5.11032e-07   9.57745e-07 DIIS
   @DF-RHF iter   8:  -535.63784996787842   -3.19908e-08   2.15835e-07 DIIS
   @DF-RHF iter   9:  -535.63784996943627   -1.55785e-09   5.19937e-08 DIIS
   @DF-RHF iter  10:  -535.63784996951028   -7.40101e-11   1.59333e-08 DIIS
   @DF-RHF iter  11:  -535.63784996951870   -8.41283e-12   3.85079e-09 DIIS
  Energy and wave function converged.


  ==> Post-Iterations <==

    Orbital Energies [Eh]
    ---------------------

    Doubly Occupied:                                                      

       1A   -104.516337     2A    -20.391899     3A    -10.240575  
       4A     -7.706645     5A     -7.706616     6A     -7.706566  
       7A     -1.171543     8A     -0.747898     9A     -0.527084  
      10A     -0.417431    11A     -0.335953    12A     -0.164822  
      13A     -0.163565    14A     -0.161007  

    Virtual:                                                              

      15A      0.145610    16A      0.164755    17A      0.254662  
      18A      0.270660    19A      0.291312    20A      0.292852  
      21A      0.301564    22A      0.310583    23A      0.330275  
      24A      0.378368    25A      0.401579    26A      0.420172  
      27A      0.446227    28A      0.480167    29A      0.514165  
      30A      0.570545    31A      0.586613    32A      0.594686  
      33A      0.611916    34A      0.631105    35A      0.656391  
      36A      0.666642    37A      0.689813    38A      0.764761  
      39A      0.831456    40A      0.867646    41A      0.874390  
      42A      0.897135    43A      0.908587    44A      0.920393  
      45A      1.000555    46A      1.033974    47A      1.069085  
      48A      1.080889    49A      1.094496    50A      1.115408  
      51A      1.133202    52A      1.172058    53A      1.177546  
      54A      1.190287    55A      1.212701    56A      1.223757  
      57A      1.225651    58A      1.231460    59A      1.268370  
      60A      1.276610    61A      1.290329    62A      1.314015  
      63A      1.369459    64A      1.391423    65A      1.445040  
      66A      1.465546    67A      1.476300    68A      1.490451  
      69A      1.558134    70A      1.611703    71A      1.644404  
      72A      1.676914    73A      1.746074    74A      1.810844  
      75A      1.824301    76A      1.921170    77A      2.016398  
      78A      2.053872    79A      2.182144    80A      2.311204  
      81A      2.481663    82A      2.508734    83A      2.555844  
      84A      2.634512    85A      2.647110    86A      2.686736  
      87A      2.743896    88A      2.825739    89A      2.827156  
      90A      2.846521    91A      2.881195    92A      2.885429  
      93A      2.931087    94A      2.938238    95A      2.970145  
      96A      2.988772    97A      2.991207    98A      3.006056  
      99A      3.091395   100A      3.190827   101A      3.365163  
     102A      3.366361   103A      3.394749   104A      3.411571  
     105A      3.476263   106A      3.503012   107A      3.590610  
     108A      3.889651   109A      3.953329   110A      4.262708  
     111A      4.322014   112A      4.392103   113A      4.449994  
     114A      4.473787   115A      4.568125   116A      4.598801  
     117A      4.628849   118A      4.721701   119A      4.913998  
     120A      5.024339   121A      5.305013   122A      5.364718  
     123A      5.385706   124A      5.473534   125A      5.693897  
     126A      5.793025   127A      5.976291   128A      6.426936  
     129A      6.696650   130A      6.940129   131A      7.121329  
     132A      7.322259   133A      7.412714   134A      7.461923  
     135A      7.500676   136A      7.558797   137A      7.585116  
     138A      7.691025   139A      8.024793   140A      8.116020  
     141A      8.947358   142A     15.700416  

    Final Occupation by Irrep:
              A 
    DOCC [    14 ]
    NA   [    14 ]
    NB   [    14 ]

  @DF-RHF Final Energy:  -535.63784996951870

   => Energetics <=

    Nuclear Repulsion Energy =             38.9530053301701429
    One-Electron Energy =                -825.2658292334211865
    Two-Electron Energy =                 250.6749739337322751
    Total Energy =                       -535.6378499695186974

Computation Completed


Properties will be evaluated at   0.000000,   0.000000,   0.000000 [a0]

Properties computed using the SCF density matrix


 Multipole Moments:

 ------------------------------------------------------------------------------------
     Multipole            Electronic (a.u.)      Nuclear  (a.u.)        Total (a.u.)
 ------------------------------------------------------------------------------------

 L = 1.  Multiply by 2.5417464519 to convert [e a0] to [Debye]
 Dipole X            :       -105.1258250          100.0994807           -5.0263443
 Dipole Y            :         -0.7461181            1.0942799            0.3481619
 Dipole Z            :          1.0727803           -1.4633661           -0.3905858
 Magnitude           :                                                    5.0535048

 ------------------------------------------------------------------------------------

*** tstop() called on moses-razer at Wed Jan  3 15:06:49 2024
Module time:
	user time   =       4.57 seconds =       0.08 minutes
	system time =       0.27 seconds =       0.00 minutes
	total time  =          1 seconds =       0.02 minutes
Total time:
	user time   =      16.09 seconds =       0.27 minutes
	system time =       1.14 seconds =       0.02 minutes
	total time  =          3 seconds =       0.05 minutes

*** tstart() called on moses-razer
*** at Wed Jan  3 15:06:49 2024


  //>>>>>>>>>>>>>>>>>>>>>>>>>>>>>>>>>>>//
  //               DFMP2               //
  //<<<<<<<<<<<<<<<<<<<<<<<<<<<<<<<<<<<//

   => Loading Basis Set <=

    Name: (AUG-CC-PVTZ AUX)
    Role: RIFIT
    Keyword: DF_BASIS_MP2
    atoms 1   entry O          line   264 file /home/kchung25/anaconda3/envs/p415env/share/psi4/basis/aug-cc-pvtz-ri.gbs 
    atoms 2-3 entry H          line    30 file /home/kchung25/anaconda3/envs/p415env/share/psi4/basis/aug-cc-pvtz-ri.gbs 
    atoms 4   entry CL         line   742 file /home/kchung25/anaconda3/envs/p415env/share/psi4/basis/aug-cc-pvtz-ri.gbs 

	 --------------------------------------------------------
	                          DF-MP2                         
	      2nd-Order Density-Fitted Moller-Plesset Theory     
	              RMP2 Wavefunction,   6 Threads             
	                                                         
	        Rob Parrish, Justin Turney, Andy Simmonett,      
	           Ed Hohenstein, and C. David Sherrill          
	 --------------------------------------------------------

   => Auxiliary Basis Set <=

  Basis Set: (AUG-CC-PVTZ AUX)
    Blend: AUG-CC-PVTZ-RI
    Number of shells: 93
    Number of basis functions: 345
    Number of Cartesian functions: 437
    Spherical Harmonics?: true
    Max angular momentum: 4

	 --------------------------------------------------------
	                 NBF =   142, NAUX =   345
	 --------------------------------------------------------
	   CLASS    FOCC     OCC    AOCC    AVIR     VIR    FVIR
	   PAIRS       0      14      14     128     128       0
	 --------------------------------------------------------

	-----------------------------------------------------------
	 ==================> DF-MP2 Energies <==================== 
	-----------------------------------------------------------
	 Reference Energy          =    -535.6378499695186974 [Eh]
	 Singles Energy            =      -0.0000000000000000 [Eh]
	 Same-Spin Energy          =      -0.1331468548798383 [Eh]
	 Opposite-Spin Energy      =      -0.3974456444919663 [Eh]
	 Correlation Energy        =      -0.5305924993718045 [Eh]
	 Total Energy              =    -536.1684424688904755 [Eh]
	-----------------------------------------------------------
	 ================> DF-SCS-MP2 Energies <================== 
	-----------------------------------------------------------
	 SCS Same-Spin Scale       =       0.3333333333333333 [-]
	 SCS Opposite-Spin Scale   =       1.2000000000000000 [-]
	 SCS Same-Spin Energy      =      -0.0443822849599461 [Eh]
	 SCS Opposite-Spin Energy  =      -0.4769347733903595 [Eh]
	 SCS Correlation Energy    =      -0.5213170583503056 [Eh]
	 SCS Total Energy          =    -536.1591670278689890 [Eh]
	-----------------------------------------------------------


*** tstop() called on moses-razer at Wed Jan  3 15:06:49 2024
Module time:
	user time   =       1.89 seconds =       0.03 minutes
	system time =       0.14 seconds =       0.00 minutes
	total time  =          0 seconds =       0.00 minutes
Total time:
	user time   =      17.98 seconds =       0.30 minutes
	system time =       1.28 seconds =       0.02 minutes
	total time  =          3 seconds =       0.05 minutes

    Psi4 stopped on: Wednesday, 03 January 2024 03:06PM
    Psi4 wall time for execution: 0:00:01.27


  //>>>>>>>>>>>>>>>>>>>>>>>>>>>>>>>>>>>//
  //          ManyBody Results         //
  //<<<<<<<<<<<<<<<<<<<<<<<<<<<<<<<<<<<//


   ==> N-Body: Counterpoise Corrected (CP) energies <==

        n-Body     Total Energy            Interaction Energy                          N-body Contribution to Interaction Energy
                   [Eh]                    [Eh]                  [kcal/mol]            [Eh]                  [kcal/mol]
             1  N/A                         0.000000000000        0.000000000000        0.000000000000        0.000000000000
  FULL/RTN   2  N/A                        -0.009601815875       -6.025230427200       -0.009601815875       -6.025230427200


    Psi4 stopped on: Wednesday, 03 January 2024 03:06PM
    Psi4 wall time for execution: 0:00:05.05

*** Psi4 exiting successfully. Buy a developer a beer!
