
    -----------------------------------------------------------------------
          Psi4: An Open-Source Ab Initio Electronic Structure Package
                               Psi4 1.9 release

                         Git: Rev {} zzzzzzz 


    D. G. A. Smith, L. A. Burns, A. C. Simmonett, R. M. Parrish,
    M. C. Schieber, R. Galvelis, P. Kraus, H. Kruse, R. Di Remigio,
    A. Alenaizan, A. M. James, S. Lehtola, J. P. Misiewicz, M. Scheurer,
    R. A. Shaw, J. B. Schriber, Y. Xie, Z. L. Glick, D. A. Sirianni,
    J. S. O'Brien, J. M. Waldrop, A. Kumar, E. G. Hohenstein,
    B. P. Pritchard, B. R. Brooks, H. F. Schaefer III, A. Yu. Sokolov,
    K. Patkowski, A. E. DePrince III, U. Bozkaya, R. A. King,
    F. A. Evangelista, J. M. Turney, T. D. Crawford, C. D. Sherrill,
    J. Chem. Phys. 152(18) 184108 (2020). https://doi.org/10.1063/5.0006002

                            Additional Code Authors
    E. T. Seidl, C. L. Janssen, E. F. Valeev, M. L. Leininger,
    J. F. Gonthier, R. M. Richard, H. R. McAlexander, M. Saitow, X. Wang,
    P. Verma, M. H. Lechner, A. Jiang, S. Behnle, A. G. Heide,
    M. F. Herbst, and D. L. Poole

             Previous Authors, Complete List of Code Contributors,
                       and Citations for Specific Modules
    https://github.com/psi4/psi4/blob/master/codemeta.json
    https://github.com/psi4/psi4/graphs/contributors
    http://psicode.org/psi4manual/master/introduction.html#citing-psifour

    -----------------------------------------------------------------------


    Psi4 started on: Wednesday, 03 January 2024 03:15PM

    Process ID: 409124
    Host:       moses-razer
    PSIDATADIR: /home/kchung25/anaconda3/envs/psi4_19/share/psi4
    Memory:     500.0 MiB
    Threads:    6
    
  ==> Input File <==

--------------------------------------------------------------------------
MEMORY 60 GB

molecule dimer {
0 1
O      0.000000     0.000000     0.000000
H      0.290113     0.866062    -0.290113
H      0.560416    -0.584246    -0.560416
--
-1 1
Br     3.212066     0.000000     0.000000

units ang
no_reorient
no_com
symmetry c1
}

set {
basis        aug-cc-pVTZ
scf_type     df
}

energy("mp2", bsse_type="cp")
--------------------------------------------------------------------------

  Memory set to  55.879 GiB by Python driver.

Scratch directory: /scratch/

  //>>>>>>>>>>>>>>>>>>>>>>>>>>>>>>>>>>>>>//
  // ManyBody Setup: N-Body Levels [1, 2]//
  //<<<<<<<<<<<<<<<<<<<<<<<<<<<<<<<<<<<<<//

        Number of 1-body computations:     2
        Number of 2-body computations:     1

    -----------------------------------------------------------------------
          Psi4: An Open-Source Ab Initio Electronic Structure Package
                               Psi4 1.9 release

                         Git: Rev {} zzzzzzz 


    D. G. A. Smith, L. A. Burns, A. C. Simmonett, R. M. Parrish,
    M. C. Schieber, R. Galvelis, P. Kraus, H. Kruse, R. Di Remigio,
    A. Alenaizan, A. M. James, S. Lehtola, J. P. Misiewicz, M. Scheurer,
    R. A. Shaw, J. B. Schriber, Y. Xie, Z. L. Glick, D. A. Sirianni,
    J. S. O'Brien, J. M. Waldrop, A. Kumar, E. G. Hohenstein,
    B. P. Pritchard, B. R. Brooks, H. F. Schaefer III, A. Yu. Sokolov,
    K. Patkowski, A. E. DePrince III, U. Bozkaya, R. A. King,
    F. A. Evangelista, J. M. Turney, T. D. Crawford, C. D. Sherrill,
    J. Chem. Phys. 152(18) 184108 (2020). https://doi.org/10.1063/5.0006002

                            Additional Code Authors
    E. T. Seidl, C. L. Janssen, E. F. Valeev, M. L. Leininger,
    J. F. Gonthier, R. M. Richard, H. R. McAlexander, M. Saitow, X. Wang,
    P. Verma, M. H. Lechner, A. Jiang, S. Behnle, A. G. Heide,
    M. F. Herbst, and D. L. Poole

             Previous Authors, Complete List of Code Contributors,
                       and Citations for Specific Modules
    https://github.com/psi4/psi4/blob/master/codemeta.json
    https://github.com/psi4/psi4/graphs/contributors
    http://psicode.org/psi4manual/master/introduction.html#citing-psifour

    -----------------------------------------------------------------------


    Psi4 started on: Wednesday, 03 January 2024 03:15PM

    Process ID: 409124
    Host:       moses-razer
    PSIDATADIR: /home/kchung25/anaconda3/envs/psi4_19/share/psi4
    Memory:     55.9 GiB
    Threads:    6
    
  ==> Input QCSchema <==

--------------------------------------------------------------------------
{'driver': 'energy',
 'extras': {'psiapi': True, 'wfn_qcvars_only': True},
 'id': None,
 'keywords': {'SCF_TYPE': 'DF', 'function_kwargs': {}},
 'model': {'basis': 'aug-cc-pvtz', 'method': 'mp2'},
 'molecule': {'atom_labels': ['', '', '', ''],
              'atomic_numbers': [8, 1, 1, 35],
              'extras': {},
              'fix_com': True,
              'fix_orientation': True,
              'fix_symmetry': 'c1',
              'fragment_charges': [0.0, -1.0],
              'fragment_multiplicities': [1, 1],
              'fragments': [[0, 1, 2], [3]],
              'geometry': [0.0, 0.0, 0.0, 0.5482341154349469, 1.6366199876662575, -0.5482341154349469,
                           1.0590327563245743, -1.1040649298942344, -1.0590327563245743, 6.0699250368948245, 0.0, 0.0],
              'mass_numbers': [16, 1, 1, 79],
              'masses': [15.99491461957, 1.00782503223, 1.00782503223, 78.9183376],
              'molecular_charge': -1.0,
              'molecular_multiplicity': 1,
              'name': 'dimer',
              'provenance': {'creator': 'QCElemental',
                             'routine': 'qcelemental.molparse.from_string',
                             'version': '0.27.1'},
              'real': [False, False, False, True],
              'schema_name': 'qcschema_molecule',
              'schema_version': 2,
              'symbols': ['O', 'H', 'H', 'Br'],
              'validated': True},
 'protocols': {'stdout': True},
 'provenance': {'creator': 'QCElemental', 'routine': 'qcelemental.models.results', 'version': '0.27.1'},
 'schema_name': 'qcschema_input',
 'schema_version': 1}
--------------------------------------------------------------------------

Scratch directory: /scratch/
   => Libint2 <=

    Primary   basis highest AM E, G, H:  5, 4, 3
    Auxiliary basis highest AM E, G, H:  6, 5, 4
    Onebody   basis highest AM E, G, H:  6, 5, 4
    Solid Harmonics ordering:            gaussian

*** tstart() called on moses-razer
*** at Wed Jan  3 15:15:35 2024

   => Loading Basis Set <=

    Name: AUG-CC-PVTZ
    Role: ORBITAL
    Keyword: BASIS
    atoms 1   entry O          line   331 file /home/kchung25/anaconda3/envs/p415env/share/psi4/basis/aug-cc-pvtz.gbs 
    atoms 2-3 entry H          line    40 file /home/kchung25/anaconda3/envs/p415env/share/psi4/basis/aug-cc-pvtz.gbs 
    atoms 4   entry BR         line  4564 file /home/kchung25/anaconda3/envs/p415env/share/psi4/basis/aug-cc-pvtz.gbs 


         ---------------------------------------------------------
                                   SCF
               by Justin Turney, Rob Parrish, Andy Simmonett
                          and Daniel G. A. Smith
                              RHF Reference
                        6 Threads,  57220 MiB Core
         ---------------------------------------------------------

  ==> Geometry <==

    Molecular point group: c1
    Full point group: C1

    Geometry (in Bohr), charge = -1, multiplicity = 1:

       Center              X                  Y                   Z               Mass       
    ------------   -----------------  -----------------  -----------------  -----------------
      Gh(O)           0.000000000000     0.000000000000     0.000000000000    15.994914619570
      Gh(H)           0.548234115435     1.636619987666    -0.548234115435     1.007825032230
      Gh(H)           1.059032756325    -1.104064929894    -1.059032756325     1.007825032230
         BR           6.069925036895     0.000000000000     0.000000000000    78.918337600000

  Running in c1 symmetry.

  Rotational constants: A =     11.23026  B =      0.02068  C =      0.02067 [cm^-1]
  Rotational constants: A = 336674.73165  B =    620.07875  C =    619.53492 [MHz]
  Nuclear repulsion =    0.000000000000000

  Charge       = -1
  Multiplicity = 1
  Electrons    = 36
  Nalpha       = 18
  Nbeta        = 18

  ==> Algorithm <==

  SCF Algorithm Type is DF.
  DIIS enabled.
  MOM disabled.
  Fractional occupation disabled.
  Guess Type is SAD.
  Energy threshold   = 1.00e-08
  Density threshold  = 1.00e-08
  Integral threshold = 1.00e-12

  ==> Primary Basis <==

  Basis Set: AUG-CC-PVTZ
    Blend: AUG-CC-PVTZ
    Number of shells: 51
    Number of basis functions: 151
    Number of Cartesian functions: 174
    Spherical Harmonics?: true
    Max angular momentum: 3

   => Loading Basis Set <=

    Name: (AUG-CC-PVTZ AUX)
    Role: JKFIT
    Keyword: DF_BASIS_SCF
    atoms 1   entry O          line   286 file /home/kchung25/anaconda3/envs/p415env/share/psi4/basis/aug-cc-pvtz-jkfit.gbs 
    atoms 2-3 entry H          line    70 file /home/kchung25/anaconda3/envs/p415env/share/psi4/basis/aug-cc-pvtz-jkfit.gbs 
    atoms 4   entry BR         line  1492 file /home/kchung25/anaconda3/envs/p415env/share/psi4/basis/aug-cc-pvtz-jkfit.gbs 

  ==> Integral Setup <==

  DFHelper Memory: AOs need 0.082 GiB; user supplied 41.910 GiB. 
  Using in-core AOs.

  ==> MemDFJK: Density-Fitted J/K Matrices <==

    J tasked:                   Yes
    K tasked:                   Yes
    wK tasked:                   No
    OpenMP threads:               6
    Memory [MiB]:             42915
    Algorithm:                 Core
    Schwarz Cutoff:           1E-12
    Mask sparsity (%):       0.3947
    Fitting Condition:        1E-10

   => Auxiliary Basis Set <=

  Basis Set: (AUG-CC-PVTZ AUX)
    Blend: AUG-CC-PVTZ-JKFIT
    Number of shells: 116
    Number of basis functions: 444
    Number of Cartesian functions: 570
    Spherical Harmonics?: true
    Max angular momentum: 4

  Minimum eigenvalue in the overlap matrix is 3.5353574153E-04.
  Reciprocal condition number of the overlap matrix is 4.6478438556E-05.
    Using symmetric orthogonalization.

  ==> Pre-Iterations <==

  SCF Guess: Superposition of Atomic Densities via on-the-fly atomic UHF (no occupation information).

   -------------------------
    Irrep   Nso     Nmo    
   -------------------------
     A        151     151 
   -------------------------
    Total     151     151
   -------------------------

  ==> Iterations <==

                           Total Energy        Delta E     RMS |[F,P]|

   @DF-RHF iter SAD: -2570.41423529346594   -2.57041e+03   0.00000e+00 
   @DF-RHF iter   1: -2572.25541382002029   -1.84118e+00   6.96747e-03 DIIS/ADIIS
   @DF-RHF iter   2: -2572.46449676407565   -2.09083e-01   3.86816e-03 DIIS/ADIIS
   @DF-RHF iter   3: -2572.53364171736257   -6.91450e-02   6.37344e-05 DIIS
   @DF-RHF iter   4: -2572.53367611118438   -3.43938e-05   7.42183e-06 DIIS
   @DF-RHF iter   5: -2572.53367724791997   -1.13674e-06   1.88647e-06 DIIS
   @DF-RHF iter   6: -2572.53367732445895   -7.65390e-08   3.52635e-07 DIIS
   @DF-RHF iter   7: -2572.53367733385585   -9.39690e-09   3.24303e-08 DIIS
   @DF-RHF iter   8: -2572.53367733394225   -8.64020e-11   1.02975e-08 DIIS
   @DF-RHF iter   9: -2572.53367733395044   -8.18545e-12   2.52628e-09 DIIS
  Energy and wave function converged.


  ==> Post-Iterations <==

    Orbital Energies [Eh]
    ---------------------

    Doubly Occupied:                                                      

       1A   -489.720593     2A    -64.860617     3A    -58.215097  
       4A    -58.215096     5A    -58.215093     6A     -9.532903  
       7A     -7.140249     8A     -7.140248     9A     -7.140236  
      10A     -2.881920    11A     -2.881919    12A     -2.881918  
      13A     -2.881915    14A     -2.881901    15A     -0.685997  
      16A     -0.139337    17A     -0.139336    18A     -0.139336  

    Virtual:                                                              

      19A      0.141309    20A      0.158229    21A      0.228461  
      22A      0.243229    23A      0.260460    24A      0.261066  
      25A      0.267022    26A      0.285139    27A      0.297610  
      28A      0.358985    29A      0.398922    30A      0.416324  
      31A      0.448642    32A      0.453356    33A      0.494507  
      34A      0.505454    35A      0.508969    36A      0.523414  
      37A      0.537818    38A      0.547980    39A      0.566311  
      40A      0.590127    41A      0.621993    42A      0.746410  
      43A      0.767435    44A      0.783541    45A      0.803464  
      46A      0.894526    47A      0.901761    48A      0.911159  
      49A      0.924050    50A      0.944314    51A      0.959738  
      52A      0.994323    53A      1.030132    54A      1.040176  
      55A      1.040766    56A      1.044289    57A      1.059707  
      58A      1.070895    59A      1.103651    60A      1.115436  
      61A      1.130936    62A      1.151064    63A      1.171691  
      64A      1.193012    65A      1.207106    66A      1.215398  
      67A      1.224030    68A      1.281669    69A      1.292946  
      70A      1.348689    71A      1.386938    72A      1.415868  
      73A      1.455645    74A      1.474691    75A      1.589744  
      76A      1.628476    77A      1.674386    78A      1.714496  
      79A      1.874677    80A      1.911849    81A      1.935489  
      82A      1.981053    83A      2.016733    84A      2.252730  
      85A      2.415192    86A      2.431820    87A      2.470349  
      88A      2.509490    89A      2.567430    90A      2.571710  
      91A      2.576350    92A      2.584105    93A      2.587913  
      94A      2.590494    95A      2.604132    96A      2.621264  
      97A      2.635379    98A      2.641988    99A      2.692809  
     100A      2.703033   101A      2.720208   102A      2.740595  
     103A      2.757206   104A      2.783913   105A      2.801263  
     106A      2.940711   107A      2.988442   108A      3.010450  
     109A      3.306239   110A      3.349615   111A      3.389921  
     112A      3.478577   113A      3.521945   114A      3.713261  
     115A      3.828844   116A      4.234745   117A      4.589276  
     118A      4.623679   119A      4.653009   120A      4.764749  
     121A      4.845612   122A      4.890738   123A      5.044137  
     124A      5.110621   125A      5.123520   126A      5.394630  
     127A      5.719437   128A      5.756871   129A      5.815148  
     130A      6.019016   131A      6.269746   132A      6.531588  
     133A      6.704934   134A      7.184120   135A      7.878255  
     136A      8.024876   137A      8.221940   138A      8.264826  
     139A      8.440536   140A      8.812142   141A      8.965390  
     142A      9.811883   143A     10.044816   144A     10.154937  
     145A     10.396662   146A     11.339185   147A     11.793443  
     148A     12.157099   149A     13.655532   150A     13.936813  
     151A     64.289295  

    Final Occupation by Irrep:
              A 
    DOCC [    18 ]
    NA   [    18 ]
    NB   [    18 ]

  @DF-RHF Final Energy: -2572.53367733395044

   => Energetics <=

    Nuclear Repulsion Energy =              0.0000000000000000
    One-Electron Energy =               -3593.6799292766122562
    Two-Electron Energy =                1021.1462519426618201
    Total Energy =                      -2572.5336773339504362

Computation Completed


Properties will be evaluated at   0.000000,   0.000000,   0.000000 [a0]

Properties computed using the SCF density matrix


 Multipole Moments:

 ------------------------------------------------------------------------------------
     Multipole            Electronic (a.u.)      Nuclear  (a.u.)        Total (a.u.)
 ------------------------------------------------------------------------------------

 L = 1.  Multiply by 2.5417464519 to convert [e a0] to [Debye]
 Dipole X            :       -218.5173295          212.4473763           -6.0699532
 Dipole Y            :         -0.0000513            0.0000000           -0.0000513
 Dipole Z            :          0.0000202            0.0000000            0.0000202
 Magnitude           :                                                    6.0699532

 ------------------------------------------------------------------------------------

*** tstop() called on moses-razer at Wed Jan  3 15:15:37 2024
Module time:
	user time   =       8.20 seconds =       0.14 minutes
	system time =       1.09 seconds =       0.02 minutes
	total time  =          2 seconds =       0.03 minutes
Total time:
	user time   =       8.20 seconds =       0.14 minutes
	system time =       1.09 seconds =       0.02 minutes
	total time  =          2 seconds =       0.03 minutes

*** tstart() called on moses-razer
*** at Wed Jan  3 15:15:37 2024


  //>>>>>>>>>>>>>>>>>>>>>>>>>>>>>>>>>>>//
  //               DFMP2               //
  //<<<<<<<<<<<<<<<<<<<<<<<<<<<<<<<<<<<//

   => Loading Basis Set <=

    Name: (AUG-CC-PVTZ AUX)
    Role: RIFIT
    Keyword: DF_BASIS_MP2
    atoms 1   entry O          line   264 file /home/kchung25/anaconda3/envs/p415env/share/psi4/basis/aug-cc-pvtz-ri.gbs 
    atoms 2-3 entry H          line    30 file /home/kchung25/anaconda3/envs/p415env/share/psi4/basis/aug-cc-pvtz-ri.gbs 
    atoms 4   entry BR         line  1248 file /home/kchung25/anaconda3/envs/p415env/share/psi4/basis/aug-cc-pvtz-ri.gbs 

	 --------------------------------------------------------
	                          DF-MP2                         
	      2nd-Order Density-Fitted Moller-Plesset Theory     
	              RMP2 Wavefunction,   6 Threads             
	                                                         
	        Rob Parrish, Justin Turney, Andy Simmonett,      
	           Ed Hohenstein, and C. David Sherrill          
	 --------------------------------------------------------

   => Auxiliary Basis Set <=

  Basis Set: (AUG-CC-PVTZ AUX)
    Blend: AUG-CC-PVTZ-RI
    Number of shells: 99
    Number of basis functions: 389
    Number of Cartesian functions: 507
    Spherical Harmonics?: true
    Max angular momentum: 5

	 --------------------------------------------------------
	                 NBF =   151, NAUX =   389
	 --------------------------------------------------------
	   CLASS    FOCC     OCC    AOCC    AVIR     VIR    FVIR
	   PAIRS       0      18      18     133     133       0
	 --------------------------------------------------------

	-----------------------------------------------------------
	 ==================> DF-MP2 Energies <==================== 
	-----------------------------------------------------------
	 Reference Energy          =   -2572.5336773339504362 [Eh]
	 Singles Energy            =      -0.0000000000000000 [Eh]
	 Same-Spin Energy          =      -0.0873658371531743 [Eh]
	 Opposite-Spin Energy      =      -0.2026952286985015 [Eh]
	 Correlation Energy        =      -0.2900610658516758 [Eh]
	 Total Energy              =   -2572.8237383998020960 [Eh]
	-----------------------------------------------------------
	 ================> DF-SCS-MP2 Energies <================== 
	-----------------------------------------------------------
	 SCS Same-Spin Scale       =       0.3333333333333333 [-]
	 SCS Opposite-Spin Scale   =       1.2000000000000000 [-]
	 SCS Same-Spin Energy      =      -0.0291219457177248 [Eh]
	 SCS Opposite-Spin Energy  =      -0.2432342744382018 [Eh]
	 SCS Correlation Energy    =      -0.2723562201559266 [Eh]
	 SCS Total Energy          =   -2572.8060335541063068 [Eh]
	-----------------------------------------------------------


*** tstop() called on moses-razer at Wed Jan  3 15:15:39 2024
Module time:
	user time   =       3.16 seconds =       0.05 minutes
	system time =       0.35 seconds =       0.01 minutes
	total time  =          2 seconds =       0.03 minutes
Total time:
	user time   =      11.37 seconds =       0.19 minutes
	system time =       1.44 seconds =       0.02 minutes
	total time  =          4 seconds =       0.07 minutes

    Psi4 stopped on: Wednesday, 03 January 2024 03:15PM
    Psi4 wall time for execution: 0:00:04.23


    -----------------------------------------------------------------------
          Psi4: An Open-Source Ab Initio Electronic Structure Package
                               Psi4 1.9 release

                         Git: Rev {} zzzzzzz 


    D. G. A. Smith, L. A. Burns, A. C. Simmonett, R. M. Parrish,
    M. C. Schieber, R. Galvelis, P. Kraus, H. Kruse, R. Di Remigio,
    A. Alenaizan, A. M. James, S. Lehtola, J. P. Misiewicz, M. Scheurer,
    R. A. Shaw, J. B. Schriber, Y. Xie, Z. L. Glick, D. A. Sirianni,
    J. S. O'Brien, J. M. Waldrop, A. Kumar, E. G. Hohenstein,
    B. P. Pritchard, B. R. Brooks, H. F. Schaefer III, A. Yu. Sokolov,
    K. Patkowski, A. E. DePrince III, U. Bozkaya, R. A. King,
    F. A. Evangelista, J. M. Turney, T. D. Crawford, C. D. Sherrill,
    J. Chem. Phys. 152(18) 184108 (2020). https://doi.org/10.1063/5.0006002

                            Additional Code Authors
    E. T. Seidl, C. L. Janssen, E. F. Valeev, M. L. Leininger,
    J. F. Gonthier, R. M. Richard, H. R. McAlexander, M. Saitow, X. Wang,
    P. Verma, M. H. Lechner, A. Jiang, S. Behnle, A. G. Heide,
    M. F. Herbst, and D. L. Poole

             Previous Authors, Complete List of Code Contributors,
                       and Citations for Specific Modules
    https://github.com/psi4/psi4/blob/master/codemeta.json
    https://github.com/psi4/psi4/graphs/contributors
    http://psicode.org/psi4manual/master/introduction.html#citing-psifour

    -----------------------------------------------------------------------


    Psi4 started on: Wednesday, 03 January 2024 03:15PM

    Process ID: 409124
    Host:       moses-razer
    PSIDATADIR: /home/kchung25/anaconda3/envs/psi4_19/share/psi4
    Memory:     55.9 GiB
    Threads:    6
    
  ==> Input QCSchema <==

--------------------------------------------------------------------------
{'driver': 'energy',
 'extras': {'psiapi': True, 'wfn_qcvars_only': True},
 'id': None,
 'keywords': {'SCF_TYPE': 'DF', 'function_kwargs': {}},
 'model': {'basis': 'aug-cc-pvtz', 'method': 'mp2'},
 'molecule': {'atom_labels': ['', '', '', ''],
              'atomic_numbers': [8, 1, 1, 35],
              'extras': {},
              'fix_com': True,
              'fix_orientation': True,
              'fix_symmetry': 'c1',
              'fragment_charges': [0.0, 0.0],
              'fragment_multiplicities': [1, 1],
              'fragments': [[0, 1, 2], [3]],
              'geometry': [0.0, 0.0, 0.0, 0.5482341154349469, 1.6366199876662575, -0.5482341154349469,
                           1.0590327563245743, -1.1040649298942344, -1.0590327563245743, 6.0699250368948245, 0.0, 0.0],
              'mass_numbers': [16, 1, 1, 79],
              'masses': [15.99491461957, 1.00782503223, 1.00782503223, 78.9183376],
              'molecular_charge': 0.0,
              'molecular_multiplicity': 1,
              'name': 'dimer',
              'provenance': {'creator': 'QCElemental',
                             'routine': 'qcelemental.molparse.from_string',
                             'version': '0.27.1'},
              'real': [True, True, True, False],
              'schema_name': 'qcschema_molecule',
              'schema_version': 2,
              'symbols': ['O', 'H', 'H', 'Br'],
              'validated': True},
 'protocols': {'stdout': True},
 'provenance': {'creator': 'QCElemental', 'routine': 'qcelemental.models.results', 'version': '0.27.1'},
 'schema_name': 'qcschema_input',
 'schema_version': 1}
--------------------------------------------------------------------------

Scratch directory: /scratch/
   => Libint2 <=

    Primary   basis highest AM E, G, H:  5, 4, 3
    Auxiliary basis highest AM E, G, H:  6, 5, 4
    Onebody   basis highest AM E, G, H:  6, 5, 4
    Solid Harmonics ordering:            gaussian

*** tstart() called on moses-razer
*** at Wed Jan  3 15:15:39 2024

   => Loading Basis Set <=

    Name: AUG-CC-PVTZ
    Role: ORBITAL
    Keyword: BASIS
    atoms 1   entry O          line   331 file /home/kchung25/anaconda3/envs/p415env/share/psi4/basis/aug-cc-pvtz.gbs 
    atoms 2-3 entry H          line    40 file /home/kchung25/anaconda3/envs/p415env/share/psi4/basis/aug-cc-pvtz.gbs 
    atoms 4   entry BR         line  4564 file /home/kchung25/anaconda3/envs/p415env/share/psi4/basis/aug-cc-pvtz.gbs 


         ---------------------------------------------------------
                                   SCF
               by Justin Turney, Rob Parrish, Andy Simmonett
                          and Daniel G. A. Smith
                              RHF Reference
                        6 Threads,  57220 MiB Core
         ---------------------------------------------------------

  ==> Geometry <==

    Molecular point group: c1
    Full point group: C1

    Geometry (in Bohr), charge = 0, multiplicity = 1:

       Center              X                  Y                   Z               Mass       
    ------------   -----------------  -----------------  -----------------  -----------------
         O            0.000000000000     0.000000000000     0.000000000000    15.994914619570
         H            0.548234115435     1.636619987666    -0.548234115435     1.007825032230
         H            1.059032756325    -1.104064929894    -1.059032756325     1.007825032230
      Gh(BR)          6.069925036895     0.000000000000     0.000000000000    78.918337600000

  Running in c1 symmetry.

  Rotational constants: A =     11.23026  B =      0.02068  C =      0.02067 [cm^-1]
  Rotational constants: A = 336674.73165  B =    620.07875  C =    619.53492 [MHz]
  Nuclear repulsion =    9.069868467966270

  Charge       = 0
  Multiplicity = 1
  Electrons    = 10
  Nalpha       = 5
  Nbeta        = 5

  ==> Algorithm <==

  SCF Algorithm Type is DF.
  DIIS enabled.
  MOM disabled.
  Fractional occupation disabled.
  Guess Type is SAD.
  Energy threshold   = 1.00e-08
  Density threshold  = 1.00e-08
  Integral threshold = 1.00e-12

  ==> Primary Basis <==

  Basis Set: AUG-CC-PVTZ
    Blend: AUG-CC-PVTZ
    Number of shells: 51
    Number of basis functions: 151
    Number of Cartesian functions: 174
    Spherical Harmonics?: true
    Max angular momentum: 3

   => Loading Basis Set <=

    Name: (AUG-CC-PVTZ AUX)
    Role: JKFIT
    Keyword: DF_BASIS_SCF
    atoms 1   entry O          line   286 file /home/kchung25/anaconda3/envs/p415env/share/psi4/basis/aug-cc-pvtz-jkfit.gbs 
    atoms 2-3 entry H          line    70 file /home/kchung25/anaconda3/envs/p415env/share/psi4/basis/aug-cc-pvtz-jkfit.gbs 
    atoms 4   entry BR         line  1492 file /home/kchung25/anaconda3/envs/p415env/share/psi4/basis/aug-cc-pvtz-jkfit.gbs 

  ==> Integral Setup <==

  DFHelper Memory: AOs need 0.082 GiB; user supplied 41.910 GiB. 
  Using in-core AOs.

  ==> MemDFJK: Density-Fitted J/K Matrices <==

    J tasked:                   Yes
    K tasked:                   Yes
    wK tasked:                   No
    OpenMP threads:               6
    Memory [MiB]:             42915
    Algorithm:                 Core
    Schwarz Cutoff:           1E-12
    Mask sparsity (%):       0.3947
    Fitting Condition:        1E-10

   => Auxiliary Basis Set <=

  Basis Set: (AUG-CC-PVTZ AUX)
    Blend: AUG-CC-PVTZ-JKFIT
    Number of shells: 116
    Number of basis functions: 444
    Number of Cartesian functions: 570
    Spherical Harmonics?: true
    Max angular momentum: 4

  Minimum eigenvalue in the overlap matrix is 3.5353574153E-04.
  Reciprocal condition number of the overlap matrix is 4.6478438556E-05.
    Using symmetric orthogonalization.

  ==> Pre-Iterations <==

  SCF Guess: Superposition of Atomic Densities via on-the-fly atomic UHF (no occupation information).

   -------------------------
    Irrep   Nso     Nmo    
   -------------------------
     A        151     151 
   -------------------------
    Total     151     151
   -------------------------

  ==> Iterations <==

                           Total Energy        Delta E     RMS |[F,P]|

   @DF-RHF iter SAD:   -75.46503798754344   -7.54650e+01   0.00000e+00 
   @DF-RHF iter   1:   -75.97318827143926   -5.08150e-01   3.09796e-03 DIIS/ADIIS
   @DF-RHF iter   2:   -76.02541970345300   -5.22314e-02   2.14852e-03 DIIS/ADIIS
   @DF-RHF iter   3:   -76.05810445136825   -3.26847e-02   1.46765e-04 DIIS/ADIIS
   @DF-RHF iter   4:   -76.05851119273545   -4.06741e-04   3.58809e-05 DIIS
   @DF-RHF iter   5:   -76.05853844877389   -2.72560e-05   8.37866e-06 DIIS
   @DF-RHF iter   6:   -76.05854076212925   -2.31336e-06   1.81835e-06 DIIS
   @DF-RHF iter   7:   -76.05854087982485   -1.17696e-07   3.10216e-07 DIIS
   @DF-RHF iter   8:   -76.05854088276814   -2.94330e-09   5.21205e-08 DIIS
   @DF-RHF iter   9:   -76.05854088283357   -6.54268e-11   1.28235e-08 DIIS
   @DF-RHF iter  10:   -76.05854088283812   -4.54747e-12   2.07657e-09 DIIS
  Energy and wave function converged.


  ==> Post-Iterations <==

    Orbital Energies [Eh]
    ---------------------

    Doubly Occupied:                                                      

       1A    -20.571158     2A     -1.348980     3A     -0.703462  
       4A     -0.588902     5A     -0.510241  

    Virtual:                                                              

       6A      0.025983     7A      0.047524     8A      0.064917  
       9A      0.075903    10A      0.091946    11A      0.102058  
      12A      0.148728    13A      0.182053    14A      0.183689  
      15A      0.202058    16A      0.224095    17A      0.246349  
      18A      0.282245    19A      0.290782    20A      0.294953  
      21A      0.312281    22A      0.323258    23A      0.329630  
      24A      0.344016    25A      0.345719    26A      0.386617  
      27A      0.418075    28A      0.422145    29A      0.443409  
      30A      0.462214    31A      0.472271    32A      0.501246  
      33A      0.616281    34A      0.671570    35A      0.717519  
      36A      0.744985    37A      0.767823    38A      0.837678  
      39A      0.880119    40A      0.888982    41A      0.905807  
      42A      0.917919    43A      0.944236    44A      0.954520  
      45A      0.963025    46A      0.989872    47A      1.000310  
      48A      1.016347    49A      1.028887    50A      1.041520  
      51A      1.049351    52A      1.059959    53A      1.073551  
      54A      1.091038    55A      1.103019    56A      1.116616  
      57A      1.123136    58A      1.136928    59A      1.151258  
      60A      1.168180    61A      1.189848    62A      1.231285  
      63A      1.269632    64A      1.289763    65A      1.318121  
      66A      1.359850    67A      1.471211    68A      1.530964  
      69A      1.545960    70A      1.583343    71A      1.686670  
      72A      1.841687    73A      1.862062    74A      1.988939  
      75A      2.135590    76A      2.317297    77A      2.347729  
      78A      2.375547    79A      2.463099    80A      2.482380  
      81A      2.513833    82A      2.590836    83A      2.687034  
      84A      2.753488    85A      2.785358    86A      2.794834  
      87A      2.858181    88A      2.870486    89A      2.900031  
      90A      2.972228    91A      3.015830    92A      3.119619  
      93A      3.121468    94A      3.152330    95A      3.162904  
      96A      3.220507    97A      3.273958    98A      3.288599  
      99A      3.288955   100A      3.313947   101A      3.336976  
     102A      3.373457   103A      3.505312   104A      3.683496  
     105A      3.824832   106A      4.093476   107A      4.147630  
     108A      4.183340   109A      4.261133   110A      4.299282  
     111A      4.387541   112A      4.424199   113A      4.456032  
     114A      4.535260   115A      4.738111   116A      4.846440  
     117A      5.128427   118A      5.189532   119A      5.209299  
     120A      5.315610   121A      5.525500   122A      5.620938  
     123A      6.255497   124A      6.515073   125A      6.773641  
     126A      6.939763   127A      7.154441   128A      7.234795  
     129A      7.285689   130A      7.322907   131A      7.368398  
     132A      7.398782   133A      7.508896   134A      7.849645  
     135A      7.932651   136A      8.777039   137A      9.514043  
     138A     13.446623   139A     13.460304   140A     13.569124  
     141A     15.549978   142A     26.130498   143A     26.131408  
     144A     26.154259   145A     26.183547   146A     26.287801  
     147A     45.439946   148A    138.396434   149A    138.417920  
     150A    138.582598   151A    708.578677  

    Final Occupation by Irrep:
              A 
    DOCC [     5 ]
    NA   [     5 ]
    NB   [     5 ]

  @DF-RHF Final Energy:   -76.05854088283812

   => Energetics <=

    Nuclear Repulsion Energy =              9.0698684679662698
    One-Electron Energy =                -122.8113329887359271
    Two-Electron Energy =                  37.6829236379315446
    Total Energy =                        -76.0585408828381162

Computation Completed


Properties will be evaluated at   0.000000,   0.000000,   0.000000 [a0]

Properties computed using the SCF density matrix


 Multipole Moments:

 ------------------------------------------------------------------------------------
     Multipole            Electronic (a.u.)      Nuclear  (a.u.)        Total (a.u.)
 ------------------------------------------------------------------------------------

 L = 1.  Multiply by 2.5417464519 to convert [e a0] to [Debye]
 Dipole X            :         -1.0525431            1.6072669            0.5547238
 Dipole Y            :         -0.3437375            0.5325551            0.1888175
 Dipole Z            :          1.0525275           -1.6072669           -0.5547394
 Magnitude           :                                                    0.8069116

 ------------------------------------------------------------------------------------

*** tstop() called on moses-razer at Wed Jan  3 15:15:40 2024
Module time:
	user time   =       5.83 seconds =       0.10 minutes
	system time =       0.47 seconds =       0.01 minutes
	total time  =          1 seconds =       0.02 minutes
Total time:
	user time   =      17.42 seconds =       0.29 minutes
	system time =       1.91 seconds =       0.03 minutes
	total time  =          5 seconds =       0.08 minutes

*** tstart() called on moses-razer
*** at Wed Jan  3 15:15:40 2024


  //>>>>>>>>>>>>>>>>>>>>>>>>>>>>>>>>>>>//
  //               DFMP2               //
  //<<<<<<<<<<<<<<<<<<<<<<<<<<<<<<<<<<<//

   => Loading Basis Set <=

    Name: (AUG-CC-PVTZ AUX)
    Role: RIFIT
    Keyword: DF_BASIS_MP2
    atoms 1   entry O          line   264 file /home/kchung25/anaconda3/envs/p415env/share/psi4/basis/aug-cc-pvtz-ri.gbs 
    atoms 2-3 entry H          line    30 file /home/kchung25/anaconda3/envs/p415env/share/psi4/basis/aug-cc-pvtz-ri.gbs 
    atoms 4   entry BR         line  1248 file /home/kchung25/anaconda3/envs/p415env/share/psi4/basis/aug-cc-pvtz-ri.gbs 

	 --------------------------------------------------------
	                          DF-MP2                         
	      2nd-Order Density-Fitted Moller-Plesset Theory     
	              RMP2 Wavefunction,   6 Threads             
	                                                         
	        Rob Parrish, Justin Turney, Andy Simmonett,      
	           Ed Hohenstein, and C. David Sherrill          
	 --------------------------------------------------------

   => Auxiliary Basis Set <=

  Basis Set: (AUG-CC-PVTZ AUX)
    Blend: AUG-CC-PVTZ-RI
    Number of shells: 99
    Number of basis functions: 389
    Number of Cartesian functions: 507
    Spherical Harmonics?: true
    Max angular momentum: 5

	 --------------------------------------------------------
	                 NBF =   151, NAUX =   389
	 --------------------------------------------------------
	   CLASS    FOCC     OCC    AOCC    AVIR     VIR    FVIR
	   PAIRS       0       5       5     146     146       0
	 --------------------------------------------------------

	-----------------------------------------------------------
	 ==================> DF-MP2 Energies <==================== 
	-----------------------------------------------------------
	 Reference Energy          =     -76.0585408828381162 [Eh]
	 Singles Energy            =      -0.0000000000000000 [Eh]
	 Same-Spin Energy          =      -0.0686791894635397 [Eh]
	 Opposite-Spin Energy      =      -0.2162759794947602 [Eh]
	 Correlation Energy        =      -0.2849551689582999 [Eh]
	 Total Energy              =     -76.3434960517964214 [Eh]
	-----------------------------------------------------------
	 ================> DF-SCS-MP2 Energies <================== 
	-----------------------------------------------------------
	 SCS Same-Spin Scale       =       0.3333333333333333 [-]
	 SCS Opposite-Spin Scale   =       1.2000000000000000 [-]
	 SCS Same-Spin Energy      =      -0.0228930631545132 [Eh]
	 SCS Opposite-Spin Energy  =      -0.2595311753937122 [Eh]
	 SCS Correlation Energy    =      -0.2824242385482255 [Eh]
	 SCS Total Energy          =     -76.3409651213863469 [Eh]
	-----------------------------------------------------------


*** tstop() called on moses-razer at Wed Jan  3 15:15:42 2024
Module time:
	user time   =       3.03 seconds =       0.05 minutes
	system time =       0.31 seconds =       0.01 minutes
	total time  =          2 seconds =       0.03 minutes
Total time:
	user time   =      20.45 seconds =       0.34 minutes
	system time =       2.22 seconds =       0.04 minutes
	total time  =          7 seconds =       0.12 minutes

    Psi4 stopped on: Wednesday, 03 January 2024 03:15PM
    Psi4 wall time for execution: 0:00:03.30


    -----------------------------------------------------------------------
          Psi4: An Open-Source Ab Initio Electronic Structure Package
                               Psi4 1.9 release

                         Git: Rev {} zzzzzzz 


    D. G. A. Smith, L. A. Burns, A. C. Simmonett, R. M. Parrish,
    M. C. Schieber, R. Galvelis, P. Kraus, H. Kruse, R. Di Remigio,
    A. Alenaizan, A. M. James, S. Lehtola, J. P. Misiewicz, M. Scheurer,
    R. A. Shaw, J. B. Schriber, Y. Xie, Z. L. Glick, D. A. Sirianni,
    J. S. O'Brien, J. M. Waldrop, A. Kumar, E. G. Hohenstein,
    B. P. Pritchard, B. R. Brooks, H. F. Schaefer III, A. Yu. Sokolov,
    K. Patkowski, A. E. DePrince III, U. Bozkaya, R. A. King,
    F. A. Evangelista, J. M. Turney, T. D. Crawford, C. D. Sherrill,
    J. Chem. Phys. 152(18) 184108 (2020). https://doi.org/10.1063/5.0006002

                            Additional Code Authors
    E. T. Seidl, C. L. Janssen, E. F. Valeev, M. L. Leininger,
    J. F. Gonthier, R. M. Richard, H. R. McAlexander, M. Saitow, X. Wang,
    P. Verma, M. H. Lechner, A. Jiang, S. Behnle, A. G. Heide,
    M. F. Herbst, and D. L. Poole

             Previous Authors, Complete List of Code Contributors,
                       and Citations for Specific Modules
    https://github.com/psi4/psi4/blob/master/codemeta.json
    https://github.com/psi4/psi4/graphs/contributors
    http://psicode.org/psi4manual/master/introduction.html#citing-psifour

    -----------------------------------------------------------------------


    Psi4 started on: Wednesday, 03 January 2024 03:15PM

    Process ID: 409124
    Host:       moses-razer
    PSIDATADIR: /home/kchung25/anaconda3/envs/psi4_19/share/psi4
    Memory:     55.9 GiB
    Threads:    6
    
  ==> Input QCSchema <==

--------------------------------------------------------------------------
{'driver': 'energy',
 'extras': {'psiapi': True, 'wfn_qcvars_only': True},
 'id': None,
 'keywords': {'SCF_TYPE': 'DF', 'function_kwargs': {}},
 'model': {'basis': 'aug-cc-pvtz', 'method': 'mp2'},
 'molecule': {'atom_labels': ['', '', '', ''],
              'atomic_numbers': [8, 1, 1, 35],
              'extras': {},
              'fix_com': True,
              'fix_orientation': True,
              'fix_symmetry': 'c1',
              'fragment_charges': [0.0, -1.0],
              'fragment_multiplicities': [1, 1],
              'fragments': [[0, 1, 2], [3]],
              'geometry': [0.0, 0.0, 0.0, 0.5482341154349469, 1.6366199876662575, -0.5482341154349469,
                           1.0590327563245743, -1.1040649298942344, -1.0590327563245743, 6.0699250368948245, 0.0, 0.0],
              'mass_numbers': [16, 1, 1, 79],
              'masses': [15.99491461957, 1.00782503223, 1.00782503223, 78.9183376],
              'molecular_charge': -1.0,
              'molecular_multiplicity': 1,
              'name': 'dimer',
              'provenance': {'creator': 'QCElemental',
                             'routine': 'qcelemental.molparse.from_string',
                             'version': '0.27.1'},
              'real': [True, True, True, True],
              'schema_name': 'qcschema_molecule',
              'schema_version': 2,
              'symbols': ['O', 'H', 'H', 'Br'],
              'validated': True},
 'protocols': {'stdout': True},
 'provenance': {'creator': 'QCElemental', 'routine': 'qcelemental.models.results', 'version': '0.27.1'},
 'schema_name': 'qcschema_input',
 'schema_version': 1}
--------------------------------------------------------------------------

Scratch directory: /scratch/
   => Libint2 <=

    Primary   basis highest AM E, G, H:  5, 4, 3
    Auxiliary basis highest AM E, G, H:  6, 5, 4
    Onebody   basis highest AM E, G, H:  6, 5, 4
    Solid Harmonics ordering:            gaussian

*** tstart() called on moses-razer
*** at Wed Jan  3 15:15:42 2024

   => Loading Basis Set <=

    Name: AUG-CC-PVTZ
    Role: ORBITAL
    Keyword: BASIS
    atoms 1   entry O          line   331 file /home/kchung25/anaconda3/envs/p415env/share/psi4/basis/aug-cc-pvtz.gbs 
    atoms 2-3 entry H          line    40 file /home/kchung25/anaconda3/envs/p415env/share/psi4/basis/aug-cc-pvtz.gbs 
    atoms 4   entry BR         line  4564 file /home/kchung25/anaconda3/envs/p415env/share/psi4/basis/aug-cc-pvtz.gbs 


         ---------------------------------------------------------
                                   SCF
               by Justin Turney, Rob Parrish, Andy Simmonett
                          and Daniel G. A. Smith
                              RHF Reference
                        6 Threads,  57220 MiB Core
         ---------------------------------------------------------

  ==> Geometry <==

    Molecular point group: c1
    Full point group: C1

    Geometry (in Bohr), charge = -1, multiplicity = 1:

       Center              X                  Y                   Z               Mass       
    ------------   -----------------  -----------------  -----------------  -----------------
         O            0.000000000000     0.000000000000     0.000000000000    15.994914619570
         H            0.548234115435     1.636619987666    -0.548234115435     1.007825032230
         H            1.059032756325    -1.104064929894    -1.059032756325     1.007825032230
         BR           6.069925036895     0.000000000000     0.000000000000    78.918337600000

  Running in c1 symmetry.

  Rotational constants: A =     11.23026  B =      0.02068  C =      0.02067 [cm^-1]
  Rotational constants: A = 336674.73165  B =    620.07875  C =    619.53492 [MHz]
  Nuclear repulsion =   67.929262570685296

  Charge       = -1
  Multiplicity = 1
  Electrons    = 46
  Nalpha       = 23
  Nbeta        = 23

  ==> Algorithm <==

  SCF Algorithm Type is DF.
  DIIS enabled.
  MOM disabled.
  Fractional occupation disabled.
  Guess Type is SAD.
  Energy threshold   = 1.00e-08
  Density threshold  = 1.00e-08
  Integral threshold = 1.00e-12

  ==> Primary Basis <==

  Basis Set: AUG-CC-PVTZ
    Blend: AUG-CC-PVTZ
    Number of shells: 51
    Number of basis functions: 151
    Number of Cartesian functions: 174
    Spherical Harmonics?: true
    Max angular momentum: 3

   => Loading Basis Set <=

    Name: (AUG-CC-PVTZ AUX)
    Role: JKFIT
    Keyword: DF_BASIS_SCF
    atoms 1   entry O          line   286 file /home/kchung25/anaconda3/envs/p415env/share/psi4/basis/aug-cc-pvtz-jkfit.gbs 
    atoms 2-3 entry H          line    70 file /home/kchung25/anaconda3/envs/p415env/share/psi4/basis/aug-cc-pvtz-jkfit.gbs 
    atoms 4   entry BR         line  1492 file /home/kchung25/anaconda3/envs/p415env/share/psi4/basis/aug-cc-pvtz-jkfit.gbs 

  ==> Integral Setup <==

  DFHelper Memory: AOs need 0.082 GiB; user supplied 41.910 GiB. 
  Using in-core AOs.

  ==> MemDFJK: Density-Fitted J/K Matrices <==

    J tasked:                   Yes
    K tasked:                   Yes
    wK tasked:                   No
    OpenMP threads:               6
    Memory [MiB]:             42915
    Algorithm:                 Core
    Schwarz Cutoff:           1E-12
    Mask sparsity (%):       0.3947
    Fitting Condition:        1E-10

   => Auxiliary Basis Set <=

  Basis Set: (AUG-CC-PVTZ AUX)
    Blend: AUG-CC-PVTZ-JKFIT
    Number of shells: 116
    Number of basis functions: 444
    Number of Cartesian functions: 570
    Spherical Harmonics?: true
    Max angular momentum: 4

  Minimum eigenvalue in the overlap matrix is 3.5353574153E-04.
  Reciprocal condition number of the overlap matrix is 4.6478438556E-05.
    Using symmetric orthogonalization.

  ==> Pre-Iterations <==

  SCF Guess: Superposition of Atomic Densities via on-the-fly atomic UHF (no occupation information).

   -------------------------
    Irrep   Nso     Nmo    
   -------------------------
     A        151     151 
   -------------------------
    Total     151     151
   -------------------------

  ==> Iterations <==

                           Total Energy        Delta E     RMS |[F,P]|

   @DF-RHF iter SAD: -2645.92591582277055   -2.64593e+03   0.00000e+00 
   @DF-RHF iter   1: -2648.24903975622510   -2.32312e+00   7.56211e-03 DIIS/ADIIS
   @DF-RHF iter   2: -2648.50346779078973   -2.54428e-01   4.29692e-03 DIIS/ADIIS
   @DF-RHF iter   3: -2648.59662499975047   -9.31572e-02   2.35166e-04 DIIS/ADIIS
   @DF-RHF iter   4: -2648.59719906886266   -5.74069e-04   1.21409e-04 DIIS/ADIIS
   @DF-RHF iter   5: -2648.59732796514663   -1.28896e-04   1.96162e-05 DIIS
   @DF-RHF iter   6: -2648.59733904613813   -1.10810e-05   4.11093e-06 DIIS
   @DF-RHF iter   7: -2648.59733966399244   -6.17854e-07   1.10575e-06 DIIS
   @DF-RHF iter   8: -2648.59733970565412   -4.16617e-08   2.99091e-07 DIIS
   @DF-RHF iter   9: -2648.59733970890375   -3.24962e-09   6.69541e-08 DIIS
   @DF-RHF iter  10: -2648.59733970903471   -1.30967e-10   1.80873e-08 DIIS
   @DF-RHF iter  11: -2648.59733970905017   -1.54614e-11   4.02263e-09 DIIS
  Energy and wave function converged.


  ==> Post-Iterations <==

    Orbital Energies [Eh]
    ---------------------

    Doubly Occupied:                                                      

       1A   -489.729818     2A    -64.870053     3A    -58.224544  
       4A    -58.224537     5A    -58.224470     6A    -20.400073  
       7A     -9.542541     8A     -7.150044     9A     -7.149986  
      10A     -7.149715    11A     -2.891831    12A     -2.891829  
      13A     -2.891451    14A     -2.891386    15A     -2.891280  
      16A     -1.180594    17A     -0.698505    18A     -0.536354  
      19A     -0.425830    20A     -0.344302    21A     -0.152022  
      22A     -0.151123    23A     -0.148367  

    Virtual:                                                              

      24A      0.146019    25A      0.157653    26A      0.236312  
      27A      0.242812    28A      0.256627    29A      0.274101  
      30A      0.287268    31A      0.305115    32A      0.316039  
      33A      0.361428    34A      0.370134    35A      0.395092  
      36A      0.432103    37A      0.455443    38A      0.487861  
      39A      0.495625    40A      0.526537    41A      0.541955  
      42A      0.557613    43A      0.571368    44A      0.584297  
      45A      0.605531    46A      0.624564    47A      0.740334  
      48A      0.756543    49A      0.763570    50A      0.785084  
      51A      0.825871    52A      0.869629    53A      0.885428  
      54A      0.894410    55A      0.980256    56A      1.002431  
      57A      1.014625    58A      1.023242    59A      1.028358  
      60A      1.030860    61A      1.051617    62A      1.065834  
      63A      1.078526    64A      1.102505    65A      1.105273  
      66A      1.133974    67A      1.165600    68A      1.180970  
      69A      1.193522    70A      1.197933    71A      1.205010  
      72A      1.223692    73A      1.259306    74A      1.263292  
      75A      1.322009    76A      1.365881    77A      1.377740  
      78A      1.418688    79A      1.458046    80A      1.501513  
      81A      1.587900    82A      1.647589    83A      1.697669  
      84A      1.734083    85A      1.813013    86A      2.003563  
      87A      2.023983    88A      2.145416    89A      2.291206  
      90A      2.403961    91A      2.419001    92A      2.438166  
      93A      2.481176    94A      2.495667    95A      2.506917  
      96A      2.560611    97A      2.560956    98A      2.563256  
      99A      2.575021   100A      2.578492   101A      2.583184  
     102A      2.602555   103A      2.613401   104A      2.635930  
     105A      2.653887   106A      2.665415   107A      2.685067  
     108A      2.713013   109A      2.744005   110A      2.813887  
     111A      2.854081   112A      2.893432   113A      2.950899  
     114A      2.963791   115A      3.009803   116A      3.068784  
     117A      3.840864   118A      3.933705   119A      4.219102  
     120A      4.263860   121A      4.314357   122A      4.353025  
     123A      4.429846   124A      4.472050   125A      4.555009  
     126A      4.591795   127A      4.644460   128A      4.704365  
     129A      4.906601   130A      5.015572   131A      5.297429  
     132A      5.360305   133A      5.376414   134A      5.483708  
     135A      5.694181   136A      5.787390   137A      6.422698  
     138A      6.681267   139A      6.942759   140A      7.107757  
     141A      7.323068   142A      7.401016   143A      7.453901  
     144A      7.489592   145A      7.536325   146A      7.570782  
     147A      7.677083   148A      8.016296   149A      8.099342  
     150A      8.946582   151A     15.717050  

    Final Occupation by Irrep:
              A 
    DOCC [    23 ]
    NA   [    23 ]
    NB   [    23 ]

  @DF-RHF Final Energy: -2648.59733970905017

   => Energetics <=

    Nuclear Repulsion Energy =             67.9292625706852959
    One-Electron Energy =               -3835.5318944555583585
    Two-Electron Energy =                1119.0052921758228877
    Total Energy =                      -2648.5973397090501749

Computation Completed


Properties will be evaluated at   0.000000,   0.000000,   0.000000 [a0]

Properties computed using the SCF density matrix


 Multipole Moments:

 ------------------------------------------------------------------------------------
     Multipole            Electronic (a.u.)      Nuclear  (a.u.)        Total (a.u.)
 ------------------------------------------------------------------------------------

 L = 1.  Multiply by 2.5417464519 to convert [e a0] to [Debye]
 Dipole X            :       -219.3350519          214.0546432           -5.2804087
 Dipole Y            :         -0.3596592            0.5325551            0.1728959
 Dipole Z            :          1.1835364           -1.6072669           -0.4237305
 Magnitude           :                                                    5.3002035

 ------------------------------------------------------------------------------------

*** tstop() called on moses-razer at Wed Jan  3 15:15:45 2024
Module time:
	user time   =       8.50 seconds =       0.14 minutes
	system time =       1.01 seconds =       0.02 minutes
	total time  =          3 seconds =       0.05 minutes
Total time:
	user time   =      29.17 seconds =       0.49 minutes
	system time =       3.23 seconds =       0.05 minutes
	total time  =         10 seconds =       0.17 minutes

*** tstart() called on moses-razer
*** at Wed Jan  3 15:15:45 2024


  //>>>>>>>>>>>>>>>>>>>>>>>>>>>>>>>>>>>//
  //               DFMP2               //
  //<<<<<<<<<<<<<<<<<<<<<<<<<<<<<<<<<<<//

   => Loading Basis Set <=

    Name: (AUG-CC-PVTZ AUX)
    Role: RIFIT
    Keyword: DF_BASIS_MP2
    atoms 1   entry O          line   264 file /home/kchung25/anaconda3/envs/p415env/share/psi4/basis/aug-cc-pvtz-ri.gbs 
    atoms 2-3 entry H          line    30 file /home/kchung25/anaconda3/envs/p415env/share/psi4/basis/aug-cc-pvtz-ri.gbs 
    atoms 4   entry BR         line  1248 file /home/kchung25/anaconda3/envs/p415env/share/psi4/basis/aug-cc-pvtz-ri.gbs 

	 --------------------------------------------------------
	                          DF-MP2                         
	      2nd-Order Density-Fitted Moller-Plesset Theory     
	              RMP2 Wavefunction,   6 Threads             
	                                                         
	        Rob Parrish, Justin Turney, Andy Simmonett,      
	           Ed Hohenstein, and C. David Sherrill          
	 --------------------------------------------------------

   => Auxiliary Basis Set <=

  Basis Set: (AUG-CC-PVTZ AUX)
    Blend: AUG-CC-PVTZ-RI
    Number of shells: 99
    Number of basis functions: 389
    Number of Cartesian functions: 507
    Spherical Harmonics?: true
    Max angular momentum: 5

	 --------------------------------------------------------
	                 NBF =   151, NAUX =   389
	 --------------------------------------------------------
	   CLASS    FOCC     OCC    AOCC    AVIR     VIR    FVIR
	   PAIRS       0      23      23     128     128       0
	 --------------------------------------------------------

	-----------------------------------------------------------
	 ==================> DF-MP2 Energies <==================== 
	-----------------------------------------------------------
	 Reference Energy          =   -2648.5973397090501749 [Eh]
	 Singles Energy            =      -0.0000000000000000 [Eh]
	 Same-Spin Energy          =      -0.1580315337425899 [Eh]
	 Opposite-Spin Energy      =      -0.4205802007019289 [Eh]
	 Correlation Energy        =      -0.5786117344445189 [Eh]
	 Total Energy              =   -2649.1759514434947960 [Eh]
	-----------------------------------------------------------
	 ================> DF-SCS-MP2 Energies <================== 
	-----------------------------------------------------------
	 SCS Same-Spin Scale       =       0.3333333333333333 [-]
	 SCS Opposite-Spin Scale   =       1.2000000000000000 [-]
	 SCS Same-Spin Energy      =      -0.0526771779141966 [Eh]
	 SCS Opposite-Spin Energy  =      -0.5046962408423147 [Eh]
	 SCS Correlation Energy    =      -0.5573734187565114 [Eh]
	 SCS Total Energy          =   -2649.1547131278066445 [Eh]
	-----------------------------------------------------------


*** tstop() called on moses-razer at Wed Jan  3 15:15:46 2024
Module time:
	user time   =       3.30 seconds =       0.06 minutes
	system time =       0.34 seconds =       0.01 minutes
	total time  =          1 seconds =       0.02 minutes
Total time:
	user time   =      32.48 seconds =       0.54 minutes
	system time =       3.57 seconds =       0.06 minutes
	total time  =         11 seconds =       0.18 minutes

    Psi4 stopped on: Wednesday, 03 January 2024 03:15PM
    Psi4 wall time for execution: 0:00:04.27


  //>>>>>>>>>>>>>>>>>>>>>>>>>>>>>>>>>>>//
  //          ManyBody Results         //
  //<<<<<<<<<<<<<<<<<<<<<<<<<<<<<<<<<<<//


   ==> N-Body: Counterpoise Corrected (CP) energies <==

        n-Body     Total Energy            Interaction Energy                          N-body Contribution to Interaction Energy
                   [Eh]                    [Eh]                  [kcal/mol]            [Eh]                  [kcal/mol]
             1  N/A                         0.000000000000        0.000000000000        0.000000000000        0.000000000000
  FULL/RTN   2  N/A                        -0.008716991896       -5.469994997650       -0.008716991896       -5.469994997650


    Psi4 stopped on: Wednesday, 03 January 2024 03:15PM
    Psi4 wall time for execution: 0:00:13.37

*** Psi4 exiting successfully. Buy a developer a beer!
