
    -----------------------------------------------------------------------
          Psi4: An Open-Source Ab Initio Electronic Structure Package
                               Psi4 1.9 release

                         Git: Rev {} zzzzzzz 


    D. G. A. Smith, L. A. Burns, A. C. Simmonett, R. M. Parrish,
    M. C. Schieber, R. Galvelis, P. Kraus, H. Kruse, R. Di Remigio,
    A. Alenaizan, A. M. James, S. Lehtola, J. P. Misiewicz, M. Scheurer,
    R. A. Shaw, J. B. Schriber, Y. Xie, Z. L. Glick, D. A. Sirianni,
    J. S. O'Brien, J. M. Waldrop, A. Kumar, E. G. Hohenstein,
    B. P. Pritchard, B. R. Brooks, H. F. Schaefer III, A. Yu. Sokolov,
    K. Patkowski, A. E. DePrince III, U. Bozkaya, R. A. King,
    F. A. Evangelista, J. M. Turney, T. D. Crawford, C. D. Sherrill,
    J. Chem. Phys. 152(18) 184108 (2020). https://doi.org/10.1063/5.0006002

                            Additional Code Authors
    E. T. Seidl, C. L. Janssen, E. F. Valeev, M. L. Leininger,
    J. F. Gonthier, R. M. Richard, H. R. McAlexander, M. Saitow, X. Wang,
    P. Verma, M. H. Lechner, A. Jiang, S. Behnle, A. G. Heide,
    M. F. Herbst, and D. L. Poole

             Previous Authors, Complete List of Code Contributors,
                       and Citations for Specific Modules
    https://github.com/psi4/psi4/blob/master/codemeta.json
    https://github.com/psi4/psi4/graphs/contributors
    http://psicode.org/psi4manual/master/introduction.html#citing-psifour

    -----------------------------------------------------------------------


    Psi4 started on: Wednesday, 03 January 2024 02:37PM

    Process ID: 404112
    Host:       moses-razer
    PSIDATADIR: /home/kchung25/anaconda3/envs/psi4_19/share/psi4
    Memory:     500.0 MiB
    Threads:    6
    
  ==> Input File <==

--------------------------------------------------------------------------
MEMORY 60 GB

molecule dimer {
0 1
O      0.000000     0.000000     0.000000
H     -0.185594     0.886847     0.321458
H     -0.382441    -0.582438     0.662407
--
1 1
Na     2.158940     0.000000     0.000000

units ang
no_reorient
no_com
symmetry c1
}

set {
basis        aug-cc-pVTZ
scf_type     df
}

energy("mp2", bsse_type="cp")
--------------------------------------------------------------------------

  Memory set to  55.879 GiB by Python driver.

Scratch directory: /scratch/

  //>>>>>>>>>>>>>>>>>>>>>>>>>>>>>>>>>>>>>//
  // ManyBody Setup: N-Body Levels [1, 2]//
  //<<<<<<<<<<<<<<<<<<<<<<<<<<<<<<<<<<<<<//

        Number of 1-body computations:     2
        Number of 2-body computations:     1

    -----------------------------------------------------------------------
          Psi4: An Open-Source Ab Initio Electronic Structure Package
                               Psi4 1.9 release

                         Git: Rev {} zzzzzzz 


    D. G. A. Smith, L. A. Burns, A. C. Simmonett, R. M. Parrish,
    M. C. Schieber, R. Galvelis, P. Kraus, H. Kruse, R. Di Remigio,
    A. Alenaizan, A. M. James, S. Lehtola, J. P. Misiewicz, M. Scheurer,
    R. A. Shaw, J. B. Schriber, Y. Xie, Z. L. Glick, D. A. Sirianni,
    J. S. O'Brien, J. M. Waldrop, A. Kumar, E. G. Hohenstein,
    B. P. Pritchard, B. R. Brooks, H. F. Schaefer III, A. Yu. Sokolov,
    K. Patkowski, A. E. DePrince III, U. Bozkaya, R. A. King,
    F. A. Evangelista, J. M. Turney, T. D. Crawford, C. D. Sherrill,
    J. Chem. Phys. 152(18) 184108 (2020). https://doi.org/10.1063/5.0006002

                            Additional Code Authors
    E. T. Seidl, C. L. Janssen, E. F. Valeev, M. L. Leininger,
    J. F. Gonthier, R. M. Richard, H. R. McAlexander, M. Saitow, X. Wang,
    P. Verma, M. H. Lechner, A. Jiang, S. Behnle, A. G. Heide,
    M. F. Herbst, and D. L. Poole

             Previous Authors, Complete List of Code Contributors,
                       and Citations for Specific Modules
    https://github.com/psi4/psi4/blob/master/codemeta.json
    https://github.com/psi4/psi4/graphs/contributors
    http://psicode.org/psi4manual/master/introduction.html#citing-psifour

    -----------------------------------------------------------------------


    Psi4 started on: Wednesday, 03 January 2024 02:37PM

    Process ID: 404112
    Host:       moses-razer
    PSIDATADIR: /home/kchung25/anaconda3/envs/psi4_19/share/psi4
    Memory:     55.9 GiB
    Threads:    6
    
  ==> Input QCSchema <==

--------------------------------------------------------------------------
{'driver': 'energy',
 'extras': {'psiapi': True, 'wfn_qcvars_only': True},
 'id': None,
 'keywords': {'SCF_TYPE': 'DF', 'function_kwargs': {}},
 'model': {'basis': 'aug-cc-pvtz', 'method': 'mp2'},
 'molecule': {'atom_labels': ['', '', '', ''],
              'atomic_numbers': [8, 1, 1, 11],
              'extras': {},
              'fix_com': True,
              'fix_orientation': True,
              'fix_symmetry': 'c1',
              'fragment_charges': [0.0, 1.0],
              'fragment_multiplicities': [1, 1],
              'fragments': [[0, 1, 2], [3]],
              'geometry': [0.0, 0.0, 0.0, -0.35072183052822015, 1.6758979451838987, 0.6074675808374226,
                           -0.7227087491462172, -1.1006483050594065, 1.2517678135861434, 4.0798053212959235, 0.0, 0.0],
              'mass_numbers': [16, 1, 1, 23],
              'masses': [15.99491461957, 1.00782503223, 1.00782503223, 22.989769282],
              'molecular_charge': 1.0,
              'molecular_multiplicity': 1,
              'name': 'dimer',
              'provenance': {'creator': 'QCElemental',
                             'routine': 'qcelemental.molparse.from_string',
                             'version': '0.27.1'},
              'real': [False, False, False, True],
              'schema_name': 'qcschema_molecule',
              'schema_version': 2,
              'symbols': ['O', 'H', 'H', 'Na'],
              'validated': True},
 'protocols': {'stdout': True},
 'provenance': {'creator': 'QCElemental', 'routine': 'qcelemental.models.results', 'version': '0.27.1'},
 'schema_name': 'qcschema_input',
 'schema_version': 1}
--------------------------------------------------------------------------

Scratch directory: /scratch/
   => Libint2 <=

    Primary   basis highest AM E, G, H:  5, 4, 3
    Auxiliary basis highest AM E, G, H:  6, 5, 4
    Onebody   basis highest AM E, G, H:  6, 5, 4
    Solid Harmonics ordering:            gaussian

*** tstart() called on moses-razer
*** at Wed Jan  3 14:37:15 2024

   => Loading Basis Set <=

    Name: AUG-CC-PVTZ
    Role: ORBITAL
    Keyword: BASIS
    atoms 1   entry O          line   331 file /home/kchung25/anaconda3/envs/p415env/share/psi4/basis/aug-cc-pvtz.gbs 
    atoms 2-3 entry H          line    40 file /home/kchung25/anaconda3/envs/p415env/share/psi4/basis/aug-cc-pvtz.gbs 
    atoms 4   entry NA         line   469 file /home/kchung25/anaconda3/envs/p415env/share/psi4/basis/aug-cc-pvtz.gbs 


         ---------------------------------------------------------
                                   SCF
               by Justin Turney, Rob Parrish, Andy Simmonett
                          and Daniel G. A. Smith
                              RHF Reference
                        6 Threads,  57220 MiB Core
         ---------------------------------------------------------

  ==> Geometry <==

    Molecular point group: c1
    Full point group: C1

    Geometry (in Bohr), charge = 1, multiplicity = 1:

       Center              X                  Y                   Z               Mass       
    ------------   -----------------  -----------------  -----------------  -----------------
      Gh(O)           0.000000000000     0.000000000000     0.000000000000    15.994914619570
      Gh(H)          -0.350721830528     1.675897945184     0.607467580837     1.007825032230
      Gh(H)          -0.722708749146    -1.100648305059     1.251767813586     1.007825032230
         NA           4.079805321296     0.000000000000     0.000000000000    22.989769282000

  Running in c1 symmetry.

  Rotational constants: A =     10.03468  B =      0.15628  C =      0.15538 [cm^-1]
  Rotational constants: A = 300832.21581  B =   4685.18827  C =   4658.28502 [MHz]
  Nuclear repulsion =    0.000000000000000

  Charge       = 1
  Multiplicity = 1
  Electrons    = 10
  Nalpha       = 5
  Nbeta        = 5

  ==> Algorithm <==

  SCF Algorithm Type is DF.
  DIIS enabled.
  MOM disabled.
  Fractional occupation disabled.
  Guess Type is SAD.
  Energy threshold   = 1.00e-08
  Density threshold  = 1.00e-08
  Integral threshold = 1.00e-12

  ==> Primary Basis <==

  Basis Set: AUG-CC-PVTZ
    Blend: AUG-CC-PVTZ
    Number of shells: 48
    Number of basis functions: 142
    Number of Cartesian functions: 164
    Spherical Harmonics?: true
    Max angular momentum: 3

   => Loading Basis Set <=

    Name: (AUG-CC-PVTZ AUX)
    Role: JKFIT
    Keyword: DF_BASIS_SCF
    atoms 1   entry O          line   286 file /home/kchung25/anaconda3/envs/p415env/share/psi4/basis/aug-cc-pvtz-jkfit.gbs 
    atoms 2-3 entry H          line    70 file /home/kchung25/anaconda3/envs/p415env/share/psi4/basis/aug-cc-pvtz-jkfit.gbs 
    atoms 4   entry NA         line   498 file /home/kchung25/anaconda3/envs/p415env/share/psi4/basis/def2-universal-jkfit.gbs 

  ==> Integral Setup <==

  DFHelper Memory: AOs need 0.052 GiB; user supplied 41.910 GiB. 
  Using in-core AOs.

  ==> MemDFJK: Density-Fitted J/K Matrices <==

    J tasked:                   Yes
    K tasked:                   Yes
    wK tasked:                   No
    OpenMP threads:               6
    Memory [MiB]:             42915
    Algorithm:                 Core
    Schwarz Cutoff:           1E-12
    Mask sparsity (%):       0.0000
    Fitting Condition:        1E-10

   => Auxiliary Basis Set <=

  Basis Set: (AUG-CC-PVTZ AUX)
    Blend: AUG-CC-PVTZ-JKFIT + DEF2-UNIVERSAL-JKFIT
    Number of shells: 92
    Number of basis functions: 308
    Number of Cartesian functions: 378
    Spherical Harmonics?: true
    Max angular momentum: 4

  Minimum eigenvalue in the overlap matrix is 8.5010127980E-05.
  Reciprocal condition number of the overlap matrix is 9.5107431839E-06.
    Using symmetric orthogonalization.

  ==> Pre-Iterations <==

  SCF Guess: Superposition of Atomic Densities via on-the-fly atomic UHF (no occupation information).

   -------------------------
    Irrep   Nso     Nmo    
   -------------------------
     A        142     142 
   -------------------------
    Total     142     142
   -------------------------

  ==> Iterations <==

                           Total Energy        Delta E     RMS |[F,P]|

   @DF-RHF iter SAD:  -161.74560602266223   -1.61746e+02   0.00000e+00 
   @DF-RHF iter   1:  -161.67602659376703    6.95794e-02   4.12164e-05 DIIS
   @DF-RHF iter   2:  -161.67604439205280   -1.77983e-05   7.97969e-06 DIIS
   @DF-RHF iter   3:  -161.67604485270411   -4.60651e-07   3.22839e-07 DIIS
   @DF-RHF iter   4:  -161.67604485346808   -7.63976e-10   3.05873e-08 DIIS
   @DF-RHF iter   5:  -161.67604485347510   -7.02016e-12   1.88656e-09 DIIS
  Energy and wave function converged.


  ==> Post-Iterations <==

    Orbital Energies [Eh]
    ---------------------

    Doubly Occupied:                                                      

       1A    -40.762567     2A     -3.074808     3A     -1.798120  
       4A     -1.797988     5A     -1.797961  

    Virtual:                                                              

       6A     -0.181833     7A     -0.109447     8A     -0.109436  
       9A     -0.109434    10A     -0.069991    11A     -0.050871  
      12A     -0.050719    13A     -0.050430    14A     -0.050241  
      15A     -0.050235    16A     -0.049043    17A     -0.048980  
      18A     -0.048963    19A     -0.020904    20A     -0.006900  
      21A     -0.000918    22A     -0.000102    23A      0.000626  
      24A      0.011288    25A      0.037755    26A      0.040241  
      27A      0.040431    28A      0.058177    29A      0.058542  
      30A      0.069799    31A      0.090825    32A      0.097373  
      33A      0.104790    34A      0.104999    35A      0.107132  
      36A      0.122673    37A      0.128692    38A      0.150114  
      39A      0.154164    40A      0.170251    41A      0.180218  
      42A      0.182399    43A      0.207422    44A      0.212224  
      45A      0.223710    46A      0.257661    47A      0.267469  
      48A      0.280549    49A      0.289139    50A      0.321499  
      51A      0.337458    52A      0.372883    53A      0.375264  
      54A      0.385623    55A      0.420067    56A      0.437854  
      57A      0.486453    58A      0.491957    59A      0.494039  
      60A      0.495410    61A      0.499867    62A      0.546293  
      63A      0.554259    64A      0.608654    65A      0.673509  
      66A      0.674548    67A      0.715392    68A      0.744024  
      69A      0.771569    70A      0.784552    71A      0.840381  
      72A      0.856852    73A      0.875565    74A      0.886015  
      75A      0.917551    76A      0.957150    77A      0.994910  
      78A      1.038004    79A      1.051845    80A      1.056019  
      81A      1.132196    82A      1.186766    83A      1.311956  
      84A      1.346217    85A      1.584316    86A      1.617732  
      87A      1.665861    88A      1.671326    89A      1.726286  
      90A      1.856632    91A      1.894389    92A      2.176673  
      93A      2.311799    94A      2.334896    95A      2.341970  
      96A      2.365255    97A      2.418855    98A      2.565185  
      99A      2.644917   100A      2.676888   101A      2.977057  
     102A      2.985854   103A      3.043967   104A      3.119569  
     105A      3.123606   106A      3.337983   107A      3.477756  
     108A      4.177502   109A      4.319387   110A      4.332287  
     111A      4.444008   112A      4.481658   113A      4.516778  
     114A      4.744935   115A      4.785856   116A      4.882218  
     117A      5.013100   118A      5.331783   119A      5.425754  
     120A      5.450898   121A      5.653114   122A      5.965082  
     123A      6.181293   124A      6.428969   125A      6.847227  
     126A      7.441575   127A      7.580865   128A      7.844891  
     129A      7.935629   130A      8.060190   131A      8.527755  
     132A      8.602026   133A      9.552824   134A      9.710245  
     135A      9.793597   136A      9.982552   137A     10.994560  
     138A     11.567731   139A     11.925949   140A     13.298233  
     141A     13.609610   142A     64.765381  

    Final Occupation by Irrep:
              A 
    DOCC [     5 ]
    NA   [     5 ]
    NB   [     5 ]

  @DF-RHF Final Energy:  -161.67604485347510

   => Energetics <=

    Nuclear Repulsion Energy =              0.0000000000000000
    One-Electron Energy =                -224.8892016346602531
    Two-Electron Energy =                  63.2131567811851411
    Total Energy =                       -161.6760448534751049

Computation Completed


Properties will be evaluated at   0.000000,   0.000000,   0.000000 [a0]

Properties computed using the SCF density matrix


 Multipole Moments:

 ------------------------------------------------------------------------------------
     Multipole            Electronic (a.u.)      Nuclear  (a.u.)        Total (a.u.)
 ------------------------------------------------------------------------------------

 L = 1.  Multiply by 2.5417464519 to convert [e a0] to [Debye]
 Dipole X            :        -40.7986857           44.8778585            4.0791728
 Dipole Y            :          0.0000346            0.0000000            0.0000346
 Dipole Z            :          0.0000811            0.0000000            0.0000811
 Magnitude           :                                                    4.0791728

 ------------------------------------------------------------------------------------

*** tstop() called on moses-razer at Wed Jan  3 14:37:16 2024
Module time:
	user time   =       4.96 seconds =       0.08 minutes
	system time =       0.67 seconds =       0.01 minutes
	total time  =          1 seconds =       0.02 minutes
Total time:
	user time   =       4.96 seconds =       0.08 minutes
	system time =       0.67 seconds =       0.01 minutes
	total time  =          1 seconds =       0.02 minutes

*** tstart() called on moses-razer
*** at Wed Jan  3 14:37:16 2024


  //>>>>>>>>>>>>>>>>>>>>>>>>>>>>>>>>>>>//
  //               DFMP2               //
  //<<<<<<<<<<<<<<<<<<<<<<<<<<<<<<<<<<<//

   => Loading Basis Set <=

    Name: (AUG-CC-PVTZ AUX)
    Role: RIFIT
    Keyword: DF_BASIS_MP2
    atoms 1   entry O          line   264 file /home/kchung25/anaconda3/envs/p415env/share/psi4/basis/aug-cc-pvtz-ri.gbs 
    atoms 2-3 entry H          line    30 file /home/kchung25/anaconda3/envs/p415env/share/psi4/basis/aug-cc-pvtz-ri.gbs 
    atoms 4   entry NA         line   610 file /home/kchung25/anaconda3/envs/p415env/share/psi4/basis/def2-qzvpp-ri.gbs 

	 --------------------------------------------------------
	                          DF-MP2                         
	      2nd-Order Density-Fitted Moller-Plesset Theory     
	              RMP2 Wavefunction,   6 Threads             
	                                                         
	        Rob Parrish, Justin Turney, Andy Simmonett,      
	           Ed Hohenstein, and C. David Sherrill          
	 --------------------------------------------------------

   => Auxiliary Basis Set <=

  Basis Set: (AUG-CC-PVTZ AUX)
    Blend: AUG-CC-PVTZ-RI + DEF2-QZVPP-RI
    Number of shells: 98
    Number of basis functions: 364
    Number of Cartesian functions: 460
    Spherical Harmonics?: true
    Max angular momentum: 4

	 --------------------------------------------------------
	                 NBF =   142, NAUX =   364
	 --------------------------------------------------------
	   CLASS    FOCC     OCC    AOCC    AVIR     VIR    FVIR
	   PAIRS       0       5       5     137     137       0
	 --------------------------------------------------------

	-----------------------------------------------------------
	 ==================> DF-MP2 Energies <==================== 
	-----------------------------------------------------------
	 Reference Energy          =    -161.6760448534751049 [Eh]
	 Singles Energy            =      -0.0000000000000000 [Eh]
	 Same-Spin Energy          =      -0.0029921862522568 [Eh]
	 Opposite-Spin Energy      =      -0.0107917769867308 [Eh]
	 Correlation Energy        =      -0.0137839632389876 [Eh]
	 Total Energy              =    -161.6898288167140834 [Eh]
	-----------------------------------------------------------
	 ================> DF-SCS-MP2 Energies <================== 
	-----------------------------------------------------------
	 SCS Same-Spin Scale       =       0.3333333333333333 [-]
	 SCS Opposite-Spin Scale   =       1.2000000000000000 [-]
	 SCS Same-Spin Energy      =      -0.0009973954174189 [Eh]
	 SCS Opposite-Spin Energy  =      -0.0129501323840770 [Eh]
	 SCS Correlation Energy    =      -0.0139475278014959 [Eh]
	 SCS Total Energy          =    -161.6899923812765962 [Eh]
	-----------------------------------------------------------


*** tstop() called on moses-razer at Wed Jan  3 14:37:17 2024
Module time:
	user time   =       2.11 seconds =       0.04 minutes
	system time =       0.19 seconds =       0.00 minutes
	total time  =          1 seconds =       0.02 minutes
Total time:
	user time   =       7.08 seconds =       0.12 minutes
	system time =       0.86 seconds =       0.01 minutes
	total time  =          2 seconds =       0.03 minutes

    Psi4 stopped on: Wednesday, 03 January 2024 02:37PM
    Psi4 wall time for execution: 0:00:01.91


    -----------------------------------------------------------------------
          Psi4: An Open-Source Ab Initio Electronic Structure Package
                               Psi4 1.9 release

                         Git: Rev {} zzzzzzz 


    D. G. A. Smith, L. A. Burns, A. C. Simmonett, R. M. Parrish,
    M. C. Schieber, R. Galvelis, P. Kraus, H. Kruse, R. Di Remigio,
    A. Alenaizan, A. M. James, S. Lehtola, J. P. Misiewicz, M. Scheurer,
    R. A. Shaw, J. B. Schriber, Y. Xie, Z. L. Glick, D. A. Sirianni,
    J. S. O'Brien, J. M. Waldrop, A. Kumar, E. G. Hohenstein,
    B. P. Pritchard, B. R. Brooks, H. F. Schaefer III, A. Yu. Sokolov,
    K. Patkowski, A. E. DePrince III, U. Bozkaya, R. A. King,
    F. A. Evangelista, J. M. Turney, T. D. Crawford, C. D. Sherrill,
    J. Chem. Phys. 152(18) 184108 (2020). https://doi.org/10.1063/5.0006002

                            Additional Code Authors
    E. T. Seidl, C. L. Janssen, E. F. Valeev, M. L. Leininger,
    J. F. Gonthier, R. M. Richard, H. R. McAlexander, M. Saitow, X. Wang,
    P. Verma, M. H. Lechner, A. Jiang, S. Behnle, A. G. Heide,
    M. F. Herbst, and D. L. Poole

             Previous Authors, Complete List of Code Contributors,
                       and Citations for Specific Modules
    https://github.com/psi4/psi4/blob/master/codemeta.json
    https://github.com/psi4/psi4/graphs/contributors
    http://psicode.org/psi4manual/master/introduction.html#citing-psifour

    -----------------------------------------------------------------------


    Psi4 started on: Wednesday, 03 January 2024 02:37PM

    Process ID: 404112
    Host:       moses-razer
    PSIDATADIR: /home/kchung25/anaconda3/envs/psi4_19/share/psi4
    Memory:     55.9 GiB
    Threads:    6
    
  ==> Input QCSchema <==

--------------------------------------------------------------------------
{'driver': 'energy',
 'extras': {'psiapi': True, 'wfn_qcvars_only': True},
 'id': None,
 'keywords': {'SCF_TYPE': 'DF', 'function_kwargs': {}},
 'model': {'basis': 'aug-cc-pvtz', 'method': 'mp2'},
 'molecule': {'atom_labels': ['', '', '', ''],
              'atomic_numbers': [8, 1, 1, 11],
              'extras': {},
              'fix_com': True,
              'fix_orientation': True,
              'fix_symmetry': 'c1',
              'fragment_charges': [0.0, 0.0],
              'fragment_multiplicities': [1, 1],
              'fragments': [[0, 1, 2], [3]],
              'geometry': [0.0, 0.0, 0.0, -0.35072183052822015, 1.6758979451838987, 0.6074675808374226,
                           -0.7227087491462172, -1.1006483050594065, 1.2517678135861434, 4.0798053212959235, 0.0, 0.0],
              'mass_numbers': [16, 1, 1, 23],
              'masses': [15.99491461957, 1.00782503223, 1.00782503223, 22.989769282],
              'molecular_charge': 0.0,
              'molecular_multiplicity': 1,
              'name': 'dimer',
              'provenance': {'creator': 'QCElemental',
                             'routine': 'qcelemental.molparse.from_string',
                             'version': '0.27.1'},
              'real': [True, True, True, False],
              'schema_name': 'qcschema_molecule',
              'schema_version': 2,
              'symbols': ['O', 'H', 'H', 'Na'],
              'validated': True},
 'protocols': {'stdout': True},
 'provenance': {'creator': 'QCElemental', 'routine': 'qcelemental.models.results', 'version': '0.27.1'},
 'schema_name': 'qcschema_input',
 'schema_version': 1}
--------------------------------------------------------------------------

Scratch directory: /scratch/
   => Libint2 <=

    Primary   basis highest AM E, G, H:  5, 4, 3
    Auxiliary basis highest AM E, G, H:  6, 5, 4
    Onebody   basis highest AM E, G, H:  6, 5, 4
    Solid Harmonics ordering:            gaussian

*** tstart() called on moses-razer
*** at Wed Jan  3 14:37:17 2024

   => Loading Basis Set <=

    Name: AUG-CC-PVTZ
    Role: ORBITAL
    Keyword: BASIS
    atoms 1   entry O          line   331 file /home/kchung25/anaconda3/envs/p415env/share/psi4/basis/aug-cc-pvtz.gbs 
    atoms 2-3 entry H          line    40 file /home/kchung25/anaconda3/envs/p415env/share/psi4/basis/aug-cc-pvtz.gbs 
    atoms 4   entry NA         line   469 file /home/kchung25/anaconda3/envs/p415env/share/psi4/basis/aug-cc-pvtz.gbs 


         ---------------------------------------------------------
                                   SCF
               by Justin Turney, Rob Parrish, Andy Simmonett
                          and Daniel G. A. Smith
                              RHF Reference
                        6 Threads,  57220 MiB Core
         ---------------------------------------------------------

  ==> Geometry <==

    Molecular point group: c1
    Full point group: C1

    Geometry (in Bohr), charge = 0, multiplicity = 1:

       Center              X                  Y                   Z               Mass       
    ------------   -----------------  -----------------  -----------------  -----------------
         O            0.000000000000     0.000000000000     0.000000000000    15.994914619570
         H           -0.350721830528     1.675897945184     0.607467580837     1.007825032230
         H           -0.722708749146    -1.100648305059     1.251767813586     1.007825032230
      Gh(NA)          4.079805321296     0.000000000000     0.000000000000    22.989769282000

  Running in c1 symmetry.

  Rotational constants: A =     10.03468  B =      0.15628  C =      0.15538 [cm^-1]
  Rotational constants: A = 300832.21581  B =   4685.18827  C =   4658.28502 [MHz]
  Nuclear repulsion =    9.154721086394325

  Charge       = 0
  Multiplicity = 1
  Electrons    = 10
  Nalpha       = 5
  Nbeta        = 5

  ==> Algorithm <==

  SCF Algorithm Type is DF.
  DIIS enabled.
  MOM disabled.
  Fractional occupation disabled.
  Guess Type is SAD.
  Energy threshold   = 1.00e-08
  Density threshold  = 1.00e-08
  Integral threshold = 1.00e-12

  ==> Primary Basis <==

  Basis Set: AUG-CC-PVTZ
    Blend: AUG-CC-PVTZ
    Number of shells: 48
    Number of basis functions: 142
    Number of Cartesian functions: 164
    Spherical Harmonics?: true
    Max angular momentum: 3

   => Loading Basis Set <=

    Name: (AUG-CC-PVTZ AUX)
    Role: JKFIT
    Keyword: DF_BASIS_SCF
    atoms 1   entry O          line   286 file /home/kchung25/anaconda3/envs/p415env/share/psi4/basis/aug-cc-pvtz-jkfit.gbs 
    atoms 2-3 entry H          line    70 file /home/kchung25/anaconda3/envs/p415env/share/psi4/basis/aug-cc-pvtz-jkfit.gbs 
    atoms 4   entry NA         line   498 file /home/kchung25/anaconda3/envs/p415env/share/psi4/basis/def2-universal-jkfit.gbs 

  ==> Integral Setup <==

  DFHelper Memory: AOs need 0.052 GiB; user supplied 41.910 GiB. 
  Using in-core AOs.

  ==> MemDFJK: Density-Fitted J/K Matrices <==

    J tasked:                   Yes
    K tasked:                   Yes
    wK tasked:                   No
    OpenMP threads:               6
    Memory [MiB]:             42915
    Algorithm:                 Core
    Schwarz Cutoff:           1E-12
    Mask sparsity (%):       0.0000
    Fitting Condition:        1E-10

   => Auxiliary Basis Set <=

  Basis Set: (AUG-CC-PVTZ AUX)
    Blend: AUG-CC-PVTZ-JKFIT + DEF2-UNIVERSAL-JKFIT
    Number of shells: 92
    Number of basis functions: 308
    Number of Cartesian functions: 378
    Spherical Harmonics?: true
    Max angular momentum: 4

  Minimum eigenvalue in the overlap matrix is 8.5010127980E-05.
  Reciprocal condition number of the overlap matrix is 9.5107431839E-06.
    Using symmetric orthogonalization.

  ==> Pre-Iterations <==

  SCF Guess: Superposition of Atomic Densities via on-the-fly atomic UHF (no occupation information).

   -------------------------
    Irrep   Nso     Nmo    
   -------------------------
     A        142     142 
   -------------------------
    Total     142     142
   -------------------------

  ==> Iterations <==

                           Total Energy        Delta E     RMS |[F,P]|

   @DF-RHF iter SAD:   -75.47320784290540   -7.54732e+01   0.00000e+00 
   @DF-RHF iter   1:   -75.97596944183974   -5.02762e-01   3.29806e-03 DIIS/ADIIS
   @DF-RHF iter   2:   -76.02840194149361   -5.24325e-02   2.25234e-03 DIIS/ADIIS
   @DF-RHF iter   3:   -76.05995638737328   -3.15544e-02   1.54407e-04 DIIS/ADIIS
   @DF-RHF iter   4:   -76.06035204065030   -3.95653e-04   3.66798e-05 DIIS
   @DF-RHF iter   5:   -76.06037673433653   -2.46937e-05   8.37452e-06 DIIS
   @DF-RHF iter   6:   -76.06037876810997   -2.03377e-06   1.83702e-06 DIIS
   @DF-RHF iter   7:   -76.06037887582558   -1.07716e-07   3.32104e-07 DIIS
   @DF-RHF iter   8:   -76.06037887891279   -3.08721e-09   5.53521e-08 DIIS
   @DF-RHF iter   9:   -76.06037887898084   -6.80558e-11   1.37632e-08 DIIS
   @DF-RHF iter  10:   -76.06037887898520   -4.36273e-12   1.99483e-09 DIIS
  Energy and wave function converged.


  ==> Post-Iterations <==

    Orbital Energies [Eh]
    ---------------------

    Doubly Occupied:                                                      

       1A    -20.567730     2A     -1.351319     3A     -0.715597  
       4A     -0.583943     5A     -0.509969  

    Virtual:                                                              

       6A      0.008242     7A      0.017082     8A      0.017751  
       9A      0.019602    10A      0.045436    11A      0.056908  
      12A      0.059194    13A      0.061519    14A      0.062846  
      15A      0.069079    16A      0.072397    17A      0.074189  
      18A      0.076312    19A      0.094431    20A      0.099034  
      21A      0.146278    22A      0.155331    23A      0.158886  
      24A      0.173751    25A      0.197124    26A      0.200547  
      27A      0.219243    28A      0.236438    29A      0.239920  
      30A      0.261183    31A      0.262919    32A      0.267893  
      33A      0.280249    34A      0.280853    35A      0.284950  
      36A      0.287462    37A      0.317250    38A      0.336332  
      39A      0.337087    40A      0.342056    41A      0.352058  
      42A      0.356258    43A      0.372474    44A      0.389959  
      45A      0.406962    46A      0.457413    47A      0.467372  
      48A      0.475696    49A      0.498996    50A      0.509531  
      51A      0.556610    52A      0.642857    53A      0.678458  
      54A      0.703532    55A      0.708504    56A      0.733509  
      57A      0.734809    58A      0.755805    59A      0.777205  
      60A      0.777891    61A      0.779063    62A      0.803910  
      63A      0.816660    64A      0.840190    65A      0.848957  
      66A      0.881850    67A      0.923567    68A      0.948920  
      69A      0.959275    70A      0.987178    71A      1.012605  
      72A      1.032813    73A      1.052620    74A      1.081280  
      75A      1.086890    76A      1.101707    77A      1.147884  
      78A      1.198073    79A      1.210515    80A      1.272950  
      81A      1.297394    82A      1.331495    83A      1.351740  
      84A      1.578754    85A      1.639545    86A      1.691668  
      87A      1.773708    88A      1.837173    89A      2.011852  
      90A      2.037567    91A      2.166059    92A      2.329024  
      93A      2.402650    94A      2.418251    95A      2.463320  
      96A      2.539356    97A      2.568506    98A      2.601427  
      99A      2.736124   100A      2.795154   101A      2.828706  
     102A      2.859284   103A      2.924949   104A      3.774130  
     105A      3.820859   106A      4.063761   107A      4.198080  
     108A      4.263007   109A      4.295682   110A      4.361602  
     111A      4.459818   112A      4.482365   113A      4.522216  
     114A      4.557575   115A      4.680935   116A      4.825350  
     117A      4.867389   118A      5.158156   119A      5.179347  
     120A      5.278774   121A      5.351709   122A      5.526325  
     123A      5.719017   124A      6.234017   125A      6.397930  
     126A      6.450098   127A      6.564378   128A      6.742237  
     129A      6.887939   130A      7.010576   131A      7.243046  
     132A      7.320662   133A      7.341409   134A      7.409488  
     135A      7.412308   136A      7.597958   137A      7.646078  
     138A      7.923891   139A      7.970447   140A      8.853503  
     141A     15.955539   142A     64.519254  

    Final Occupation by Irrep:
              A 
    DOCC [     5 ]
    NA   [     5 ]
    NB   [     5 ]

  @DF-RHF Final Energy:   -76.06037887898520

   => Energetics <=

    Nuclear Repulsion Energy =              9.1547210863943249
    One-Electron Energy =                -122.9730835328344796
    Two-Electron Energy =                  37.7579835674549429
    Total Energy =                        -76.0603788789852047

Computation Completed


Properties will be evaluated at   0.000000,   0.000000,   0.000000 [a0]

Properties computed using the SCF density matrix


 Multipole Moments:

 ------------------------------------------------------------------------------------
     Multipole            Electronic (a.u.)      Nuclear  (a.u.)        Total (a.u.)
 ------------------------------------------------------------------------------------

 L = 1.  Multiply by 2.5417464519 to convert [e a0] to [Debye]
 Dipole X            :          0.6963798           -1.0734306           -0.3770508
 Dipole Y            :         -0.3733213            0.5752496            0.2019284
 Dipole Z            :         -1.2066426            1.8592354            0.6525928
 Magnitude           :                                                    0.7802690

 ------------------------------------------------------------------------------------

*** tstop() called on moses-razer at Wed Jan  3 14:37:18 2024
Module time:
	user time   =       4.72 seconds =       0.08 minutes
	system time =       0.37 seconds =       0.01 minutes
	total time  =          1 seconds =       0.02 minutes
Total time:
	user time   =      12.02 seconds =       0.20 minutes
	system time =       1.23 seconds =       0.02 minutes
	total time  =          3 seconds =       0.05 minutes

*** tstart() called on moses-razer
*** at Wed Jan  3 14:37:18 2024


  //>>>>>>>>>>>>>>>>>>>>>>>>>>>>>>>>>>>//
  //               DFMP2               //
  //<<<<<<<<<<<<<<<<<<<<<<<<<<<<<<<<<<<//

   => Loading Basis Set <=

    Name: (AUG-CC-PVTZ AUX)
    Role: RIFIT
    Keyword: DF_BASIS_MP2
    atoms 1   entry O          line   264 file /home/kchung25/anaconda3/envs/p415env/share/psi4/basis/aug-cc-pvtz-ri.gbs 
    atoms 2-3 entry H          line    30 file /home/kchung25/anaconda3/envs/p415env/share/psi4/basis/aug-cc-pvtz-ri.gbs 
    atoms 4   entry NA         line   610 file /home/kchung25/anaconda3/envs/p415env/share/psi4/basis/def2-qzvpp-ri.gbs 

	 --------------------------------------------------------
	                          DF-MP2                         
	      2nd-Order Density-Fitted Moller-Plesset Theory     
	              RMP2 Wavefunction,   6 Threads             
	                                                         
	        Rob Parrish, Justin Turney, Andy Simmonett,      
	           Ed Hohenstein, and C. David Sherrill          
	 --------------------------------------------------------

   => Auxiliary Basis Set <=

  Basis Set: (AUG-CC-PVTZ AUX)
    Blend: AUG-CC-PVTZ-RI + DEF2-QZVPP-RI
    Number of shells: 98
    Number of basis functions: 364
    Number of Cartesian functions: 460
    Spherical Harmonics?: true
    Max angular momentum: 4

	 --------------------------------------------------------
	                 NBF =   142, NAUX =   364
	 --------------------------------------------------------
	   CLASS    FOCC     OCC    AOCC    AVIR     VIR    FVIR
	   PAIRS       0       5       5     137     137       0
	 --------------------------------------------------------

	-----------------------------------------------------------
	 ==================> DF-MP2 Energies <==================== 
	-----------------------------------------------------------
	 Reference Energy          =     -76.0603788789852047 [Eh]
	 Singles Energy            =      -0.0000000000000000 [Eh]
	 Same-Spin Energy          =      -0.0684581050884207 [Eh]
	 Opposite-Spin Energy      =      -0.2158027925786019 [Eh]
	 Correlation Energy        =      -0.2842608976670226 [Eh]
	 Total Energy              =     -76.3446397766522296 [Eh]
	-----------------------------------------------------------
	 ================> DF-SCS-MP2 Energies <================== 
	-----------------------------------------------------------
	 SCS Same-Spin Scale       =       0.3333333333333333 [-]
	 SCS Opposite-Spin Scale   =       1.2000000000000000 [-]
	 SCS Same-Spin Energy      =      -0.0228193683628069 [Eh]
	 SCS Opposite-Spin Energy  =      -0.2589633510943222 [Eh]
	 SCS Correlation Energy    =      -0.2817827194571291 [Eh]
	 SCS Total Energy          =     -76.3421615984423312 [Eh]
	-----------------------------------------------------------


*** tstop() called on moses-razer at Wed Jan  3 14:37:19 2024
Module time:
	user time   =       2.10 seconds =       0.03 minutes
	system time =       0.21 seconds =       0.00 minutes
	total time  =          1 seconds =       0.02 minutes
Total time:
	user time   =      14.12 seconds =       0.24 minutes
	system time =       1.44 seconds =       0.02 minutes
	total time  =          4 seconds =       0.07 minutes

    Psi4 stopped on: Wednesday, 03 January 2024 02:37PM
    Psi4 wall time for execution: 0:00:01.74


    -----------------------------------------------------------------------
          Psi4: An Open-Source Ab Initio Electronic Structure Package
                               Psi4 1.9 release

                         Git: Rev {} zzzzzzz 


    D. G. A. Smith, L. A. Burns, A. C. Simmonett, R. M. Parrish,
    M. C. Schieber, R. Galvelis, P. Kraus, H. Kruse, R. Di Remigio,
    A. Alenaizan, A. M. James, S. Lehtola, J. P. Misiewicz, M. Scheurer,
    R. A. Shaw, J. B. Schriber, Y. Xie, Z. L. Glick, D. A. Sirianni,
    J. S. O'Brien, J. M. Waldrop, A. Kumar, E. G. Hohenstein,
    B. P. Pritchard, B. R. Brooks, H. F. Schaefer III, A. Yu. Sokolov,
    K. Patkowski, A. E. DePrince III, U. Bozkaya, R. A. King,
    F. A. Evangelista, J. M. Turney, T. D. Crawford, C. D. Sherrill,
    J. Chem. Phys. 152(18) 184108 (2020). https://doi.org/10.1063/5.0006002

                            Additional Code Authors
    E. T. Seidl, C. L. Janssen, E. F. Valeev, M. L. Leininger,
    J. F. Gonthier, R. M. Richard, H. R. McAlexander, M. Saitow, X. Wang,
    P. Verma, M. H. Lechner, A. Jiang, S. Behnle, A. G. Heide,
    M. F. Herbst, and D. L. Poole

             Previous Authors, Complete List of Code Contributors,
                       and Citations for Specific Modules
    https://github.com/psi4/psi4/blob/master/codemeta.json
    https://github.com/psi4/psi4/graphs/contributors
    http://psicode.org/psi4manual/master/introduction.html#citing-psifour

    -----------------------------------------------------------------------


    Psi4 started on: Wednesday, 03 January 2024 02:37PM

    Process ID: 404112
    Host:       moses-razer
    PSIDATADIR: /home/kchung25/anaconda3/envs/psi4_19/share/psi4
    Memory:     55.9 GiB
    Threads:    6
    
  ==> Input QCSchema <==

--------------------------------------------------------------------------
{'driver': 'energy',
 'extras': {'psiapi': True, 'wfn_qcvars_only': True},
 'id': None,
 'keywords': {'SCF_TYPE': 'DF', 'function_kwargs': {}},
 'model': {'basis': 'aug-cc-pvtz', 'method': 'mp2'},
 'molecule': {'atom_labels': ['', '', '', ''],
              'atomic_numbers': [8, 1, 1, 11],
              'extras': {},
              'fix_com': True,
              'fix_orientation': True,
              'fix_symmetry': 'c1',
              'fragment_charges': [0.0, 1.0],
              'fragment_multiplicities': [1, 1],
              'fragments': [[0, 1, 2], [3]],
              'geometry': [0.0, 0.0, 0.0, -0.35072183052822015, 1.6758979451838987, 0.6074675808374226,
                           -0.7227087491462172, -1.1006483050594065, 1.2517678135861434, 4.0798053212959235, 0.0, 0.0],
              'mass_numbers': [16, 1, 1, 23],
              'masses': [15.99491461957, 1.00782503223, 1.00782503223, 22.989769282],
              'molecular_charge': 1.0,
              'molecular_multiplicity': 1,
              'name': 'dimer',
              'provenance': {'creator': 'QCElemental',
                             'routine': 'qcelemental.molparse.from_string',
                             'version': '0.27.1'},
              'real': [True, True, True, True],
              'schema_name': 'qcschema_molecule',
              'schema_version': 2,
              'symbols': ['O', 'H', 'H', 'Na'],
              'validated': True},
 'protocols': {'stdout': True},
 'provenance': {'creator': 'QCElemental', 'routine': 'qcelemental.models.results', 'version': '0.27.1'},
 'schema_name': 'qcschema_input',
 'schema_version': 1}
--------------------------------------------------------------------------

Scratch directory: /scratch/
   => Libint2 <=

    Primary   basis highest AM E, G, H:  5, 4, 3
    Auxiliary basis highest AM E, G, H:  6, 5, 4
    Onebody   basis highest AM E, G, H:  6, 5, 4
    Solid Harmonics ordering:            gaussian

*** tstart() called on moses-razer
*** at Wed Jan  3 14:37:19 2024

   => Loading Basis Set <=

    Name: AUG-CC-PVTZ
    Role: ORBITAL
    Keyword: BASIS
    atoms 1   entry O          line   331 file /home/kchung25/anaconda3/envs/p415env/share/psi4/basis/aug-cc-pvtz.gbs 
    atoms 2-3 entry H          line    40 file /home/kchung25/anaconda3/envs/p415env/share/psi4/basis/aug-cc-pvtz.gbs 
    atoms 4   entry NA         line   469 file /home/kchung25/anaconda3/envs/p415env/share/psi4/basis/aug-cc-pvtz.gbs 


         ---------------------------------------------------------
                                   SCF
               by Justin Turney, Rob Parrish, Andy Simmonett
                          and Daniel G. A. Smith
                              RHF Reference
                        6 Threads,  57220 MiB Core
         ---------------------------------------------------------

  ==> Geometry <==

    Molecular point group: c1
    Full point group: C1

    Geometry (in Bohr), charge = 1, multiplicity = 1:

       Center              X                  Y                   Z               Mass       
    ------------   -----------------  -----------------  -----------------  -----------------
         O            0.000000000000     0.000000000000     0.000000000000    15.994914619570
         H           -0.350721830528     1.675897945184     0.607467580837     1.007825032230
         H           -0.722708749146    -1.100648305059     1.251767813586     1.007825032230
         NA           4.079805321296     0.000000000000     0.000000000000    22.989769282000

  Running in c1 symmetry.

  Rotational constants: A =     10.03468  B =      0.15628  C =      0.15538 [cm^-1]
  Rotational constants: A = 300832.21581  B =   4685.18827  C =   4658.28502 [MHz]
  Nuclear repulsion =   35.191551261742923

  Charge       = 1
  Multiplicity = 1
  Electrons    = 20
  Nalpha       = 10
  Nbeta        = 10

  ==> Algorithm <==

  SCF Algorithm Type is DF.
  DIIS enabled.
  MOM disabled.
  Fractional occupation disabled.
  Guess Type is SAD.
  Energy threshold   = 1.00e-08
  Density threshold  = 1.00e-08
  Integral threshold = 1.00e-12

  ==> Primary Basis <==

  Basis Set: AUG-CC-PVTZ
    Blend: AUG-CC-PVTZ
    Number of shells: 48
    Number of basis functions: 142
    Number of Cartesian functions: 164
    Spherical Harmonics?: true
    Max angular momentum: 3

   => Loading Basis Set <=

    Name: (AUG-CC-PVTZ AUX)
    Role: JKFIT
    Keyword: DF_BASIS_SCF
    atoms 1   entry O          line   286 file /home/kchung25/anaconda3/envs/p415env/share/psi4/basis/aug-cc-pvtz-jkfit.gbs 
    atoms 2-3 entry H          line    70 file /home/kchung25/anaconda3/envs/p415env/share/psi4/basis/aug-cc-pvtz-jkfit.gbs 
    atoms 4   entry NA         line   498 file /home/kchung25/anaconda3/envs/p415env/share/psi4/basis/def2-universal-jkfit.gbs 

  ==> Integral Setup <==

  DFHelper Memory: AOs need 0.052 GiB; user supplied 41.910 GiB. 
  Using in-core AOs.

  ==> MemDFJK: Density-Fitted J/K Matrices <==

    J tasked:                   Yes
    K tasked:                   Yes
    wK tasked:                   No
    OpenMP threads:               6
    Memory [MiB]:             42915
    Algorithm:                 Core
    Schwarz Cutoff:           1E-12
    Mask sparsity (%):       0.0000
    Fitting Condition:        1E-10

   => Auxiliary Basis Set <=

  Basis Set: (AUG-CC-PVTZ AUX)
    Blend: AUG-CC-PVTZ-JKFIT + DEF2-UNIVERSAL-JKFIT
    Number of shells: 92
    Number of basis functions: 308
    Number of Cartesian functions: 378
    Spherical Harmonics?: true
    Max angular momentum: 4

  Minimum eigenvalue in the overlap matrix is 8.5010127980E-05.
  Reciprocal condition number of the overlap matrix is 9.5107431839E-06.
    Using symmetric orthogonalization.

  ==> Pre-Iterations <==

  SCF Guess: Superposition of Atomic Densities via on-the-fly atomic UHF (no occupation information).

   -------------------------
    Irrep   Nso     Nmo    
   -------------------------
     A        142     142 
   -------------------------
    Total     142     142
   -------------------------

  ==> Iterations <==

                           Total Energy        Delta E     RMS |[F,P]|

   @DF-RHF iter SAD:  -237.29932216717725   -2.37299e+02   0.00000e+00 
   @DF-RHF iter   1:  -237.68149910283455   -3.82177e-01   3.32272e-03 DIIS/ADIIS
   @DF-RHF iter   2:  -237.73593971793636   -5.44406e-02   2.15848e-03 DIIS/ADIIS
   @DF-RHF iter   3:  -237.76448419769125   -2.85445e-02   1.57490e-04 DIIS/ADIIS
   @DF-RHF iter   4:  -237.76487243490371   -3.88237e-04   3.47701e-05 DIIS
   @DF-RHF iter   5:  -237.76489331709939   -2.08822e-05   7.60826e-06 DIIS
   @DF-RHF iter   6:  -237.76489482245989   -1.50536e-06   1.47156e-06 DIIS
   @DF-RHF iter   7:  -237.76489488488909   -6.24292e-08   2.75636e-07 DIIS
   @DF-RHF iter   8:  -237.76489488682583   -1.93674e-09   4.63152e-08 DIIS
   @DF-RHF iter   9:  -237.76489488687199   -4.61569e-11   1.16148e-08 DIIS
   @DF-RHF iter  10:  -237.76489488687531   -3.32534e-12   1.89813e-09 DIIS
  Energy and wave function converged.


  ==> Post-Iterations <==

    Orbital Energies [Eh]
    ---------------------

    Doubly Occupied:                                                      

       1A    -40.701522     2A    -20.786114     3A     -3.020225  
       4A     -1.744799     5A     -1.743815     6A     -1.743455  
       7A     -1.574943     8A     -0.936832     9A     -0.816808  
      10A     -0.740860  

    Virtual:                                                              

      11A     -0.153895    12A     -0.100507    13A     -0.098239  
      14A     -0.090024    15A     -0.063490    16A     -0.053090  
      17A     -0.050892    18A     -0.047421    19A     -0.046606  
      20A     -0.045377    21A     -0.044044    22A     -0.042778  
      23A     -0.035778    24A     -0.015692    25A     -0.011302  
      26A      0.004306    27A      0.005780    28A      0.007595  
      29A      0.028664    30A      0.048878    31A      0.050385  
      32A      0.063551    33A      0.068357    34A      0.073539  
      35A      0.081545    36A      0.089194    37A      0.093292  
      38A      0.107429    39A      0.112750    40A      0.113662  
      41A      0.117580    42A      0.155213    43A      0.160093  
      44A      0.161943    45A      0.173313    46A      0.179795  
      47A      0.187151    48A      0.193272    49A      0.201696  
      50A      0.254263    51A      0.281365    52A      0.297266  
      53A      0.306482    54A      0.319093    55A      0.325910  
      56A      0.351442    57A      0.390003    58A      0.393472  
      59A      0.398493    60A      0.400855    61A      0.458395  
      62A      0.472493    63A      0.484255    64A      0.513934  
      65A      0.514727    66A      0.525518    67A      0.556312  
      68A      0.589216    69A      0.598904    70A      0.648329  
      71A      0.678027    72A      0.707583    73A      0.755766  
      74A      0.770737    75A      0.791005    76A      0.807847  
      77A      0.847606    78A      0.860189    79A      0.884889  
      80A      0.909290    81A      0.934993    82A      0.952058  
      83A      1.008986    84A      1.052051    85A      1.079413  
      86A      1.094754    87A      1.113699    88A      1.353151  
      89A      1.433915    90A      1.455113    91A      1.549436  
      92A      1.642195    93A      1.728387    94A      1.827340  
      95A      1.893138    96A      1.990265    97A      2.113392  
      98A      2.173165    99A      2.216335   100A      2.247489  
     101A      2.311767   102A      2.346180   103A      2.375006  
     104A      2.505016   105A      2.585641   106A      2.602157  
     107A      2.637885   108A      2.705111   109A      3.562500  
     110A      3.613800   111A      3.855345   112A      4.000012  
     113A      4.053449   114A      4.107238   115A      4.190906  
     116A      4.269671   117A      4.282481   118A      4.314715  
     119A      4.367350   120A      4.595532   121A      4.659993  
     122A      4.945144   123A      4.969457   124A      5.066004  
     125A      5.138262   126A      5.320649   127A      5.522909  
     128A      6.010054   129A      6.334000   130A      6.513180  
     131A      6.692604   132A      6.948813   133A      7.093346  
     134A      7.116953   135A      7.126466   136A      7.186701  
     137A      7.193173   138A      7.397679   139A      7.699546  
     140A      7.740356   141A      8.629916   142A     15.731688  

    Final Occupation by Irrep:
              A 
    DOCC [    10 ]
    NA   [    10 ]
    NB   [    10 ]

  @DF-RHF Final Energy:  -237.76489488687531

   => Energetics <=

    Nuclear Repulsion Energy =             35.1915512617429229
    One-Electron Energy =                -398.2941476961190119
    Two-Electron Energy =                 125.3377015475007994
    Total Energy =                       -237.7648948868753109

Computation Completed


Properties will be evaluated at   0.000000,   0.000000,   0.000000 [a0]

Properties computed using the SCF density matrix


 Multipole Moments:

 ------------------------------------------------------------------------------------
     Multipole            Electronic (a.u.)      Nuclear  (a.u.)        Total (a.u.)
 ------------------------------------------------------------------------------------

 L = 1.  Multiply by 2.5417464519 to convert [e a0] to [Debye]
 Dipole X            :        -40.4232568           43.8044280            3.3811712
 Dipole Y            :         -0.3672769            0.5752496            0.2079728
 Dipole Z            :         -1.1672235            1.8592354            0.6920118
 Magnitude           :                                                    3.4575210

 ------------------------------------------------------------------------------------

*** tstop() called on moses-razer at Wed Jan  3 14:37:20 2024
Module time:
	user time   =       5.76 seconds =       0.10 minutes
	system time =       0.64 seconds =       0.01 minutes
	total time  =          1 seconds =       0.02 minutes
Total time:
	user time   =      20.10 seconds =       0.33 minutes
	system time =       2.08 seconds =       0.03 minutes
	total time  =          5 seconds =       0.08 minutes

*** tstart() called on moses-razer
*** at Wed Jan  3 14:37:20 2024


  //>>>>>>>>>>>>>>>>>>>>>>>>>>>>>>>>>>>//
  //               DFMP2               //
  //<<<<<<<<<<<<<<<<<<<<<<<<<<<<<<<<<<<//

   => Loading Basis Set <=

    Name: (AUG-CC-PVTZ AUX)
    Role: RIFIT
    Keyword: DF_BASIS_MP2
    atoms 1   entry O          line   264 file /home/kchung25/anaconda3/envs/p415env/share/psi4/basis/aug-cc-pvtz-ri.gbs 
    atoms 2-3 entry H          line    30 file /home/kchung25/anaconda3/envs/p415env/share/psi4/basis/aug-cc-pvtz-ri.gbs 
    atoms 4   entry NA         line   610 file /home/kchung25/anaconda3/envs/p415env/share/psi4/basis/def2-qzvpp-ri.gbs 

	 --------------------------------------------------------
	                          DF-MP2                         
	      2nd-Order Density-Fitted Moller-Plesset Theory     
	              RMP2 Wavefunction,   6 Threads             
	                                                         
	        Rob Parrish, Justin Turney, Andy Simmonett,      
	           Ed Hohenstein, and C. David Sherrill          
	 --------------------------------------------------------

   => Auxiliary Basis Set <=

  Basis Set: (AUG-CC-PVTZ AUX)
    Blend: AUG-CC-PVTZ-RI + DEF2-QZVPP-RI
    Number of shells: 98
    Number of basis functions: 364
    Number of Cartesian functions: 460
    Spherical Harmonics?: true
    Max angular momentum: 4

	 --------------------------------------------------------
	                 NBF =   142, NAUX =   364
	 --------------------------------------------------------
	   CLASS    FOCC     OCC    AOCC    AVIR     VIR    FVIR
	   PAIRS       0      10      10     132     132       0
	 --------------------------------------------------------

	-----------------------------------------------------------
	 ==================> DF-MP2 Energies <==================== 
	-----------------------------------------------------------
	 Reference Energy          =    -237.7648948868753109 [Eh]
	 Singles Energy            =      -0.0000000000000000 [Eh]
	 Same-Spin Energy          =      -0.0711585114398268 [Eh]
	 Opposite-Spin Energy      =      -0.2249928616580225 [Eh]
	 Correlation Energy        =      -0.2961513730978493 [Eh]
	 Total Energy              =    -238.0610462599731534 [Eh]
	-----------------------------------------------------------
	 ================> DF-SCS-MP2 Energies <================== 
	-----------------------------------------------------------
	 SCS Same-Spin Scale       =       0.3333333333333333 [-]
	 SCS Opposite-Spin Scale   =       1.2000000000000000 [-]
	 SCS Same-Spin Energy      =      -0.0237195038132756 [Eh]
	 SCS Opposite-Spin Energy  =      -0.2699914339896270 [Eh]
	 SCS Correlation Energy    =      -0.2937109378029026 [Eh]
	 SCS Total Energy          =    -238.0586058246782102 [Eh]
	-----------------------------------------------------------


*** tstop() called on moses-razer at Wed Jan  3 14:37:21 2024
Module time:
	user time   =       2.24 seconds =       0.04 minutes
	system time =       0.23 seconds =       0.00 minutes
	total time  =          1 seconds =       0.02 minutes
Total time:
	user time   =      22.34 seconds =       0.37 minutes
	system time =       2.31 seconds =       0.04 minutes
	total time  =          6 seconds =       0.10 minutes

    Psi4 stopped on: Wednesday, 03 January 2024 02:37PM
    Psi4 wall time for execution: 0:00:02.04


  //>>>>>>>>>>>>>>>>>>>>>>>>>>>>>>>>>>>//
  //          ManyBody Results         //
  //<<<<<<<<<<<<<<<<<<<<<<<<<<<<<<<<<<<//


   ==> N-Body: Counterpoise Corrected (CP) energies <==

        n-Body     Total Energy            Interaction Energy                          N-body Contribution to Interaction Energy
                   [Eh]                    [Eh]                  [kcal/mol]            [Eh]                  [kcal/mol]
             1  N/A                         0.000000000000        0.000000000000        0.000000000000        0.000000000000
  FULL/RTN   2  N/A                        -0.026577666607      -16.677737586693       -0.026577666607      -16.677737586693


    Psi4 stopped on: Wednesday, 03 January 2024 02:37PM
    Psi4 wall time for execution: 0:00:07.24

*** Psi4 exiting successfully. Buy a developer a beer!
