
    -----------------------------------------------------------------------
          Psi4: An Open-Source Ab Initio Electronic Structure Package
                               Psi4 1.9 release

                         Git: Rev {} zzzzzzz 


    D. G. A. Smith, L. A. Burns, A. C. Simmonett, R. M. Parrish,
    M. C. Schieber, R. Galvelis, P. Kraus, H. Kruse, R. Di Remigio,
    A. Alenaizan, A. M. James, S. Lehtola, J. P. Misiewicz, M. Scheurer,
    R. A. Shaw, J. B. Schriber, Y. Xie, Z. L. Glick, D. A. Sirianni,
    J. S. O'Brien, J. M. Waldrop, A. Kumar, E. G. Hohenstein,
    B. P. Pritchard, B. R. Brooks, H. F. Schaefer III, A. Yu. Sokolov,
    K. Patkowski, A. E. DePrince III, U. Bozkaya, R. A. King,
    F. A. Evangelista, J. M. Turney, T. D. Crawford, C. D. Sherrill,
    J. Chem. Phys. 152(18) 184108 (2020). https://doi.org/10.1063/5.0006002

                            Additional Code Authors
    E. T. Seidl, C. L. Janssen, E. F. Valeev, M. L. Leininger,
    J. F. Gonthier, R. M. Richard, H. R. McAlexander, M. Saitow, X. Wang,
    P. Verma, M. H. Lechner, A. Jiang, S. Behnle, A. G. Heide,
    M. F. Herbst, and D. L. Poole

             Previous Authors, Complete List of Code Contributors,
                       and Citations for Specific Modules
    https://github.com/psi4/psi4/blob/master/codemeta.json
    https://github.com/psi4/psi4/graphs/contributors
    http://psicode.org/psi4manual/master/introduction.html#citing-psifour

    -----------------------------------------------------------------------


    Psi4 started on: Wednesday, 03 January 2024 03:03PM

    Process ID: 406922
    Host:       moses-razer
    PSIDATADIR: /home/kchung25/anaconda3/envs/psi4_19/share/psi4
    Memory:     500.0 MiB
    Threads:    6
    
  ==> Input File <==

--------------------------------------------------------------------------
MEMORY 60 GB

molecule dimer {
0 1
O      0.000000     0.000000     0.000000
H     -0.079532     0.944263     0.137753
H      0.530014    -0.036721    -0.918011
--
-1 1
F      2.426389     0.000000     0.000000

units ang
no_reorient
no_com
symmetry c1
}

set {
basis        aug-cc-pVTZ
scf_type     df
}

energy("mp2", bsse_type="cp")
--------------------------------------------------------------------------

  Memory set to  55.879 GiB by Python driver.

Scratch directory: /scratch/

  //>>>>>>>>>>>>>>>>>>>>>>>>>>>>>>>>>>>>>//
  // ManyBody Setup: N-Body Levels [1, 2]//
  //<<<<<<<<<<<<<<<<<<<<<<<<<<<<<<<<<<<<<//

        Number of 1-body computations:     2
        Number of 2-body computations:     1

    -----------------------------------------------------------------------
          Psi4: An Open-Source Ab Initio Electronic Structure Package
                               Psi4 1.9 release

                         Git: Rev {} zzzzzzz 


    D. G. A. Smith, L. A. Burns, A. C. Simmonett, R. M. Parrish,
    M. C. Schieber, R. Galvelis, P. Kraus, H. Kruse, R. Di Remigio,
    A. Alenaizan, A. M. James, S. Lehtola, J. P. Misiewicz, M. Scheurer,
    R. A. Shaw, J. B. Schriber, Y. Xie, Z. L. Glick, D. A. Sirianni,
    J. S. O'Brien, J. M. Waldrop, A. Kumar, E. G. Hohenstein,
    B. P. Pritchard, B. R. Brooks, H. F. Schaefer III, A. Yu. Sokolov,
    K. Patkowski, A. E. DePrince III, U. Bozkaya, R. A. King,
    F. A. Evangelista, J. M. Turney, T. D. Crawford, C. D. Sherrill,
    J. Chem. Phys. 152(18) 184108 (2020). https://doi.org/10.1063/5.0006002

                            Additional Code Authors
    E. T. Seidl, C. L. Janssen, E. F. Valeev, M. L. Leininger,
    J. F. Gonthier, R. M. Richard, H. R. McAlexander, M. Saitow, X. Wang,
    P. Verma, M. H. Lechner, A. Jiang, S. Behnle, A. G. Heide,
    M. F. Herbst, and D. L. Poole

             Previous Authors, Complete List of Code Contributors,
                       and Citations for Specific Modules
    https://github.com/psi4/psi4/blob/master/codemeta.json
    https://github.com/psi4/psi4/graphs/contributors
    http://psicode.org/psi4manual/master/introduction.html#citing-psifour

    -----------------------------------------------------------------------


    Psi4 started on: Wednesday, 03 January 2024 03:03PM

    Process ID: 406922
    Host:       moses-razer
    PSIDATADIR: /home/kchung25/anaconda3/envs/psi4_19/share/psi4
    Memory:     55.9 GiB
    Threads:    6
    
  ==> Input QCSchema <==

--------------------------------------------------------------------------
{'driver': 'energy',
 'extras': {'psiapi': True, 'wfn_qcvars_only': True},
 'id': None,
 'keywords': {'SCF_TYPE': 'DF', 'function_kwargs': {}},
 'model': {'basis': 'aug-cc-pvtz', 'method': 'mp2'},
 'molecule': {'atom_labels': ['', '', '', ''],
              'atomic_numbers': [8, 1, 1, 9],
              'extras': {},
              'fix_com': True,
              'fix_orientation': True,
              'fix_symmetry': 'c1',
              'fragment_charges': [0.0, -1.0],
              'fragment_multiplicities': [1, 1],
              'fragments': [[0, 1, 2], [3]],
              'geometry': [0.0, 0.0, 0.0, -0.150293698209912, 1.784398460403185, 0.26031544296019216,
                           1.0015813026584053, -0.0693926330529369, -1.7347893701576662, 4.585210683823494, 0.0, 0.0],
              'mass_numbers': [16, 1, 1, 19],
              'masses': [15.99491461957, 1.00782503223, 1.00782503223, 18.99840316273],
              'molecular_charge': -1.0,
              'molecular_multiplicity': 1,
              'name': 'dimer',
              'provenance': {'creator': 'QCElemental',
                             'routine': 'qcelemental.molparse.from_string',
                             'version': '0.27.1'},
              'real': [False, False, False, True],
              'schema_name': 'qcschema_molecule',
              'schema_version': 2,
              'symbols': ['O', 'H', 'H', 'F'],
              'validated': True},
 'protocols': {'stdout': True},
 'provenance': {'creator': 'QCElemental', 'routine': 'qcelemental.models.results', 'version': '0.27.1'},
 'schema_name': 'qcschema_input',
 'schema_version': 1}
--------------------------------------------------------------------------

Scratch directory: /scratch/
   => Libint2 <=

    Primary   basis highest AM E, G, H:  5, 4, 3
    Auxiliary basis highest AM E, G, H:  6, 5, 4
    Onebody   basis highest AM E, G, H:  6, 5, 4
    Solid Harmonics ordering:            gaussian

*** tstart() called on moses-razer
*** at Wed Jan  3 15:03:32 2024

   => Loading Basis Set <=

    Name: AUG-CC-PVTZ
    Role: ORBITAL
    Keyword: BASIS
    atoms 1   entry O          line   331 file /home/kchung25/anaconda3/envs/p415env/share/psi4/basis/aug-cc-pvtz.gbs 
    atoms 2-3 entry H          line    40 file /home/kchung25/anaconda3/envs/p415env/share/psi4/basis/aug-cc-pvtz.gbs 
    atoms 4   entry F          line   377 file /home/kchung25/anaconda3/envs/p415env/share/psi4/basis/aug-cc-pvtz.gbs 


         ---------------------------------------------------------
                                   SCF
               by Justin Turney, Rob Parrish, Andy Simmonett
                          and Daniel G. A. Smith
                              RHF Reference
                        6 Threads,  57220 MiB Core
         ---------------------------------------------------------

  ==> Geometry <==

    Molecular point group: c1
    Full point group: C1

    Geometry (in Bohr), charge = -1, multiplicity = 1:

       Center              X                  Y                   Z               Mass       
    ------------   -----------------  -----------------  -----------------  -----------------
      Gh(O)           0.000000000000     0.000000000000     0.000000000000    15.994914619570
      Gh(H)          -0.150293698210     1.784398460403     0.260315442960     1.007825032230
      Gh(H)           1.001581302658    -0.069392633053    -1.734789370158     1.007825032230
         F            4.585210683823     0.000000000000     0.000000000000    18.998403162730

  Running in c1 symmetry.

  Rotational constants: A =      9.54517  B =      0.14937  C =      0.14893 [cm^-1]
  Rotational constants: A = 286157.08948  B =   4477.93298  C =   4464.83872 [MHz]
  Nuclear repulsion =    0.000000000000000

  Charge       = -1
  Multiplicity = 1
  Electrons    = 10
  Nalpha       = 5
  Nbeta        = 5

  ==> Algorithm <==

  SCF Algorithm Type is DF.
  DIIS enabled.
  MOM disabled.
  Fractional occupation disabled.
  Guess Type is SAD.
  Energy threshold   = 1.00e-08
  Density threshold  = 1.00e-08
  Integral threshold = 1.00e-12

  ==> Primary Basis <==

  Basis Set: AUG-CC-PVTZ
    Blend: AUG-CC-PVTZ
    Number of shells: 46
    Number of basis functions: 138
    Number of Cartesian functions: 160
    Spherical Harmonics?: true
    Max angular momentum: 3

   => Loading Basis Set <=

    Name: (AUG-CC-PVTZ AUX)
    Role: JKFIT
    Keyword: DF_BASIS_SCF
    atoms 1   entry O          line   286 file /home/kchung25/anaconda3/envs/p415env/share/psi4/basis/aug-cc-pvtz-jkfit.gbs 
    atoms 2-3 entry H          line    70 file /home/kchung25/anaconda3/envs/p415env/share/psi4/basis/aug-cc-pvtz-jkfit.gbs 
    atoms 4   entry F          line   348 file /home/kchung25/anaconda3/envs/p415env/share/psi4/basis/aug-cc-pvtz-jkfit.gbs 

  ==> Integral Setup <==

  DFHelper Memory: AOs need 0.048 GiB; user supplied 41.910 GiB. 
  Using in-core AOs.

  ==> MemDFJK: Density-Fitted J/K Matrices <==

    J tasked:                   Yes
    K tasked:                   Yes
    wK tasked:                   No
    OpenMP threads:               6
    Memory [MiB]:             42915
    Algorithm:                 Core
    Schwarz Cutoff:           1E-12
    Mask sparsity (%):       0.0420
    Fitting Condition:        1E-10

   => Auxiliary Basis Set <=

  Basis Set: (AUG-CC-PVTZ AUX)
    Blend: AUG-CC-PVTZ-JKFIT
    Number of shells: 88
    Number of basis functions: 300
    Number of Cartesian functions: 372
    Spherical Harmonics?: true
    Max angular momentum: 4

  Minimum eigenvalue in the overlap matrix is 3.4582800672E-04.
  Reciprocal condition number of the overlap matrix is 4.6722208161E-05.
    Using symmetric orthogonalization.

  ==> Pre-Iterations <==

  SCF Guess: Superposition of Atomic Densities via on-the-fly atomic UHF (no occupation information).

   -------------------------
    Irrep   Nso     Nmo    
   -------------------------
     A        138     138 
   -------------------------
    Total     138     138
   -------------------------

  ==> Iterations <==

                           Total Energy        Delta E     RMS |[F,P]|

   @DF-RHF iter SAD:   -98.82535134688749   -9.88254e+01   0.00000e+00 
   @DF-RHF iter   1:   -99.33789567327634   -5.12544e-01   3.95752e-03 ADIIS/DIIS
   @DF-RHF iter   2:   -99.37413434770571   -3.62387e-02   3.84338e-03 ADIIS/DIIS
   @DF-RHF iter   3:   -99.45079996670417   -7.66656e-02   1.21187e-04 ADIIS/DIIS
   @DF-RHF iter   4:   -99.45086328229283   -6.33156e-05   4.55845e-05 DIIS
   @DF-RHF iter   5:   -99.45087347800020   -1.01957e-05   3.50976e-06 DIIS
   @DF-RHF iter   6:   -99.45087361409833   -1.36098e-07   2.74805e-07 DIIS
   @DF-RHF iter   7:   -99.45087361529967   -1.20134e-09   4.68839e-08 DIIS
   @DF-RHF iter   8:   -99.45087361538361   -8.39435e-11   1.23808e-08 DIIS
   @DF-RHF iter   9:   -99.45087361538890   -5.28644e-12   1.34676e-09 DIIS
  Energy and wave function converged.


  ==> Post-Iterations <==

    Orbital Energies [Eh]
    ---------------------

    Doubly Occupied:                                                      

       1A    -25.833744     2A     -1.076032     3A     -0.181018  
       4A     -0.180964     5A     -0.180946  

    Virtual:                                                              

       6A      0.152300     7A      0.174139     8A      0.254936  
       9A      0.274512    10A      0.302271    11A      0.331050  
      12A      0.410310    13A      0.416617    14A      0.436065  
      15A      0.453882    16A      0.468071    17A      0.498059  
      18A      0.513286    19A      0.536514    20A      0.546568  
      21A      0.556410    22A      0.632048    23A      0.661896  
      24A      0.825558    25A      0.873521    26A      0.932438  
      27A      0.954101    28A      0.980043    29A      1.002013  
      30A      1.020345    31A      1.083637    32A      1.092615  
      33A      1.111480    34A      1.137319    35A      1.165104  
      36A      1.177592    37A      1.219189    38A      1.263544  
      39A      1.281662    40A      1.297844    41A      1.329082  
      42A      1.360319    43A      1.392261    44A      1.448251  
      45A      1.459599    46A      1.464481    47A      1.502312  
      48A      1.580020    49A      1.627616    50A      1.712878  
      51A      1.736395    52A      1.821327    53A      1.904498  
      54A      1.985963    55A      2.016722    56A      2.044853  
      57A      2.070434    58A      2.244647    59A      2.416896  
      60A      2.581936    61A      2.675469    62A      2.728388  
      63A      2.738153    64A      2.759685    65A      2.785521  
      66A      2.834405    67A      3.026781    68A      3.070294  
      69A      3.226173    70A      3.276925    71A      3.300268  
      72A      3.304845    73A      3.327626    74A      3.339391  
      75A      3.345511    76A      3.383130    77A      3.411921  
      78A      3.432535    79A      3.453575    80A      3.479716  
      81A      3.492900    82A      3.519936    83A      3.572902  
      84A      3.608919    85A      3.795851    86A      3.876179  
      87A      3.974261    88A      4.581331    89A      4.660463  
      90A      4.737089    91A      4.790301    92A      4.828181  
      93A      4.865286    94A      5.084903    95A      5.208328  
      96A      5.400254    97A      5.424227    98A      5.592151  
      99A      5.626381   100A      5.718697   101A      5.760726  
     102A      5.857277   103A      6.046184   104A      6.164617  
     105A      6.347231   106A      6.502296   107A      6.540702  
     108A      7.132482   109A      7.877982   110A      8.027436  
     111A      8.169476   112A      8.267871   113A      8.461827  
     114A      8.715929   115A      8.860280   116A      9.279299  
     117A      9.281521   118A      9.317553   119A      9.325549  
     120A      9.390513   121A      9.455731   122A      9.485199  
     123A      9.779038   124A      9.789097   125A      9.825719  
     126A      9.856896   127A      9.899134   128A      9.963981  
     129A     10.097226   130A     10.227739   131A     10.423508  
     132A     11.011853   133A     11.601292   134A     12.047742  
     135A     12.205448   136A     13.518716   137A     14.064919  
     138A     62.768312  

    Final Occupation by Irrep:
              A 
    DOCC [     5 ]
    NA   [     5 ]
    NB   [     5 ]

  @DF-RHF Final Energy:   -99.45087361538890

   => Energetics <=

    Nuclear Repulsion Energy =              0.0000000000000000
    One-Electron Energy =                -143.9963412765952171
    Two-Electron Energy =                  44.5454676612063167
    Total Energy =                        -99.4508736153889004

Computation Completed


Properties will be evaluated at   0.000000,   0.000000,   0.000000 [a0]

Properties computed using the SCF density matrix


 Multipole Moments:

 ------------------------------------------------------------------------------------
     Multipole            Electronic (a.u.)      Nuclear  (a.u.)        Total (a.u.)
 ------------------------------------------------------------------------------------

 L = 1.  Multiply by 2.5417464519 to convert [e a0] to [Debye]
 Dipole X            :        -45.8526178           41.2668962           -4.5857216
 Dipole Y            :         -0.0003410            0.0000000           -0.0003410
 Dipole Z            :          0.0000076            0.0000000            0.0000076
 Magnitude           :                                                    4.5857216

 ------------------------------------------------------------------------------------

*** tstop() called on moses-razer at Wed Jan  3 15:03:32 2024
Module time:
	user time   =       2.57 seconds =       0.04 minutes
	system time =       0.07 seconds =       0.00 minutes
	total time  =          0 seconds =       0.00 minutes
Total time:
	user time   =       2.57 seconds =       0.04 minutes
	system time =       0.07 seconds =       0.00 minutes
	total time  =          0 seconds =       0.00 minutes

*** tstart() called on moses-razer
*** at Wed Jan  3 15:03:32 2024


  //>>>>>>>>>>>>>>>>>>>>>>>>>>>>>>>>>>>//
  //               DFMP2               //
  //<<<<<<<<<<<<<<<<<<<<<<<<<<<<<<<<<<<//

   => Loading Basis Set <=

    Name: (AUG-CC-PVTZ AUX)
    Role: RIFIT
    Keyword: DF_BASIS_MP2
    atoms 1   entry O          line   264 file /home/kchung25/anaconda3/envs/p415env/share/psi4/basis/aug-cc-pvtz-ri.gbs 
    atoms 2-3 entry H          line    30 file /home/kchung25/anaconda3/envs/p415env/share/psi4/basis/aug-cc-pvtz-ri.gbs 
    atoms 4   entry F          line   322 file /home/kchung25/anaconda3/envs/p415env/share/psi4/basis/aug-cc-pvtz-ri.gbs 

	 --------------------------------------------------------
	                          DF-MP2                         
	      2nd-Order Density-Fitted Moller-Plesset Theory     
	              RMP2 Wavefunction,   6 Threads             
	                                                         
	        Rob Parrish, Justin Turney, Andy Simmonett,      
	           Ed Hohenstein, and C. David Sherrill          
	 --------------------------------------------------------

   => Auxiliary Basis Set <=

  Basis Set: (AUG-CC-PVTZ AUX)
    Blend: AUG-CC-PVTZ-RI
    Number of shells: 84
    Number of basis functions: 304
    Number of Cartesian functions: 382
    Spherical Harmonics?: true
    Max angular momentum: 4

	 --------------------------------------------------------
	                 NBF =   138, NAUX =   304
	 --------------------------------------------------------
	   CLASS    FOCC     OCC    AOCC    AVIR     VIR    FVIR
	   PAIRS       0       5       5     133     133       0
	 --------------------------------------------------------

	-----------------------------------------------------------
	 ==================> DF-MP2 Energies <==================== 
	-----------------------------------------------------------
	 Reference Energy          =     -99.4508736153889004 [Eh]
	 Singles Energy            =      -0.0000000000000000 [Eh]
	 Same-Spin Energy          =      -0.0816637350169515 [Eh]
	 Opposite-Spin Energy      =      -0.2269132301794901 [Eh]
	 Correlation Energy        =      -0.3085769651964416 [Eh]
	 Total Energy              =     -99.7594505805853373 [Eh]
	-----------------------------------------------------------
	 ================> DF-SCS-MP2 Energies <================== 
	-----------------------------------------------------------
	 SCS Same-Spin Scale       =       0.3333333333333333 [-]
	 SCS Opposite-Spin Scale   =       1.2000000000000000 [-]
	 SCS Same-Spin Energy      =      -0.0272212450056505 [Eh]
	 SCS Opposite-Spin Energy  =      -0.2722958762153881 [Eh]
	 SCS Correlation Energy    =      -0.2995171212210386 [Eh]
	 SCS Total Energy          =     -99.7503907366099440 [Eh]
	-----------------------------------------------------------


*** tstop() called on moses-razer at Wed Jan  3 15:03:32 2024
Module time:
	user time   =       0.72 seconds =       0.01 minutes
	system time =       0.03 seconds =       0.00 minutes
	total time  =          0 seconds =       0.00 minutes
Total time:
	user time   =       3.29 seconds =       0.05 minutes
	system time =       0.10 seconds =       0.00 minutes
	total time  =          0 seconds =       0.00 minutes

    Psi4 stopped on: Wednesday, 03 January 2024 03:03PM
    Psi4 wall time for execution: 0:00:00.62


    -----------------------------------------------------------------------
          Psi4: An Open-Source Ab Initio Electronic Structure Package
                               Psi4 1.9 release

                         Git: Rev {} zzzzzzz 


    D. G. A. Smith, L. A. Burns, A. C. Simmonett, R. M. Parrish,
    M. C. Schieber, R. Galvelis, P. Kraus, H. Kruse, R. Di Remigio,
    A. Alenaizan, A. M. James, S. Lehtola, J. P. Misiewicz, M. Scheurer,
    R. A. Shaw, J. B. Schriber, Y. Xie, Z. L. Glick, D. A. Sirianni,
    J. S. O'Brien, J. M. Waldrop, A. Kumar, E. G. Hohenstein,
    B. P. Pritchard, B. R. Brooks, H. F. Schaefer III, A. Yu. Sokolov,
    K. Patkowski, A. E. DePrince III, U. Bozkaya, R. A. King,
    F. A. Evangelista, J. M. Turney, T. D. Crawford, C. D. Sherrill,
    J. Chem. Phys. 152(18) 184108 (2020). https://doi.org/10.1063/5.0006002

                            Additional Code Authors
    E. T. Seidl, C. L. Janssen, E. F. Valeev, M. L. Leininger,
    J. F. Gonthier, R. M. Richard, H. R. McAlexander, M. Saitow, X. Wang,
    P. Verma, M. H. Lechner, A. Jiang, S. Behnle, A. G. Heide,
    M. F. Herbst, and D. L. Poole

             Previous Authors, Complete List of Code Contributors,
                       and Citations for Specific Modules
    https://github.com/psi4/psi4/blob/master/codemeta.json
    https://github.com/psi4/psi4/graphs/contributors
    http://psicode.org/psi4manual/master/introduction.html#citing-psifour

    -----------------------------------------------------------------------


    Psi4 started on: Wednesday, 03 January 2024 03:03PM

    Process ID: 406922
    Host:       moses-razer
    PSIDATADIR: /home/kchung25/anaconda3/envs/psi4_19/share/psi4
    Memory:     55.9 GiB
    Threads:    6
    
  ==> Input QCSchema <==

--------------------------------------------------------------------------
{'driver': 'energy',
 'extras': {'psiapi': True, 'wfn_qcvars_only': True},
 'id': None,
 'keywords': {'SCF_TYPE': 'DF', 'function_kwargs': {}},
 'model': {'basis': 'aug-cc-pvtz', 'method': 'mp2'},
 'molecule': {'atom_labels': ['', '', '', ''],
              'atomic_numbers': [8, 1, 1, 9],
              'extras': {},
              'fix_com': True,
              'fix_orientation': True,
              'fix_symmetry': 'c1',
              'fragment_charges': [0.0, 0.0],
              'fragment_multiplicities': [1, 1],
              'fragments': [[0, 1, 2], [3]],
              'geometry': [0.0, 0.0, 0.0, -0.150293698209912, 1.784398460403185, 0.26031544296019216,
                           1.0015813026584053, -0.0693926330529369, -1.7347893701576662, 4.585210683823494, 0.0, 0.0],
              'mass_numbers': [16, 1, 1, 19],
              'masses': [15.99491461957, 1.00782503223, 1.00782503223, 18.99840316273],
              'molecular_charge': 0.0,
              'molecular_multiplicity': 1,
              'name': 'dimer',
              'provenance': {'creator': 'QCElemental',
                             'routine': 'qcelemental.molparse.from_string',
                             'version': '0.27.1'},
              'real': [True, True, True, False],
              'schema_name': 'qcschema_molecule',
              'schema_version': 2,
              'symbols': ['O', 'H', 'H', 'F'],
              'validated': True},
 'protocols': {'stdout': True},
 'provenance': {'creator': 'QCElemental', 'routine': 'qcelemental.models.results', 'version': '0.27.1'},
 'schema_name': 'qcschema_input',
 'schema_version': 1}
--------------------------------------------------------------------------

Scratch directory: /scratch/
   => Libint2 <=

    Primary   basis highest AM E, G, H:  5, 4, 3
    Auxiliary basis highest AM E, G, H:  6, 5, 4
    Onebody   basis highest AM E, G, H:  6, 5, 4
    Solid Harmonics ordering:            gaussian

*** tstart() called on moses-razer
*** at Wed Jan  3 15:03:32 2024

   => Loading Basis Set <=

    Name: AUG-CC-PVTZ
    Role: ORBITAL
    Keyword: BASIS
    atoms 1   entry O          line   331 file /home/kchung25/anaconda3/envs/p415env/share/psi4/basis/aug-cc-pvtz.gbs 
    atoms 2-3 entry H          line    40 file /home/kchung25/anaconda3/envs/p415env/share/psi4/basis/aug-cc-pvtz.gbs 
    atoms 4   entry F          line   377 file /home/kchung25/anaconda3/envs/p415env/share/psi4/basis/aug-cc-pvtz.gbs 


         ---------------------------------------------------------
                                   SCF
               by Justin Turney, Rob Parrish, Andy Simmonett
                          and Daniel G. A. Smith
                              RHF Reference
                        6 Threads,  57220 MiB Core
         ---------------------------------------------------------

  ==> Geometry <==

    Molecular point group: c1
    Full point group: C1

    Geometry (in Bohr), charge = 0, multiplicity = 1:

       Center              X                  Y                   Z               Mass       
    ------------   -----------------  -----------------  -----------------  -----------------
         O            0.000000000000     0.000000000000     0.000000000000    15.994914619570
         H           -0.150293698210     1.784398460403     0.260315442960     1.007825032230
         H            1.001581302658    -0.069392633053    -1.734789370158     1.007825032230
      Gh(F)           4.585210683823     0.000000000000     0.000000000000    18.998403162730

  Running in c1 symmetry.

  Rotational constants: A =      9.54517  B =      0.14937  C =      0.14893 [cm^-1]
  Rotational constants: A = 286157.08948  B =   4477.93298  C =   4464.83872 [MHz]
  Nuclear repulsion =    8.750489075576757

  Charge       = 0
  Multiplicity = 1
  Electrons    = 10
  Nalpha       = 5
  Nbeta        = 5

  ==> Algorithm <==

  SCF Algorithm Type is DF.
  DIIS enabled.
  MOM disabled.
  Fractional occupation disabled.
  Guess Type is SAD.
  Energy threshold   = 1.00e-08
  Density threshold  = 1.00e-08
  Integral threshold = 1.00e-12

  ==> Primary Basis <==

  Basis Set: AUG-CC-PVTZ
    Blend: AUG-CC-PVTZ
    Number of shells: 46
    Number of basis functions: 138
    Number of Cartesian functions: 160
    Spherical Harmonics?: true
    Max angular momentum: 3

   => Loading Basis Set <=

    Name: (AUG-CC-PVTZ AUX)
    Role: JKFIT
    Keyword: DF_BASIS_SCF
    atoms 1   entry O          line   286 file /home/kchung25/anaconda3/envs/p415env/share/psi4/basis/aug-cc-pvtz-jkfit.gbs 
    atoms 2-3 entry H          line    70 file /home/kchung25/anaconda3/envs/p415env/share/psi4/basis/aug-cc-pvtz-jkfit.gbs 
    atoms 4   entry F          line   348 file /home/kchung25/anaconda3/envs/p415env/share/psi4/basis/aug-cc-pvtz-jkfit.gbs 

  ==> Integral Setup <==

  DFHelper Memory: AOs need 0.048 GiB; user supplied 41.910 GiB. 
  Using in-core AOs.

  ==> MemDFJK: Density-Fitted J/K Matrices <==

    J tasked:                   Yes
    K tasked:                   Yes
    wK tasked:                   No
    OpenMP threads:               6
    Memory [MiB]:             42915
    Algorithm:                 Core
    Schwarz Cutoff:           1E-12
    Mask sparsity (%):       0.0420
    Fitting Condition:        1E-10

   => Auxiliary Basis Set <=

  Basis Set: (AUG-CC-PVTZ AUX)
    Blend: AUG-CC-PVTZ-JKFIT
    Number of shells: 88
    Number of basis functions: 300
    Number of Cartesian functions: 372
    Spherical Harmonics?: true
    Max angular momentum: 4

  Minimum eigenvalue in the overlap matrix is 3.4582800672E-04.
  Reciprocal condition number of the overlap matrix is 4.6722208161E-05.
    Using symmetric orthogonalization.

  ==> Pre-Iterations <==

  SCF Guess: Superposition of Atomic Densities via on-the-fly atomic UHF (no occupation information).

   -------------------------
    Irrep   Nso     Nmo    
   -------------------------
     A        138     138 
   -------------------------
    Total     138     138
   -------------------------

  ==> Iterations <==

                           Total Energy        Delta E     RMS |[F,P]|

   @DF-RHF iter SAD:   -75.41814223622205   -7.54181e+01   0.00000e+00 
   @DF-RHF iter   1:   -75.95995927186635   -5.41817e-01   3.39445e-03 ADIIS/DIIS
   @DF-RHF iter   2:   -76.01151920765828   -5.15599e-02   2.46296e-03 ADIIS/DIIS
   @DF-RHF iter   3:   -76.04808254857988   -3.65633e-02   1.69629e-04 ADIIS/DIIS
   @DF-RHF iter   4:   -76.04857327542733   -4.90727e-04   4.57446e-05 DIIS
   @DF-RHF iter   5:   -76.04861414911908   -4.08737e-05   1.12468e-05 DIIS
   @DF-RHF iter   6:   -76.04861792891526   -3.77980e-06   2.44661e-06 DIIS
   @DF-RHF iter   7:   -76.04861811621168   -1.87296e-07   4.06701e-07 DIIS
   @DF-RHF iter   8:   -76.04861812056974   -4.35806e-09   7.62990e-08 DIIS
   @DF-RHF iter   9:   -76.04861812070347   -1.33724e-10   2.16766e-08 DIIS
   @DF-RHF iter  10:   -76.04861812071447   -1.09992e-11   4.12327e-09 DIIS
  Energy and wave function converged.


  ==> Post-Iterations <==

    Orbital Energies [Eh]
    ---------------------

    Doubly Occupied:                                                      

       1A    -20.576815     2A     -1.332627     3A     -0.686403  
       4A     -0.579383     5A     -0.507555  

    Virtual:                                                              

       6A      0.027805     7A      0.047410     8A      0.116620  
       9A      0.132222    10A      0.159921    11A      0.181614  
      12A      0.191482    13A      0.196318    14A      0.199037  
      15A      0.228540    16A      0.250116    17A      0.279634  
      18A      0.318223    19A      0.344373    20A      0.365250  
      21A      0.416556    22A      0.425369    23A      0.460794  
      24A      0.595788    25A      0.647682    26A      0.685010  
      27A      0.711097    28A      0.720453    29A      0.776260  
      30A      0.790685    31A      0.804150    32A      0.820566  
      33A      0.871723    34A      0.886184    35A      0.897838  
      36A      0.922147    37A      0.929195    38A      0.951422  
      39A      0.983114    40A      1.008918    41A      1.029825  
      42A      1.037691    43A      1.056345    44A      1.063250  
      45A      1.096919    46A      1.180713    47A      1.210057  
      48A      1.266312    49A      1.293608    50A      1.308245  
      51A      1.363387    52A      1.485971    53A      1.542890  
      54A      1.595810    55A      1.645734    56A      1.799584  
      57A      1.865123    58A      1.935120    59A      2.129238  
      60A      2.279907    61A      2.337860    62A      2.358152  
      63A      2.419461    64A      2.461973    65A      2.505765  
      66A      2.573422    67A      2.702567    68A      2.725089  
      69A      2.743422    70A      2.811198    71A      2.850019  
      72A      3.036028    73A      3.050465    74A      3.089812  
      75A      3.094998    76A      3.119814    77A      3.159962  
      78A      3.166705    79A      3.185710    80A      3.258467  
      81A      3.291409    82A      3.502573    83A      3.577528  
      84A      3.595346    85A      3.642156    86A      3.659013  
      87A      3.779248    88A      3.856465    89A      3.902270  
      90A      4.054416    91A      4.183388    92A      4.203754  
      93A      4.235513    94A      4.341365    95A      4.397688  
      96A      4.473495    97A      4.573705    98A      4.644399  
      99A      4.705175   100A      4.857210   101A      5.020448  
     102A      5.037116   103A      5.172071   104A      5.321662  
     105A      5.508746   106A      5.589899   107A      6.225197  
     108A      6.570319   109A      6.721933   110A      6.887869  
     111A      7.035506   112A      7.217761   113A      7.255263  
     114A      7.313570   115A      7.371420   116A      7.407922  
     117A      7.487566   118A      7.814337   119A      7.895115  
     120A      8.547404   121A      9.668065   122A     10.159048  
     123A     10.160989   124A     10.202038   125A     10.207515  
     126A     10.278669   127A     10.368546   128A     10.416060  
     129A     12.964041   130A     12.971299   131A     13.028927  
     132A     13.050365   133A     13.085901   134A     14.254481  
     135A     14.283869   136A     14.633033   137A     14.726347  
     138A     67.871188  

    Final Occupation by Irrep:
              A 
    DOCC [     5 ]
    NA   [     5 ]
    NB   [     5 ]

  @DF-RHF Final Energy:   -76.04861812071447

   => Energetics <=

    Nuclear Repulsion Energy =              8.7504890755767573
    One-Electron Energy =                -122.2326485404223320
    Two-Electron Energy =                  37.4335413441311147
    Total Energy =                        -76.0486181207144654

Computation Completed


Properties will be evaluated at   0.000000,   0.000000,   0.000000 [a0]

Properties computed using the SCF density matrix


 Multipole Moments:

 ------------------------------------------------------------------------------------
     Multipole            Electronic (a.u.)      Nuclear  (a.u.)        Total (a.u.)
 ------------------------------------------------------------------------------------

 L = 1.  Multiply by 2.5417464519 to convert [e a0] to [Debye]
 Dipole X            :         -0.5707076            0.8512876            0.2805800
 Dipole Y            :         -1.1222455            1.7150058            0.5927603
 Dipole Z            :          0.9884424           -1.4744739           -0.4860316
 Magnitude           :                                                    0.8162822

 ------------------------------------------------------------------------------------

*** tstop() called on moses-razer at Wed Jan  3 15:03:33 2024
Module time:
	user time   =       2.39 seconds =       0.04 minutes
	system time =       0.01 seconds =       0.00 minutes
	total time  =          1 seconds =       0.02 minutes
Total time:
	user time   =       5.91 seconds =       0.10 minutes
	system time =       0.11 seconds =       0.00 minutes
	total time  =          1 seconds =       0.02 minutes

*** tstart() called on moses-razer
*** at Wed Jan  3 15:03:33 2024


  //>>>>>>>>>>>>>>>>>>>>>>>>>>>>>>>>>>>//
  //               DFMP2               //
  //<<<<<<<<<<<<<<<<<<<<<<<<<<<<<<<<<<<//

   => Loading Basis Set <=

    Name: (AUG-CC-PVTZ AUX)
    Role: RIFIT
    Keyword: DF_BASIS_MP2
    atoms 1   entry O          line   264 file /home/kchung25/anaconda3/envs/p415env/share/psi4/basis/aug-cc-pvtz-ri.gbs 
    atoms 2-3 entry H          line    30 file /home/kchung25/anaconda3/envs/p415env/share/psi4/basis/aug-cc-pvtz-ri.gbs 
    atoms 4   entry F          line   322 file /home/kchung25/anaconda3/envs/p415env/share/psi4/basis/aug-cc-pvtz-ri.gbs 

	 --------------------------------------------------------
	                          DF-MP2                         
	      2nd-Order Density-Fitted Moller-Plesset Theory     
	              RMP2 Wavefunction,   6 Threads             
	                                                         
	        Rob Parrish, Justin Turney, Andy Simmonett,      
	           Ed Hohenstein, and C. David Sherrill          
	 --------------------------------------------------------

   => Auxiliary Basis Set <=

  Basis Set: (AUG-CC-PVTZ AUX)
    Blend: AUG-CC-PVTZ-RI
    Number of shells: 84
    Number of basis functions: 304
    Number of Cartesian functions: 382
    Spherical Harmonics?: true
    Max angular momentum: 4

	 --------------------------------------------------------
	                 NBF =   138, NAUX =   304
	 --------------------------------------------------------
	   CLASS    FOCC     OCC    AOCC    AVIR     VIR    FVIR
	   PAIRS       0       5       5     133     133       0
	 --------------------------------------------------------

	-----------------------------------------------------------
	 ==================> DF-MP2 Energies <==================== 
	-----------------------------------------------------------
	 Reference Energy          =     -76.0486181207144654 [Eh]
	 Singles Energy            =      -0.0000000000000000 [Eh]
	 Same-Spin Energy          =      -0.0692958285207713 [Eh]
	 Opposite-Spin Energy      =      -0.2184398210117432 [Eh]
	 Correlation Energy        =      -0.2877356495325145 [Eh]
	 Total Energy              =     -76.3363537702469728 [Eh]
	-----------------------------------------------------------
	 ================> DF-SCS-MP2 Energies <================== 
	-----------------------------------------------------------
	 SCS Same-Spin Scale       =       0.3333333333333333 [-]
	 SCS Opposite-Spin Scale   =       1.2000000000000000 [-]
	 SCS Same-Spin Energy      =      -0.0230986095069238 [Eh]
	 SCS Opposite-Spin Energy  =      -0.2621277852140918 [Eh]
	 SCS Correlation Energy    =      -0.2852263947210156 [Eh]
	 SCS Total Energy          =     -76.3338445154354872 [Eh]
	-----------------------------------------------------------


*** tstop() called on moses-razer at Wed Jan  3 15:03:33 2024
Module time:
	user time   =       0.78 seconds =       0.01 minutes
	system time =       0.02 seconds =       0.00 minutes
	total time  =          0 seconds =       0.00 minutes
Total time:
	user time   =       6.70 seconds =       0.11 minutes
	system time =       0.13 seconds =       0.00 minutes
	total time  =          1 seconds =       0.02 minutes

    Psi4 stopped on: Wednesday, 03 January 2024 03:03PM
    Psi4 wall time for execution: 0:00:00.56


    -----------------------------------------------------------------------
          Psi4: An Open-Source Ab Initio Electronic Structure Package
                               Psi4 1.9 release

                         Git: Rev {} zzzzzzz 


    D. G. A. Smith, L. A. Burns, A. C. Simmonett, R. M. Parrish,
    M. C. Schieber, R. Galvelis, P. Kraus, H. Kruse, R. Di Remigio,
    A. Alenaizan, A. M. James, S. Lehtola, J. P. Misiewicz, M. Scheurer,
    R. A. Shaw, J. B. Schriber, Y. Xie, Z. L. Glick, D. A. Sirianni,
    J. S. O'Brien, J. M. Waldrop, A. Kumar, E. G. Hohenstein,
    B. P. Pritchard, B. R. Brooks, H. F. Schaefer III, A. Yu. Sokolov,
    K. Patkowski, A. E. DePrince III, U. Bozkaya, R. A. King,
    F. A. Evangelista, J. M. Turney, T. D. Crawford, C. D. Sherrill,
    J. Chem. Phys. 152(18) 184108 (2020). https://doi.org/10.1063/5.0006002

                            Additional Code Authors
    E. T. Seidl, C. L. Janssen, E. F. Valeev, M. L. Leininger,
    J. F. Gonthier, R. M. Richard, H. R. McAlexander, M. Saitow, X. Wang,
    P. Verma, M. H. Lechner, A. Jiang, S. Behnle, A. G. Heide,
    M. F. Herbst, and D. L. Poole

             Previous Authors, Complete List of Code Contributors,
                       and Citations for Specific Modules
    https://github.com/psi4/psi4/blob/master/codemeta.json
    https://github.com/psi4/psi4/graphs/contributors
    http://psicode.org/psi4manual/master/introduction.html#citing-psifour

    -----------------------------------------------------------------------


    Psi4 started on: Wednesday, 03 January 2024 03:03PM

    Process ID: 406922
    Host:       moses-razer
    PSIDATADIR: /home/kchung25/anaconda3/envs/psi4_19/share/psi4
    Memory:     55.9 GiB
    Threads:    6
    
  ==> Input QCSchema <==

--------------------------------------------------------------------------
{'driver': 'energy',
 'extras': {'psiapi': True, 'wfn_qcvars_only': True},
 'id': None,
 'keywords': {'SCF_TYPE': 'DF', 'function_kwargs': {}},
 'model': {'basis': 'aug-cc-pvtz', 'method': 'mp2'},
 'molecule': {'atom_labels': ['', '', '', ''],
              'atomic_numbers': [8, 1, 1, 9],
              'extras': {},
              'fix_com': True,
              'fix_orientation': True,
              'fix_symmetry': 'c1',
              'fragment_charges': [0.0, -1.0],
              'fragment_multiplicities': [1, 1],
              'fragments': [[0, 1, 2], [3]],
              'geometry': [0.0, 0.0, 0.0, -0.150293698209912, 1.784398460403185, 0.26031544296019216,
                           1.0015813026584053, -0.0693926330529369, -1.7347893701576662, 4.585210683823494, 0.0, 0.0],
              'mass_numbers': [16, 1, 1, 19],
              'masses': [15.99491461957, 1.00782503223, 1.00782503223, 18.99840316273],
              'molecular_charge': -1.0,
              'molecular_multiplicity': 1,
              'name': 'dimer',
              'provenance': {'creator': 'QCElemental',
                             'routine': 'qcelemental.molparse.from_string',
                             'version': '0.27.1'},
              'real': [True, True, True, True],
              'schema_name': 'qcschema_molecule',
              'schema_version': 2,
              'symbols': ['O', 'H', 'H', 'F'],
              'validated': True},
 'protocols': {'stdout': True},
 'provenance': {'creator': 'QCElemental', 'routine': 'qcelemental.models.results', 'version': '0.27.1'},
 'schema_name': 'qcschema_input',
 'schema_version': 1}
--------------------------------------------------------------------------

Scratch directory: /scratch/
   => Libint2 <=

    Primary   basis highest AM E, G, H:  5, 4, 3
    Auxiliary basis highest AM E, G, H:  6, 5, 4
    Onebody   basis highest AM E, G, H:  6, 5, 4
    Solid Harmonics ordering:            gaussian

*** tstart() called on moses-razer
*** at Wed Jan  3 15:03:33 2024

   => Loading Basis Set <=

    Name: AUG-CC-PVTZ
    Role: ORBITAL
    Keyword: BASIS
    atoms 1   entry O          line   331 file /home/kchung25/anaconda3/envs/p415env/share/psi4/basis/aug-cc-pvtz.gbs 
    atoms 2-3 entry H          line    40 file /home/kchung25/anaconda3/envs/p415env/share/psi4/basis/aug-cc-pvtz.gbs 
    atoms 4   entry F          line   377 file /home/kchung25/anaconda3/envs/p415env/share/psi4/basis/aug-cc-pvtz.gbs 


         ---------------------------------------------------------
                                   SCF
               by Justin Turney, Rob Parrish, Andy Simmonett
                          and Daniel G. A. Smith
                              RHF Reference
                        6 Threads,  57220 MiB Core
         ---------------------------------------------------------

  ==> Geometry <==

    Molecular point group: c1
    Full point group: C1

    Geometry (in Bohr), charge = -1, multiplicity = 1:

       Center              X                  Y                   Z               Mass       
    ------------   -----------------  -----------------  -----------------  -----------------
         O            0.000000000000     0.000000000000     0.000000000000    15.994914619570
         H           -0.150293698210     1.784398460403     0.260315442960     1.007825032230
         H            1.001581302658    -0.069392633053    -1.734789370158     1.007825032230
         F            4.585210683823     0.000000000000     0.000000000000    18.998403162730

  Running in c1 symmetry.

  Rotational constants: A =      9.54517  B =      0.14937  C =      0.14893 [cm^-1]
  Rotational constants: A = 286157.08948  B =   4477.93298  C =   4464.83872 [MHz]
  Nuclear repulsion =   28.489408931357914

  Charge       = -1
  Multiplicity = 1
  Electrons    = 20
  Nalpha       = 10
  Nbeta        = 10

  ==> Algorithm <==

  SCF Algorithm Type is DF.
  DIIS enabled.
  MOM disabled.
  Fractional occupation disabled.
  Guess Type is SAD.
  Energy threshold   = 1.00e-08
  Density threshold  = 1.00e-08
  Integral threshold = 1.00e-12

  ==> Primary Basis <==

  Basis Set: AUG-CC-PVTZ
    Blend: AUG-CC-PVTZ
    Number of shells: 46
    Number of basis functions: 138
    Number of Cartesian functions: 160
    Spherical Harmonics?: true
    Max angular momentum: 3

   => Loading Basis Set <=

    Name: (AUG-CC-PVTZ AUX)
    Role: JKFIT
    Keyword: DF_BASIS_SCF
    atoms 1   entry O          line   286 file /home/kchung25/anaconda3/envs/p415env/share/psi4/basis/aug-cc-pvtz-jkfit.gbs 
    atoms 2-3 entry H          line    70 file /home/kchung25/anaconda3/envs/p415env/share/psi4/basis/aug-cc-pvtz-jkfit.gbs 
    atoms 4   entry F          line   348 file /home/kchung25/anaconda3/envs/p415env/share/psi4/basis/aug-cc-pvtz-jkfit.gbs 

  ==> Integral Setup <==

  DFHelper Memory: AOs need 0.048 GiB; user supplied 41.910 GiB. 
  Using in-core AOs.

  ==> MemDFJK: Density-Fitted J/K Matrices <==

    J tasked:                   Yes
    K tasked:                   Yes
    wK tasked:                   No
    OpenMP threads:               6
    Memory [MiB]:             42915
    Algorithm:                 Core
    Schwarz Cutoff:           1E-12
    Mask sparsity (%):       0.0420
    Fitting Condition:        1E-10

   => Auxiliary Basis Set <=

  Basis Set: (AUG-CC-PVTZ AUX)
    Blend: AUG-CC-PVTZ-JKFIT
    Number of shells: 88
    Number of basis functions: 300
    Number of Cartesian functions: 372
    Spherical Harmonics?: true
    Max angular momentum: 4

  Minimum eigenvalue in the overlap matrix is 3.4582800672E-04.
  Reciprocal condition number of the overlap matrix is 4.6722208161E-05.
    Using symmetric orthogonalization.

  ==> Pre-Iterations <==

  SCF Guess: Superposition of Atomic Densities via on-the-fly atomic UHF (no occupation information).

   -------------------------
    Irrep   Nso     Nmo    
   -------------------------
     A        138     138 
   -------------------------
    Total     138     138
   -------------------------

  ==> Iterations <==

                           Total Energy        Delta E     RMS |[F,P]|

   @DF-RHF iter SAD:  -174.29448760456256   -1.74294e+02   0.00000e+00 
   @DF-RHF iter   1:  -175.29472955018872   -1.00024e+00   5.18694e-03 ADIIS/DIIS
   @DF-RHF iter   2:  -175.38758597781478   -9.28564e-02   4.40820e-03 ADIIS/DIIS
   @DF-RHF iter   3:  -175.49326163885470   -1.05676e-01   2.68374e-04 ADIIS/DIIS
   @DF-RHF iter   4:  -175.49392999651215   -6.68358e-04   1.56052e-04 ADIIS/DIIS
   @DF-RHF iter   5:  -175.49412160438246   -1.91608e-04   3.21414e-05 DIIS
   @DF-RHF iter   6:  -175.49413890685486   -1.73025e-05   7.96407e-06 DIIS
   @DF-RHF iter   7:  -175.49414040676527   -1.49991e-06   1.86295e-06 DIIS
   @DF-RHF iter   8:  -175.49414051583705   -1.09072e-07   4.68295e-07 DIIS
   @DF-RHF iter   9:  -175.49414052198838   -6.15134e-09   9.77980e-08 DIIS
   @DF-RHF iter  10:  -175.49414052227766   -2.89276e-10   2.40758e-08 DIIS
   @DF-RHF iter  11:  -175.49414052229577   -1.81046e-11   5.38058e-09 DIIS
  Energy and wave function converged.


  ==> Post-Iterations <==

    Orbital Energies [Eh]
    ---------------------

    Doubly Occupied:                                                      

       1A    -25.839290     2A    -20.360692     3A     -1.122097  
       4A     -1.085490     5A     -0.475448     6A     -0.371840  
       7A     -0.301026     8A     -0.190923     9A     -0.190360  
      10A     -0.182692  

    Virtual:                                                              

      11A      0.154123    12A      0.172310    13A      0.273182  
      14A      0.304850    15A      0.319091    16A      0.342117  
      17A      0.384734    18A      0.406300    19A      0.419489  
      20A      0.443954    21A      0.456959    22A      0.496849  
      23A      0.524755    24A      0.525164    25A      0.566369  
      26A      0.608934    27A      0.638148    28A      0.671784  
      29A      0.781614    30A      0.855020    31A      0.920659  
      32A      0.929857    33A      0.960244    34A      1.004256  
      35A      1.062649    36A      1.087142    37A      1.096523  
      38A      1.109901    39A      1.131720    40A      1.163516  
      41A      1.191024    42A      1.212299    43A      1.243803  
      44A      1.250597    45A      1.273865    46A      1.300366  
      47A      1.352018    48A      1.378318    49A      1.412105  
      50A      1.447872    51A      1.458817    52A      1.471850  
      53A      1.500898    54A      1.620102    55A      1.662244  
      56A      1.722238    57A      1.747438    58A      1.844769  
      59A      1.956744    60A      1.998013    61A      2.083385  
      62A      2.157106    63A      2.319642    64A      2.398224  
      65A      2.490016    66A      2.541591    67A      2.596359  
      68A      2.631529    69A      2.683200    70A      2.784137  
      71A      2.795037    72A      2.911546    73A      2.928030  
      74A      2.963026    75A      3.012564    76A      3.057298  
      77A      3.287326    78A      3.290786    79A      3.322152  
      80A      3.325530    81A      3.331092    82A      3.350217  
      83A      3.385089    84A      3.424006    85A      3.431519  
      86A      3.503870    87A      3.537913    88A      3.741611  
      89A      3.923682    90A      4.010483    91A      4.257478  
      92A      4.364828    93A      4.403993    94A      4.429616  
      95A      4.541993    96A      4.594277    97A      4.681064  
      98A      4.754254    99A      4.833594   100A      4.876262  
     101A      5.035856   102A      5.232947   103A      5.240696  
     104A      5.379325   105A      5.514917   106A      5.672872  
     107A      5.729030   108A      5.750021   109A      5.801909  
     110A      6.119458   111A      6.437418   112A      6.787352  
     113A      6.933844   114A      7.100892   115A      7.250825  
     116A      7.426626   117A      7.470631   118A      7.524984  
     119A      7.582819   120A      7.620354   121A      7.696742  
     122A      8.024749   123A      8.101687   124A      8.754082  
     125A      9.268442   126A      9.270488   127A      9.309723  
     128A      9.313455   129A      9.380938   130A      9.458474  
     131A      9.484941   132A      9.772265   133A      9.779907  
     134A      9.850508   135A      9.882057   136A      9.944330  
     137A     11.903327   138A     14.888199  

    Final Occupation by Irrep:
              A 
    DOCC [    10 ]
    NA   [    10 ]
    NB   [    10 ]

  @DF-RHF Final Energy:  -175.49414052229577

   => Energetics <=

    Nuclear Repulsion Energy =             28.4894089313579144
    One-Electron Energy =                -307.7273815375552317
    Two-Electron Energy =                 103.7438320839015660
    Total Energy =                       -175.4941405222957655

Computation Completed


Properties will be evaluated at   0.000000,   0.000000,   0.000000 [a0]

Properties computed using the SCF density matrix


 Multipole Moments:

 ------------------------------------------------------------------------------------
     Multipole            Electronic (a.u.)      Nuclear  (a.u.)        Total (a.u.)
 ------------------------------------------------------------------------------------

 L = 1.  Multiply by 2.5417464519 to convert [e a0] to [Debye]
 Dipole X            :        -46.0910715           42.1181838           -3.9728877
 Dipole Y            :         -1.1849303            1.7150058            0.5300755
 Dipole Z            :          1.0500223           -1.4744739           -0.4244517
 Magnitude           :                                                    4.0305057

 ------------------------------------------------------------------------------------

*** tstop() called on moses-razer at Wed Jan  3 15:03:33 2024
Module time:
	user time   =       2.86 seconds =       0.05 minutes
	system time =       0.03 seconds =       0.00 minutes
	total time  =          0 seconds =       0.00 minutes
Total time:
	user time   =       9.82 seconds =       0.16 minutes
	system time =       0.16 seconds =       0.00 minutes
	total time  =          1 seconds =       0.02 minutes

*** tstart() called on moses-razer
*** at Wed Jan  3 15:03:33 2024


  //>>>>>>>>>>>>>>>>>>>>>>>>>>>>>>>>>>>//
  //               DFMP2               //
  //<<<<<<<<<<<<<<<<<<<<<<<<<<<<<<<<<<<//

   => Loading Basis Set <=

    Name: (AUG-CC-PVTZ AUX)
    Role: RIFIT
    Keyword: DF_BASIS_MP2
    atoms 1   entry O          line   264 file /home/kchung25/anaconda3/envs/p415env/share/psi4/basis/aug-cc-pvtz-ri.gbs 
    atoms 2-3 entry H          line    30 file /home/kchung25/anaconda3/envs/p415env/share/psi4/basis/aug-cc-pvtz-ri.gbs 
    atoms 4   entry F          line   322 file /home/kchung25/anaconda3/envs/p415env/share/psi4/basis/aug-cc-pvtz-ri.gbs 

	 --------------------------------------------------------
	                          DF-MP2                         
	      2nd-Order Density-Fitted Moller-Plesset Theory     
	              RMP2 Wavefunction,   6 Threads             
	                                                         
	        Rob Parrish, Justin Turney, Andy Simmonett,      
	           Ed Hohenstein, and C. David Sherrill          
	 --------------------------------------------------------

   => Auxiliary Basis Set <=

  Basis Set: (AUG-CC-PVTZ AUX)
    Blend: AUG-CC-PVTZ-RI
    Number of shells: 84
    Number of basis functions: 304
    Number of Cartesian functions: 382
    Spherical Harmonics?: true
    Max angular momentum: 4

	 --------------------------------------------------------
	                 NBF =   138, NAUX =   304
	 --------------------------------------------------------
	   CLASS    FOCC     OCC    AOCC    AVIR     VIR    FVIR
	   PAIRS       0      10      10     128     128       0
	 --------------------------------------------------------

	-----------------------------------------------------------
	 ==================> DF-MP2 Energies <==================== 
	-----------------------------------------------------------
	 Reference Energy          =    -175.4941405222957655 [Eh]
	 Singles Energy            =      -0.0000000000000000 [Eh]
	 Same-Spin Energy          =      -0.1527673750604453 [Eh]
	 Opposite-Spin Energy      =      -0.4466260847888182 [Eh]
	 Correlation Energy        =      -0.5993934598492635 [Eh]
	 Total Energy              =    -176.0935339821450327 [Eh]
	-----------------------------------------------------------
	 ================> DF-SCS-MP2 Energies <================== 
	-----------------------------------------------------------
	 SCS Same-Spin Scale       =       0.3333333333333333 [-]
	 SCS Opposite-Spin Scale   =       1.2000000000000000 [-]
	 SCS Same-Spin Energy      =      -0.0509224583534818 [Eh]
	 SCS Opposite-Spin Energy  =      -0.5359513017465818 [Eh]
	 SCS Correlation Energy    =      -0.5868737601000635 [Eh]
	 SCS Total Energy          =    -176.0810142823958415 [Eh]
	-----------------------------------------------------------


*** tstop() called on moses-razer at Wed Jan  3 15:03:34 2024
Module time:
	user time   =       0.92 seconds =       0.02 minutes
	system time =       0.04 seconds =       0.00 minutes
	total time  =          1 seconds =       0.02 minutes
Total time:
	user time   =      10.74 seconds =       0.18 minutes
	system time =       0.20 seconds =       0.00 minutes
	total time  =          2 seconds =       0.03 minutes

    Psi4 stopped on: Wednesday, 03 January 2024 03:03PM
    Psi4 wall time for execution: 0:00:00.67


  //>>>>>>>>>>>>>>>>>>>>>>>>>>>>>>>>>>>//
  //          ManyBody Results         //
  //<<<<<<<<<<<<<<<<<<<<<<<<<<<<<<<<<<<//


   ==> N-Body: Counterpoise Corrected (CP) energies <==

        n-Body     Total Energy            Interaction Energy                          N-body Contribution to Interaction Energy
                   [Eh]                    [Eh]                  [kcal/mol]            [Eh]                  [kcal/mol]
             1  N/A                         0.000000000000        0.000000000000        0.000000000000        0.000000000000
  FULL/RTN   2  N/A                         0.002270368687        1.424677860234        0.002270368687        1.424677860234


    Psi4 stopped on: Wednesday, 03 January 2024 03:03PM
    Psi4 wall time for execution: 0:00:03.40

*** Psi4 exiting successfully. Buy a developer a beer!
