
    -----------------------------------------------------------------------
          Psi4: An Open-Source Ab Initio Electronic Structure Package
                               Psi4 1.9 release

                         Git: Rev {} zzzzzzz 


    D. G. A. Smith, L. A. Burns, A. C. Simmonett, R. M. Parrish,
    M. C. Schieber, R. Galvelis, P. Kraus, H. Kruse, R. Di Remigio,
    A. Alenaizan, A. M. James, S. Lehtola, J. P. Misiewicz, M. Scheurer,
    R. A. Shaw, J. B. Schriber, Y. Xie, Z. L. Glick, D. A. Sirianni,
    J. S. O'Brien, J. M. Waldrop, A. Kumar, E. G. Hohenstein,
    B. P. Pritchard, B. R. Brooks, H. F. Schaefer III, A. Yu. Sokolov,
    K. Patkowski, A. E. DePrince III, U. Bozkaya, R. A. King,
    F. A. Evangelista, J. M. Turney, T. D. Crawford, C. D. Sherrill,
    J. Chem. Phys. 152(18) 184108 (2020). https://doi.org/10.1063/5.0006002

                            Additional Code Authors
    E. T. Seidl, C. L. Janssen, E. F. Valeev, M. L. Leininger,
    J. F. Gonthier, R. M. Richard, H. R. McAlexander, M. Saitow, X. Wang,
    P. Verma, M. H. Lechner, A. Jiang, S. Behnle, A. G. Heide,
    M. F. Herbst, and D. L. Poole

             Previous Authors, Complete List of Code Contributors,
                       and Citations for Specific Modules
    https://github.com/psi4/psi4/blob/master/codemeta.json
    https://github.com/psi4/psi4/graphs/contributors
    http://psicode.org/psi4manual/master/introduction.html#citing-psifour

    -----------------------------------------------------------------------


    Psi4 started on: Wednesday, 03 January 2024 07:44PM

    Process ID: 433581
    Host:       moses-razer
    PSIDATADIR: /home/kchung25/anaconda3/envs/psi4_19/share/psi4
    Memory:     500.0 MiB
    Threads:    6
    
  ==> Input File <==

--------------------------------------------------------------------------
MEMORY 60 GB

molecule dimer {
0 1
F      0.000000     0.000000     0.000000
Li     0.000000     1.584155     0.000000
--
1 1
Li     1.584155     0.000000     0.000000

units ang
no_reorient
no_com
symmetry c1
}

set {
basis        aug-cc-pVTZ
scf_type     df
}

energy("mp2", bsse_type="cp")
--------------------------------------------------------------------------

  Memory set to  55.879 GiB by Python driver.

Scratch directory: /scratch/

  //>>>>>>>>>>>>>>>>>>>>>>>>>>>>>>>>>>>>>//
  // ManyBody Setup: N-Body Levels [1, 2]//
  //<<<<<<<<<<<<<<<<<<<<<<<<<<<<<<<<<<<<<//

        Number of 1-body computations:     2
        Number of 2-body computations:     1

    -----------------------------------------------------------------------
          Psi4: An Open-Source Ab Initio Electronic Structure Package
                               Psi4 1.9 release

                         Git: Rev {} zzzzzzz 


    D. G. A. Smith, L. A. Burns, A. C. Simmonett, R. M. Parrish,
    M. C. Schieber, R. Galvelis, P. Kraus, H. Kruse, R. Di Remigio,
    A. Alenaizan, A. M. James, S. Lehtola, J. P. Misiewicz, M. Scheurer,
    R. A. Shaw, J. B. Schriber, Y. Xie, Z. L. Glick, D. A. Sirianni,
    J. S. O'Brien, J. M. Waldrop, A. Kumar, E. G. Hohenstein,
    B. P. Pritchard, B. R. Brooks, H. F. Schaefer III, A. Yu. Sokolov,
    K. Patkowski, A. E. DePrince III, U. Bozkaya, R. A. King,
    F. A. Evangelista, J. M. Turney, T. D. Crawford, C. D. Sherrill,
    J. Chem. Phys. 152(18) 184108 (2020). https://doi.org/10.1063/5.0006002

                            Additional Code Authors
    E. T. Seidl, C. L. Janssen, E. F. Valeev, M. L. Leininger,
    J. F. Gonthier, R. M. Richard, H. R. McAlexander, M. Saitow, X. Wang,
    P. Verma, M. H. Lechner, A. Jiang, S. Behnle, A. G. Heide,
    M. F. Herbst, and D. L. Poole

             Previous Authors, Complete List of Code Contributors,
                       and Citations for Specific Modules
    https://github.com/psi4/psi4/blob/master/codemeta.json
    https://github.com/psi4/psi4/graphs/contributors
    http://psicode.org/psi4manual/master/introduction.html#citing-psifour

    -----------------------------------------------------------------------


    Psi4 started on: Wednesday, 03 January 2024 07:44PM

    Process ID: 433581
    Host:       moses-razer
    PSIDATADIR: /home/kchung25/anaconda3/envs/psi4_19/share/psi4
    Memory:     55.9 GiB
    Threads:    6
    
  ==> Input QCSchema <==

--------------------------------------------------------------------------
{'driver': 'energy',
 'extras': {'psiapi': True, 'wfn_qcvars_only': True},
 'id': None,
 'keywords': {'SCF_TYPE': 'DF', 'function_kwargs': {}},
 'model': {'basis': 'aug-cc-pvtz', 'method': 'mp2'},
 'molecule': {'atom_labels': ['', '', ''],
              'atomic_numbers': [9, 3, 3],
              'extras': {},
              'fix_com': True,
              'fix_orientation': True,
              'fix_symmetry': 'c1',
              'fragment_charges': [0.0, 1.0],
              'fragment_multiplicities': [1, 1],
              'fragments': [[0, 1], [2]],
              'geometry': [0.0, 0.0, 0.0, 0.0, 2.993619090274646, 0.0, 2.993619090274646, 0.0, 0.0],
              'mass_numbers': [19, 7, 7],
              'masses': [18.99840316273, 7.0160034366, 7.0160034366],
              'molecular_charge': 1.0,
              'molecular_multiplicity': 1,
              'name': 'dimer',
              'provenance': {'creator': 'QCElemental',
                             'routine': 'qcelemental.molparse.from_string',
                             'version': '0.27.1'},
              'real': [False, False, True],
              'schema_name': 'qcschema_molecule',
              'schema_version': 2,
              'symbols': ['F', 'Li', 'Li'],
              'validated': True},
 'protocols': {'stdout': True},
 'provenance': {'creator': 'QCElemental', 'routine': 'qcelemental.models.results', 'version': '0.27.1'},
 'schema_name': 'qcschema_input',
 'schema_version': 1}
--------------------------------------------------------------------------

Scratch directory: /scratch/
   => Libint2 <=

    Primary   basis highest AM E, G, H:  5, 4, 3
    Auxiliary basis highest AM E, G, H:  6, 5, 4
    Onebody   basis highest AM E, G, H:  6, 5, 4
    Solid Harmonics ordering:            gaussian

*** tstart() called on moses-razer
*** at Wed Jan  3 19:44:34 2024

   => Loading Basis Set <=

    Name: AUG-CC-PVTZ
    Role: ORBITAL
    Keyword: BASIS
    atoms 1   entry F          line   377 file /home/kchung25/anaconda3/envs/p415env/share/psi4/basis/aug-cc-pvtz.gbs 
    atoms 2-3 entry LI         line    85 file /home/kchung25/anaconda3/envs/p415env/share/psi4/basis/aug-cc-pvtz.gbs 


         ---------------------------------------------------------
                                   SCF
               by Justin Turney, Rob Parrish, Andy Simmonett
                          and Daniel G. A. Smith
                              RHF Reference
                        6 Threads,  57220 MiB Core
         ---------------------------------------------------------

  ==> Geometry <==

    Molecular point group: c1
    Full point group: C1h

    Geometry (in Bohr), charge = 1, multiplicity = 1:

       Center              X                  Y                   Z               Mass       
    ------------   -----------------  -----------------  -----------------  -----------------
      Gh(F)           0.000000000000     0.000000000000     0.000000000000    18.998403162730
      Gh(LI)          0.000000000000     2.993619090275     0.000000000000     7.016003436600
         LI           2.993619090275     0.000000000000     0.000000000000     7.016003436600

  Running in c1 symmetry.

  Rotational constants: A =      0.95744  B =      0.95744  C =      0.47872 [cm^-1]
  Rotational constants: A =  28703.31528  B =  28703.31528  C =  14351.65764 [MHz]
  Nuclear repulsion =    0.000000000000000

  Charge       = 1
  Multiplicity = 1
  Electrons    = 2
  Nalpha       = 1
  Nbeta        = 1

  ==> Algorithm <==

  SCF Algorithm Type is DF.
  DIIS enabled.
  MOM disabled.
  Fractional occupation disabled.
  Guess Type is SAD.
  Energy threshold   = 1.00e-08
  Density threshold  = 1.00e-08
  Integral threshold = 1.00e-12

  ==> Primary Basis <==

  Basis Set: AUG-CC-PVTZ
    Blend: AUG-CC-PVTZ
    Number of shells: 42
    Number of basis functions: 138
    Number of Cartesian functions: 165
    Spherical Harmonics?: true
    Max angular momentum: 3

   => Loading Basis Set <=

    Name: (AUG-CC-PVTZ AUX)
    Role: JKFIT
    Keyword: DF_BASIS_SCF
    atoms 1   entry F          line   348 file /home/kchung25/anaconda3/envs/p415env/share/psi4/basis/aug-cc-pvtz-jkfit.gbs 
    atoms 2-3 entry LI         line    54 file /home/kchung25/anaconda3/envs/p415env/share/psi4/basis/def2-universal-jkfit.gbs 

  ==> Integral Setup <==

  DFHelper Memory: AOs need 0.034 GiB; user supplied 41.910 GiB. 
  Using in-core AOs.

  ==> MemDFJK: Density-Fitted J/K Matrices <==

    J tasked:                   Yes
    K tasked:                   Yes
    wK tasked:                   No
    OpenMP threads:               6
    Memory [MiB]:             42915
    Algorithm:                 Core
    Schwarz Cutoff:           1E-12
    Mask sparsity (%):       0.0000
    Fitting Condition:        1E-10

   => Auxiliary Basis Set <=

  Basis Set: (AUG-CC-PVTZ AUX)
    Blend: AUG-CC-PVTZ-JKFIT + DEF2-UNIVERSAL-JKFIT
    Number of shells: 64
    Number of basis functions: 206
    Number of Cartesian functions: 251
    Spherical Harmonics?: true
    Max angular momentum: 4

  Minimum eigenvalue in the overlap matrix is 3.3482803645E-05.
  Reciprocal condition number of the overlap matrix is 4.2489007307E-06.
    Using symmetric orthogonalization.

  ==> Pre-Iterations <==

  SCF Guess: Superposition of Atomic Densities via on-the-fly atomic UHF (no occupation information).

   -------------------------
    Irrep   Nso     Nmo    
   -------------------------
     A        138     138 
   -------------------------
    Total     138     138
   -------------------------

  ==> Iterations <==

                           Total Energy        Delta E     RMS |[F,P]|

   @DF-RHF iter SAD:    -7.31446115524824   -7.31446e+00   0.00000e+00 
   @DF-RHF iter   1:    -7.23638164348138    7.80795e-02   1.64333e-05 DIIS
   @DF-RHF iter   2:    -7.23638351456532   -1.87108e-06   1.89718e-06 DIIS
   @DF-RHF iter   3:    -7.23638354320419   -2.86389e-08   9.93911e-08 DIIS
   @DF-RHF iter   4:    -7.23638354326399   -5.97957e-11   8.84521e-10 DIIS
  Energy and wave function converged.


  ==> Post-Iterations <==

    Orbital Energies [Eh]
    ---------------------

    Doubly Occupied:                                                      

       1A     -2.792367  

    Virtual:                                                              

       2A     -0.196299     3A     -0.128601     4A     -0.128597  
       5A     -0.128595     6A     -0.073723     7A     -0.056675  
       8A     -0.056376     9A     -0.056362    10A     -0.053995  
      11A     -0.053966    12A     -0.053605    13A     -0.033021  
      14A     -0.032903    15A     -0.029227    16A     -0.026084  
      17A     -0.022068    18A     -0.021998    19A     -0.005444  
      20A     -0.004321    21A     -0.001217    22A      0.009026  
      23A      0.017540    24A      0.018591    25A      0.019846  
      26A      0.027044    27A      0.027498    28A      0.048501  
      29A      0.053713    30A      0.056192    31A      0.084710  
      32A      0.091938    33A      0.102038    34A      0.110293  
      35A      0.114847    36A      0.118466    37A      0.127075  
      38A      0.127680    39A      0.147149    40A      0.169734  
      41A      0.169961    42A      0.173142    43A      0.176023  
      44A      0.179624    45A      0.181138    46A      0.184889  
      47A      0.203374    48A      0.206074    49A      0.227641  
      50A      0.230300    51A      0.242652    52A      0.256191  
      53A      0.256297    54A      0.265616    55A      0.269740  
      56A      0.277202    57A      0.286938    58A      0.291062  
      59A      0.296593    60A      0.300732    61A      0.303833  
      62A      0.312684    63A      0.402023    64A      0.424756  
      65A      0.438747    66A      0.480856    67A      0.523137  
      68A      0.524001    69A      0.532688    70A      0.534761  
      71A      0.561363    72A      0.568382    73A      0.574209  
      74A      0.581383    75A      0.583149    76A      0.598137  
      77A      0.604655    78A      0.627004    79A      0.655185  
      80A      0.659674    81A      0.709997    82A      0.729737  
      83A      0.735919    84A      0.763521    85A      0.769075  
      86A      0.795539    87A      0.803669    88A      0.821988  
      89A      0.832752    90A      0.840877    91A      0.991988  
      92A      1.006303    93A      1.042238    94A      1.105548  
      95A      1.108762    96A      1.123937    97A      1.271248  
      98A      1.319095    99A      1.363163   100A      1.443925  
     101A      1.539456   102A      1.582379   103A      2.080541  
     104A      2.732788   105A      2.852868   106A      2.911163  
     107A      2.924354   108A      2.949250   109A      3.034338  
     110A      3.057519   111A      3.178566   112A      3.232878  
     113A      3.341767   114A      3.526731   115A      3.584767  
     116A      3.639011   117A      3.679103   118A      3.773033  
     119A      3.933428   120A      4.386815   121A      9.906216  
     122A      9.923279   123A      9.935833   124A      9.940218  
     125A      9.980543   126A     10.022423   127A     10.118024  
     128A     10.790229   129A     11.585397   130A     12.768289  
     131A     12.775747   132A     12.842366   133A     12.847846  
     134A     12.883005   135A     14.318038   136A     14.454542  
     137A     14.631676   138A     71.974284  

    Final Occupation by Irrep:
              A 
    DOCC [     1 ]
    NA   [     1 ]
    NB   [     1 ]

  @DF-RHF Final Energy:    -7.23638354326399

   => Energetics <=

    Nuclear Repulsion Energy =              0.0000000000000000
    One-Electron Energy =                  -8.8880332566051781
    Two-Electron Energy =                   1.6516497133411878
    Total Energy =                         -7.2363835432639902

Computation Completed


Properties will be evaluated at   0.000000,   0.000000,   0.000000 [a0]

Properties computed using the SCF density matrix


 Multipole Moments:

 ------------------------------------------------------------------------------------
     Multipole            Electronic (a.u.)      Nuclear  (a.u.)        Total (a.u.)
 ------------------------------------------------------------------------------------

 L = 1.  Multiply by 2.5417464519 to convert [e a0] to [Debye]
 Dipole X            :         -5.9872472            8.9808573            2.9936101
 Dipole Y            :          0.0000597            0.0000000            0.0000597
 Dipole Z            :         -0.0000000            0.0000000           -0.0000000
 Magnitude           :                                                    2.9936101

 ------------------------------------------------------------------------------------

*** tstop() called on moses-razer at Wed Jan  3 19:44:34 2024
Module time:
	user time   =       2.45 seconds =       0.04 minutes
	system time =       0.09 seconds =       0.00 minutes
	total time  =          0 seconds =       0.00 minutes
Total time:
	user time   =       2.45 seconds =       0.04 minutes
	system time =       0.09 seconds =       0.00 minutes
	total time  =          0 seconds =       0.00 minutes

*** tstart() called on moses-razer
*** at Wed Jan  3 19:44:34 2024


  //>>>>>>>>>>>>>>>>>>>>>>>>>>>>>>>>>>>//
  //               DFMP2               //
  //<<<<<<<<<<<<<<<<<<<<<<<<<<<<<<<<<<<//

   => Loading Basis Set <=

    Name: (AUG-CC-PVTZ AUX)
    Role: RIFIT
    Keyword: DF_BASIS_MP2
    atoms 1   entry F          line   322 file /home/kchung25/anaconda3/envs/p415env/share/psi4/basis/aug-cc-pvtz-ri.gbs 
    atoms 2-3 entry LI         line    90 file /home/kchung25/anaconda3/envs/p415env/share/psi4/basis/def2-qzvpp-ri.gbs 

	 --------------------------------------------------------
	                          DF-MP2                         
	      2nd-Order Density-Fitted Moller-Plesset Theory     
	              RMP2 Wavefunction,   6 Threads             
	                                                         
	        Rob Parrish, Justin Turney, Andy Simmonett,      
	           Ed Hohenstein, and C. David Sherrill          
	 --------------------------------------------------------

   => Auxiliary Basis Set <=

  Basis Set: (AUG-CC-PVTZ AUX)
    Blend: AUG-CC-PVTZ-RI + DEF2-QZVPP-RI
    Number of shells: 82
    Number of basis functions: 308
    Number of Cartesian functions: 396
    Spherical Harmonics?: true
    Max angular momentum: 4

	 --------------------------------------------------------
	                 NBF =   138, NAUX =   308
	 --------------------------------------------------------
	   CLASS    FOCC     OCC    AOCC    AVIR     VIR    FVIR
	   PAIRS       0       1       1     137     137       0
	 --------------------------------------------------------

	-----------------------------------------------------------
	 ==================> DF-MP2 Energies <==================== 
	-----------------------------------------------------------
	 Reference Energy          =      -7.2363835432639902 [Eh]
	 Singles Energy            =      -0.0000000000000000 [Eh]
	 Same-Spin Energy          =      -0.0000000000000000 [Eh]
	 Opposite-Spin Energy      =      -0.0135267298203471 [Eh]
	 Correlation Energy        =      -0.0135267298203471 [Eh]
	 Total Energy              =      -7.2499102730843372 [Eh]
	-----------------------------------------------------------
	 ================> DF-SCS-MP2 Energies <================== 
	-----------------------------------------------------------
	 SCS Same-Spin Scale       =       0.3333333333333333 [-]
	 SCS Opposite-Spin Scale   =       1.2000000000000000 [-]
	 SCS Same-Spin Energy      =      -0.0000000000000000 [Eh]
	 SCS Opposite-Spin Energy  =      -0.0162320757844165 [Eh]
	 SCS Correlation Energy    =      -0.0162320757844165 [Eh]
	 SCS Total Energy          =      -7.2526156190484068 [Eh]
	-----------------------------------------------------------


*** tstop() called on moses-razer at Wed Jan  3 19:44:35 2024
Module time:
	user time   =       1.54 seconds =       0.03 minutes
	system time =       0.05 seconds =       0.00 minutes
	total time  =          1 seconds =       0.02 minutes
Total time:
	user time   =       4.00 seconds =       0.07 minutes
	system time =       0.14 seconds =       0.00 minutes
	total time  =          1 seconds =       0.02 minutes

    Psi4 stopped on: Wednesday, 03 January 2024 07:44PM
    Psi4 wall time for execution: 0:00:00.72


    -----------------------------------------------------------------------
          Psi4: An Open-Source Ab Initio Electronic Structure Package
                               Psi4 1.9 release

                         Git: Rev {} zzzzzzz 


    D. G. A. Smith, L. A. Burns, A. C. Simmonett, R. M. Parrish,
    M. C. Schieber, R. Galvelis, P. Kraus, H. Kruse, R. Di Remigio,
    A. Alenaizan, A. M. James, S. Lehtola, J. P. Misiewicz, M. Scheurer,
    R. A. Shaw, J. B. Schriber, Y. Xie, Z. L. Glick, D. A. Sirianni,
    J. S. O'Brien, J. M. Waldrop, A. Kumar, E. G. Hohenstein,
    B. P. Pritchard, B. R. Brooks, H. F. Schaefer III, A. Yu. Sokolov,
    K. Patkowski, A. E. DePrince III, U. Bozkaya, R. A. King,
    F. A. Evangelista, J. M. Turney, T. D. Crawford, C. D. Sherrill,
    J. Chem. Phys. 152(18) 184108 (2020). https://doi.org/10.1063/5.0006002

                            Additional Code Authors
    E. T. Seidl, C. L. Janssen, E. F. Valeev, M. L. Leininger,
    J. F. Gonthier, R. M. Richard, H. R. McAlexander, M. Saitow, X. Wang,
    P. Verma, M. H. Lechner, A. Jiang, S. Behnle, A. G. Heide,
    M. F. Herbst, and D. L. Poole

             Previous Authors, Complete List of Code Contributors,
                       and Citations for Specific Modules
    https://github.com/psi4/psi4/blob/master/codemeta.json
    https://github.com/psi4/psi4/graphs/contributors
    http://psicode.org/psi4manual/master/introduction.html#citing-psifour

    -----------------------------------------------------------------------


    Psi4 started on: Wednesday, 03 January 2024 07:44PM

    Process ID: 433581
    Host:       moses-razer
    PSIDATADIR: /home/kchung25/anaconda3/envs/psi4_19/share/psi4
    Memory:     55.9 GiB
    Threads:    6
    
  ==> Input QCSchema <==

--------------------------------------------------------------------------
{'driver': 'energy',
 'extras': {'psiapi': True, 'wfn_qcvars_only': True},
 'id': None,
 'keywords': {'SCF_TYPE': 'DF', 'function_kwargs': {}},
 'model': {'basis': 'aug-cc-pvtz', 'method': 'mp2'},
 'molecule': {'atom_labels': ['', '', ''],
              'atomic_numbers': [9, 3, 3],
              'extras': {},
              'fix_com': True,
              'fix_orientation': True,
              'fix_symmetry': 'c1',
              'fragment_charges': [0.0, 0.0],
              'fragment_multiplicities': [1, 1],
              'fragments': [[0, 1], [2]],
              'geometry': [0.0, 0.0, 0.0, 0.0, 2.993619090274646, 0.0, 2.993619090274646, 0.0, 0.0],
              'mass_numbers': [19, 7, 7],
              'masses': [18.99840316273, 7.0160034366, 7.0160034366],
              'molecular_charge': 0.0,
              'molecular_multiplicity': 1,
              'name': 'dimer',
              'provenance': {'creator': 'QCElemental',
                             'routine': 'qcelemental.molparse.from_string',
                             'version': '0.27.1'},
              'real': [True, True, False],
              'schema_name': 'qcschema_molecule',
              'schema_version': 2,
              'symbols': ['F', 'Li', 'Li'],
              'validated': True},
 'protocols': {'stdout': True},
 'provenance': {'creator': 'QCElemental', 'routine': 'qcelemental.models.results', 'version': '0.27.1'},
 'schema_name': 'qcschema_input',
 'schema_version': 1}
--------------------------------------------------------------------------

Scratch directory: /scratch/
   => Libint2 <=

    Primary   basis highest AM E, G, H:  5, 4, 3
    Auxiliary basis highest AM E, G, H:  6, 5, 4
    Onebody   basis highest AM E, G, H:  6, 5, 4
    Solid Harmonics ordering:            gaussian

*** tstart() called on moses-razer
*** at Wed Jan  3 19:44:35 2024

   => Loading Basis Set <=

    Name: AUG-CC-PVTZ
    Role: ORBITAL
    Keyword: BASIS
    atoms 1   entry F          line   377 file /home/kchung25/anaconda3/envs/p415env/share/psi4/basis/aug-cc-pvtz.gbs 
    atoms 2-3 entry LI         line    85 file /home/kchung25/anaconda3/envs/p415env/share/psi4/basis/aug-cc-pvtz.gbs 


         ---------------------------------------------------------
                                   SCF
               by Justin Turney, Rob Parrish, Andy Simmonett
                          and Daniel G. A. Smith
                              RHF Reference
                        6 Threads,  57220 MiB Core
         ---------------------------------------------------------

  ==> Geometry <==

    Molecular point group: c1
    Full point group: C1h

    Geometry (in Bohr), charge = 0, multiplicity = 1:

       Center              X                  Y                   Z               Mass       
    ------------   -----------------  -----------------  -----------------  -----------------
         F            0.000000000000     0.000000000000     0.000000000000    18.998403162730
         LI           0.000000000000     2.993619090275     0.000000000000     7.016003436600
      Gh(LI)          2.993619090275     0.000000000000     0.000000000000     7.016003436600

  Running in c1 symmetry.

  Rotational constants: A =      0.95744  B =      0.95744  C =      0.47872 [cm^-1]
  Rotational constants: A =  28703.31528  B =  28703.31528  C =  14351.65764 [MHz]
  Nuclear repulsion =    9.019183531971304

  Charge       = 0
  Multiplicity = 1
  Electrons    = 12
  Nalpha       = 6
  Nbeta        = 6

  ==> Algorithm <==

  SCF Algorithm Type is DF.
  DIIS enabled.
  MOM disabled.
  Fractional occupation disabled.
  Guess Type is SAD.
  Energy threshold   = 1.00e-08
  Density threshold  = 1.00e-08
  Integral threshold = 1.00e-12

  ==> Primary Basis <==

  Basis Set: AUG-CC-PVTZ
    Blend: AUG-CC-PVTZ
    Number of shells: 42
    Number of basis functions: 138
    Number of Cartesian functions: 165
    Spherical Harmonics?: true
    Max angular momentum: 3

   => Loading Basis Set <=

    Name: (AUG-CC-PVTZ AUX)
    Role: JKFIT
    Keyword: DF_BASIS_SCF
    atoms 1   entry F          line   348 file /home/kchung25/anaconda3/envs/p415env/share/psi4/basis/aug-cc-pvtz-jkfit.gbs 
    atoms 2-3 entry LI         line    54 file /home/kchung25/anaconda3/envs/p415env/share/psi4/basis/def2-universal-jkfit.gbs 

  ==> Integral Setup <==

  DFHelper Memory: AOs need 0.034 GiB; user supplied 41.910 GiB. 
  Using in-core AOs.

  ==> MemDFJK: Density-Fitted J/K Matrices <==

    J tasked:                   Yes
    K tasked:                   Yes
    wK tasked:                   No
    OpenMP threads:               6
    Memory [MiB]:             42915
    Algorithm:                 Core
    Schwarz Cutoff:           1E-12
    Mask sparsity (%):       0.0000
    Fitting Condition:        1E-10

   => Auxiliary Basis Set <=

  Basis Set: (AUG-CC-PVTZ AUX)
    Blend: AUG-CC-PVTZ-JKFIT + DEF2-UNIVERSAL-JKFIT
    Number of shells: 64
    Number of basis functions: 206
    Number of Cartesian functions: 251
    Spherical Harmonics?: true
    Max angular momentum: 4

  Minimum eigenvalue in the overlap matrix is 3.3482803645E-05.
  Reciprocal condition number of the overlap matrix is 4.2489007307E-06.
    Using symmetric orthogonalization.

  ==> Pre-Iterations <==

  SCF Guess: Superposition of Atomic Densities via on-the-fly atomic UHF (no occupation information).

   -------------------------
    Irrep   Nso     Nmo    
   -------------------------
     A        138     138 
   -------------------------
    Total     138     138
   -------------------------

  ==> Iterations <==

                           Total Energy        Delta E     RMS |[F,P]|

   @DF-RHF iter SAD:  -106.21039091693081   -1.06210e+02   0.00000e+00 
   @DF-RHF iter   1:  -106.88020828871672   -6.69817e-01   3.92968e-03 ADIIS/DIIS
   @DF-RHF iter   2:  -106.92913640226328   -4.89281e-02   3.32276e-03 ADIIS/DIIS
   @DF-RHF iter   3:  -106.98296085134369   -5.38244e-02   1.10247e-04 ADIIS/DIIS
   @DF-RHF iter   4:  -106.98303124538552   -7.03940e-05   2.38355e-05 DIIS
   @DF-RHF iter   5:  -106.98303604732887   -4.80194e-06   3.70341e-06 DIIS
   @DF-RHF iter   6:  -106.98303635559104   -3.08262e-07   8.31529e-07 DIIS
   @DF-RHF iter   7:  -106.98303637415869   -1.85676e-08   1.74719e-07 DIIS
   @DF-RHF iter   8:  -106.98303637481409   -6.55405e-10   2.86475e-08 DIIS
   @DF-RHF iter   9:  -106.98303637483120   -1.71099e-11   5.83583e-09 DIIS
  Energy and wave function converged.


  ==> Post-Iterations <==

    Orbital Energies [Eh]
    ---------------------

    Doubly Occupied:                                                      

       1A    -26.113565     2A     -2.437321     3A     -1.376908  
       4A     -0.497107     5A     -0.473880     6A     -0.473807  

    Virtual:                                                              

       7A     -0.010808     8A      0.011038     9A      0.015299  
      10A      0.017677    11A      0.019726    12A      0.026871  
      13A      0.027784    14A      0.033099    15A      0.041047  
      16A      0.054652    17A      0.057775    18A      0.071389  
      19A      0.079789    20A      0.081898    21A      0.090494  
      22A      0.113124    23A      0.115748    24A      0.119796  
      25A      0.134232    26A      0.139076    27A      0.142344  
      28A      0.153582    29A      0.154034    30A      0.154765  
      31A      0.155493    32A      0.173737    33A      0.183341  
      34A      0.191529    35A      0.216599    36A      0.226312  
      37A      0.243613    38A      0.246497    39A      0.273860  
      40A      0.287887    41A      0.288394    42A      0.324518  
      43A      0.329757    44A      0.333575    45A      0.335047  
      46A      0.338816    47A      0.344198    48A      0.355947  
      49A      0.358601    50A      0.359780    51A      0.381867  
      52A      0.393078    53A      0.395535    54A      0.400370  
      55A      0.410437    56A      0.418971    57A      0.420474  
      58A      0.424589    59A      0.435947    60A      0.444593  
      61A      0.454189    62A      0.456592    63A      0.464418  
      64A      0.477916    65A      0.479368    66A      0.513793  
      67A      0.555830    68A      0.581562    69A      0.641339  
      70A      0.680781    71A      0.742915    72A      0.743741  
      73A      0.764105    74A      0.769377    75A      0.775428  
      76A      0.789712    77A      0.797197    78A      0.809776  
      79A      0.824095    80A      0.832690    81A      0.856394  
      82A      0.880885    83A      0.923941    84A      0.924266  
      85A      0.940284    86A      0.950984    87A      0.961894  
      88A      0.965332    89A      0.972574    90A      1.002472  
      91A      1.016346    92A      1.055519    93A      1.074752  
      94A      1.135402    95A      1.227958    96A      1.300435  
      97A      1.320451    98A      1.344292    99A      1.382858  
     100A      1.510804   101A      1.618181   102A      1.656569  
     103A      1.731460   104A      1.822125   105A      1.925222  
     106A      1.988646   107A      2.472390   108A      2.958952  
     109A      3.045832   110A      3.073229   111A      3.106861  
     112A      3.169851   113A      3.225500   114A      3.259002  
     115A      3.302923   116A      3.377521   117A      3.393150  
     118A      3.508762   119A      3.553015   120A      3.723451  
     121A      4.446017   122A      5.813041   123A      5.919183  
     124A      6.120779   125A      9.066742   126A      9.071285  
     127A      9.088916   128A      9.103332   129A      9.150359  
     130A      9.151798   131A      9.291525   132A      9.637878  
     133A      9.657472   134A      9.726792   135A      9.731186  
     136A      9.774988   137A     11.780338   138A     13.882346  

    Final Occupation by Irrep:
              A 
    DOCC [     6 ]
    NA   [     6 ]
    NB   [     6 ]

  @DF-RHF Final Energy:  -106.98303637483120

   => Energetics <=

    Nuclear Repulsion Energy =              9.0191835319713043
    One-Electron Energy =                -169.2592640892418672
    Two-Electron Energy =                  53.2570441824393725
    Total Energy =                       -106.9830363748312010

Computation Completed


Properties will be evaluated at   0.000000,   0.000000,   0.000000 [a0]

Properties computed using the SCF density matrix


 Multipole Moments:

 ------------------------------------------------------------------------------------
     Multipole            Electronic (a.u.)      Nuclear  (a.u.)        Total (a.u.)
 ------------------------------------------------------------------------------------

 L = 1.  Multiply by 2.5417464519 to convert [e a0] to [Debye]
 Dipole X            :         -0.0004574            0.0000000           -0.0004574
 Dipole Y            :         -6.4039873            8.9808573            2.5768700
 Dipole Z            :         -0.0000000            0.0000000           -0.0000000
 Magnitude           :                                                    2.5768700

 ------------------------------------------------------------------------------------

*** tstop() called on moses-razer at Wed Jan  3 19:44:35 2024
Module time:
	user time   =       3.64 seconds =       0.06 minutes
	system time =       0.02 seconds =       0.00 minutes
	total time  =          0 seconds =       0.00 minutes
Total time:
	user time   =       7.90 seconds =       0.13 minutes
	system time =       0.16 seconds =       0.00 minutes
	total time  =          1 seconds =       0.02 minutes

*** tstart() called on moses-razer
*** at Wed Jan  3 19:44:35 2024


  //>>>>>>>>>>>>>>>>>>>>>>>>>>>>>>>>>>>//
  //               DFMP2               //
  //<<<<<<<<<<<<<<<<<<<<<<<<<<<<<<<<<<<//

   => Loading Basis Set <=

    Name: (AUG-CC-PVTZ AUX)
    Role: RIFIT
    Keyword: DF_BASIS_MP2
    atoms 1   entry F          line   322 file /home/kchung25/anaconda3/envs/p415env/share/psi4/basis/aug-cc-pvtz-ri.gbs 
    atoms 2-3 entry LI         line    90 file /home/kchung25/anaconda3/envs/p415env/share/psi4/basis/def2-qzvpp-ri.gbs 

	 --------------------------------------------------------
	                          DF-MP2                         
	      2nd-Order Density-Fitted Moller-Plesset Theory     
	              RMP2 Wavefunction,   6 Threads             
	                                                         
	        Rob Parrish, Justin Turney, Andy Simmonett,      
	           Ed Hohenstein, and C. David Sherrill          
	 --------------------------------------------------------

   => Auxiliary Basis Set <=

  Basis Set: (AUG-CC-PVTZ AUX)
    Blend: AUG-CC-PVTZ-RI + DEF2-QZVPP-RI
    Number of shells: 82
    Number of basis functions: 308
    Number of Cartesian functions: 396
    Spherical Harmonics?: true
    Max angular momentum: 4

	 --------------------------------------------------------
	                 NBF =   138, NAUX =   308
	 --------------------------------------------------------
	   CLASS    FOCC     OCC    AOCC    AVIR     VIR    FVIR
	   PAIRS       0       6       6     132     132       0
	 --------------------------------------------------------

	-----------------------------------------------------------
	 ==================> DF-MP2 Energies <==================== 
	-----------------------------------------------------------
	 Reference Energy          =    -106.9830363748312010 [Eh]
	 Singles Energy            =      -0.0000000000000000 [Eh]
	 Same-Spin Energy          =      -0.0797032998331847 [Eh]
	 Opposite-Spin Energy      =      -0.2369602891729249 [Eh]
	 Correlation Energy        =      -0.3166635890061096 [Eh]
	 Total Energy              =    -107.2996999638373126 [Eh]
	-----------------------------------------------------------
	 ================> DF-SCS-MP2 Energies <================== 
	-----------------------------------------------------------
	 SCS Same-Spin Scale       =       0.3333333333333333 [-]
	 SCS Opposite-Spin Scale   =       1.2000000000000000 [-]
	 SCS Same-Spin Energy      =      -0.0265677666110616 [Eh]
	 SCS Opposite-Spin Energy  =      -0.2843523470075098 [Eh]
	 SCS Correlation Energy    =      -0.3109201136185714 [Eh]
	 SCS Total Energy          =    -107.2939564884497656 [Eh]
	-----------------------------------------------------------


*** tstop() called on moses-razer at Wed Jan  3 19:44:35 2024
Module time:
	user time   =       1.52 seconds =       0.03 minutes
	system time =       0.03 seconds =       0.00 minutes
	total time  =          0 seconds =       0.00 minutes
Total time:
	user time   =       9.42 seconds =       0.16 minutes
	system time =       0.19 seconds =       0.00 minutes
	total time  =          1 seconds =       0.02 minutes

    Psi4 stopped on: Wednesday, 03 January 2024 07:44PM
    Psi4 wall time for execution: 0:00:00.90


    -----------------------------------------------------------------------
          Psi4: An Open-Source Ab Initio Electronic Structure Package
                               Psi4 1.9 release

                         Git: Rev {} zzzzzzz 


    D. G. A. Smith, L. A. Burns, A. C. Simmonett, R. M. Parrish,
    M. C. Schieber, R. Galvelis, P. Kraus, H. Kruse, R. Di Remigio,
    A. Alenaizan, A. M. James, S. Lehtola, J. P. Misiewicz, M. Scheurer,
    R. A. Shaw, J. B. Schriber, Y. Xie, Z. L. Glick, D. A. Sirianni,
    J. S. O'Brien, J. M. Waldrop, A. Kumar, E. G. Hohenstein,
    B. P. Pritchard, B. R. Brooks, H. F. Schaefer III, A. Yu. Sokolov,
    K. Patkowski, A. E. DePrince III, U. Bozkaya, R. A. King,
    F. A. Evangelista, J. M. Turney, T. D. Crawford, C. D. Sherrill,
    J. Chem. Phys. 152(18) 184108 (2020). https://doi.org/10.1063/5.0006002

                            Additional Code Authors
    E. T. Seidl, C. L. Janssen, E. F. Valeev, M. L. Leininger,
    J. F. Gonthier, R. M. Richard, H. R. McAlexander, M. Saitow, X. Wang,
    P. Verma, M. H. Lechner, A. Jiang, S. Behnle, A. G. Heide,
    M. F. Herbst, and D. L. Poole

             Previous Authors, Complete List of Code Contributors,
                       and Citations for Specific Modules
    https://github.com/psi4/psi4/blob/master/codemeta.json
    https://github.com/psi4/psi4/graphs/contributors
    http://psicode.org/psi4manual/master/introduction.html#citing-psifour

    -----------------------------------------------------------------------


    Psi4 started on: Wednesday, 03 January 2024 07:44PM

    Process ID: 433581
    Host:       moses-razer
    PSIDATADIR: /home/kchung25/anaconda3/envs/psi4_19/share/psi4
    Memory:     55.9 GiB
    Threads:    6
    
  ==> Input QCSchema <==

--------------------------------------------------------------------------
{'driver': 'energy',
 'extras': {'psiapi': True, 'wfn_qcvars_only': True},
 'id': None,
 'keywords': {'SCF_TYPE': 'DF', 'function_kwargs': {}},
 'model': {'basis': 'aug-cc-pvtz', 'method': 'mp2'},
 'molecule': {'atom_labels': ['', '', ''],
              'atomic_numbers': [9, 3, 3],
              'extras': {},
              'fix_com': True,
              'fix_orientation': True,
              'fix_symmetry': 'c1',
              'fragment_charges': [0.0, 1.0],
              'fragment_multiplicities': [1, 1],
              'fragments': [[0, 1], [2]],
              'geometry': [0.0, 0.0, 0.0, 0.0, 2.993619090274646, 0.0, 2.993619090274646, 0.0, 0.0],
              'mass_numbers': [19, 7, 7],
              'masses': [18.99840316273, 7.0160034366, 7.0160034366],
              'molecular_charge': 1.0,
              'molecular_multiplicity': 1,
              'name': 'dimer',
              'provenance': {'creator': 'QCElemental',
                             'routine': 'qcelemental.molparse.from_string',
                             'version': '0.27.1'},
              'real': [True, True, True],
              'schema_name': 'qcschema_molecule',
              'schema_version': 2,
              'symbols': ['F', 'Li', 'Li'],
              'validated': True},
 'protocols': {'stdout': True},
 'provenance': {'creator': 'QCElemental', 'routine': 'qcelemental.models.results', 'version': '0.27.1'},
 'schema_name': 'qcschema_input',
 'schema_version': 1}
--------------------------------------------------------------------------

Scratch directory: /scratch/
   => Libint2 <=

    Primary   basis highest AM E, G, H:  5, 4, 3
    Auxiliary basis highest AM E, G, H:  6, 5, 4
    Onebody   basis highest AM E, G, H:  6, 5, 4
    Solid Harmonics ordering:            gaussian

*** tstart() called on moses-razer
*** at Wed Jan  3 19:44:35 2024

   => Loading Basis Set <=

    Name: AUG-CC-PVTZ
    Role: ORBITAL
    Keyword: BASIS
    atoms 1   entry F          line   377 file /home/kchung25/anaconda3/envs/p415env/share/psi4/basis/aug-cc-pvtz.gbs 
    atoms 2-3 entry LI         line    85 file /home/kchung25/anaconda3/envs/p415env/share/psi4/basis/aug-cc-pvtz.gbs 


         ---------------------------------------------------------
                                   SCF
               by Justin Turney, Rob Parrish, Andy Simmonett
                          and Daniel G. A. Smith
                              RHF Reference
                        6 Threads,  57220 MiB Core
         ---------------------------------------------------------

  ==> Geometry <==

    Molecular point group: c1
    Full point group: D1

    Geometry (in Bohr), charge = 1, multiplicity = 1:

       Center              X                  Y                   Z               Mass       
    ------------   -----------------  -----------------  -----------------  -----------------
         F            0.000000000000     0.000000000000     0.000000000000    18.998403162730
         LI           0.000000000000     2.993619090275     0.000000000000     7.016003436600
         LI           2.993619090275     0.000000000000     0.000000000000     7.016003436600

  Running in c1 symmetry.

  Rotational constants: A =      0.95744  B =      0.95744  C =      0.47872 [cm^-1]
  Rotational constants: A =  28703.31528  B =  28703.31528  C =  14351.65764 [MHz]
  Nuclear repulsion =   20.164209009350259

  Charge       = 1
  Multiplicity = 1
  Electrons    = 14
  Nalpha       = 7
  Nbeta        = 7

  ==> Algorithm <==

  SCF Algorithm Type is DF.
  DIIS enabled.
  MOM disabled.
  Fractional occupation disabled.
  Guess Type is SAD.
  Energy threshold   = 1.00e-08
  Density threshold  = 1.00e-08
  Integral threshold = 1.00e-12

  ==> Primary Basis <==

  Basis Set: AUG-CC-PVTZ
    Blend: AUG-CC-PVTZ
    Number of shells: 42
    Number of basis functions: 138
    Number of Cartesian functions: 165
    Spherical Harmonics?: true
    Max angular momentum: 3

   => Loading Basis Set <=

    Name: (AUG-CC-PVTZ AUX)
    Role: JKFIT
    Keyword: DF_BASIS_SCF
    atoms 1   entry F          line   348 file /home/kchung25/anaconda3/envs/p415env/share/psi4/basis/aug-cc-pvtz-jkfit.gbs 
    atoms 2-3 entry LI         line    54 file /home/kchung25/anaconda3/envs/p415env/share/psi4/basis/def2-universal-jkfit.gbs 

  ==> Integral Setup <==

  DFHelper Memory: AOs need 0.034 GiB; user supplied 41.910 GiB. 
  Using in-core AOs.

  ==> MemDFJK: Density-Fitted J/K Matrices <==

    J tasked:                   Yes
    K tasked:                   Yes
    wK tasked:                   No
    OpenMP threads:               6
    Memory [MiB]:             42915
    Algorithm:                 Core
    Schwarz Cutoff:           1E-12
    Mask sparsity (%):       0.0000
    Fitting Condition:        1E-10

   => Auxiliary Basis Set <=

  Basis Set: (AUG-CC-PVTZ AUX)
    Blend: AUG-CC-PVTZ-JKFIT + DEF2-UNIVERSAL-JKFIT
    Number of shells: 64
    Number of basis functions: 206
    Number of Cartesian functions: 251
    Spherical Harmonics?: true
    Max angular momentum: 4

  Minimum eigenvalue in the overlap matrix is 3.3482803645E-05.
  Reciprocal condition number of the overlap matrix is 4.2489007307E-06.
    Using symmetric orthogonalization.

  ==> Pre-Iterations <==

  SCF Guess: Superposition of Atomic Densities via on-the-fly atomic UHF (no occupation information).

   -------------------------
    Irrep   Nso     Nmo    
   -------------------------
     A        138     138 
   -------------------------
    Total     138     138
   -------------------------

  ==> Iterations <==

                           Total Energy        Delta E     RMS |[F,P]|

   @DF-RHF iter SAD:  -113.59189625274199   -1.13592e+02   0.00000e+00 
   @DF-RHF iter   1:  -114.18507578166088   -5.93180e-01   3.90793e-03 ADIIS/DIIS
   @DF-RHF iter   2:  -114.23824656984401   -5.31708e-02   3.01689e-03 ADIIS/DIIS
   @DF-RHF iter   3:  -114.28107766643926   -4.28311e-02   9.85727e-05 DIIS
   @DF-RHF iter   4:  -114.28115377494797   -7.61085e-05   1.78403e-05 DIIS
   @DF-RHF iter   5:  -114.28115830700267   -4.53205e-06   4.32999e-06 DIIS
   @DF-RHF iter   6:  -114.28115866550793   -3.58505e-07   8.37990e-07 DIIS
   @DF-RHF iter   7:  -114.28115868454704   -1.90391e-08   1.89668e-07 DIIS
   @DF-RHF iter   8:  -114.28115868537564   -8.28607e-10   3.31870e-08 DIIS
   @DF-RHF iter   9:  -114.28115868539945   -2.38032e-11   5.77972e-09 DIIS
  Energy and wave function converged.


  ==> Post-Iterations <==

    Orbital Energies [Eh]
    ---------------------

    Doubly Occupied:                                                      

       1A    -26.403219     2A     -2.676929     3A     -2.673503  
       4A     -1.684176     5A     -0.797737     6A     -0.792357  
       7A     -0.773604  

    Virtual:                                                              

       8A     -0.179215     9A     -0.125423    10A     -0.108162  
      11A     -0.094716    12A     -0.072581    13A     -0.063758  
      14A     -0.059832    15A     -0.056759    16A     -0.052794  
      17A     -0.049995    18A     -0.044314    19A     -0.031754  
      20A     -0.029588    21A     -0.026491    22A     -0.021074  
      23A     -0.016899    24A     -0.014377    25A      0.002218  
      26A      0.009193    27A      0.009549    28A      0.010937  
      29A      0.019205    30A      0.021726    31A      0.023087  
      32A      0.024543    33A      0.026661    34A      0.028186  
      35A      0.043037    36A      0.068246    37A      0.082363  
      38A      0.091500    39A      0.096627    40A      0.110845  
      41A      0.127144    42A      0.127394    43A      0.156818  
      44A      0.161024    45A      0.181689    46A      0.184947  
      47A      0.185441    48A      0.187553    49A      0.189349  
      50A      0.192100    51A      0.196498    52A      0.199737  
      53A      0.202686    54A      0.211278    55A      0.213154  
      56A      0.215155    57A      0.222037    58A      0.223142  
      59A      0.268122    60A      0.272883    61A      0.280393  
      62A      0.282855    63A      0.290516    64A      0.291268  
      65A      0.300293    66A      0.309218    67A      0.328068  
      68A      0.351570    69A      0.395777    70A      0.414221  
      71A      0.480541    72A      0.482109    73A      0.511450  
      74A      0.530792    75A      0.531513    76A      0.543803  
      77A      0.557293    78A      0.563185    79A      0.583272  
      80A      0.613910    81A      0.613939    82A      0.627123  
      83A      0.630238    84A      0.635323    85A      0.644584  
      86A      0.647072    87A      0.656910    88A      0.673699  
      89A      0.708275    90A      0.714527    91A      0.722726  
      92A      0.725624    93A      0.750717    94A      0.776957  
      95A      0.853662    96A      0.936031    97A      1.022227  
      98A      1.033418    99A      1.064780   100A      1.073623  
     101A      1.119858   102A      1.271251   103A      1.309003  
     104A      1.331395   105A      1.587743   106A      1.604327  
     107A      1.848568   108A      2.622051   109A      2.741249  
     110A      2.751250   111A      2.764415   112A      2.780324  
     113A      2.854380   114A      2.907447   115A      2.932292  
     116A      3.006470   117A      3.079228   118A      3.086448  
     119A      3.225930   120A      3.240638   121A      4.016187  
     122A      4.300745   123A      5.517547   124A      5.645934  
     125A      5.863599   126A      8.761839   127A      8.769067  
     128A      8.788560   129A      8.805344   130A      8.838939  
     131A      8.879667   132A      9.036617   133A      9.344136  
     134A      9.363185   135A      9.436134   136A      9.436740  
     137A      9.479575   138A     13.535666  

    Final Occupation by Irrep:
              A 
    DOCC [     7 ]
    NA   [     7 ]
    NB   [     7 ]

  @DF-RHF Final Energy:  -114.28115868539945

   => Energetics <=

    Nuclear Repulsion Energy =             20.1642090093502588
    One-Electron Energy =                -197.2876831829449600
    Two-Electron Energy =                  62.8423154881952470
    Total Energy =                       -114.2811586853994470

Computation Completed


Properties will be evaluated at   0.000000,   0.000000,   0.000000 [a0]

Properties computed using the SCF density matrix


 Multipole Moments:

 ------------------------------------------------------------------------------------
     Multipole            Electronic (a.u.)      Nuclear  (a.u.)        Total (a.u.)
 ------------------------------------------------------------------------------------

 L = 1.  Multiply by 2.5417464519 to convert [e a0] to [Debye]
 Dipole X            :         -6.3649372            8.9808573            2.6159201
 Dipole Y            :         -6.3649372            8.9808573            2.6159201
 Dipole Z            :         -0.0000000            0.0000000           -0.0000000
 Magnitude           :                                                    3.6994697

 ------------------------------------------------------------------------------------

*** tstop() called on moses-razer at Wed Jan  3 19:44:36 2024
Module time:
	user time   =       3.11 seconds =       0.05 minutes
	system time =       0.02 seconds =       0.00 minutes
	total time  =          1 seconds =       0.02 minutes
Total time:
	user time   =      12.80 seconds =       0.21 minutes
	system time =       0.21 seconds =       0.00 minutes
	total time  =          2 seconds =       0.03 minutes

*** tstart() called on moses-razer
*** at Wed Jan  3 19:44:36 2024


  //>>>>>>>>>>>>>>>>>>>>>>>>>>>>>>>>>>>//
  //               DFMP2               //
  //<<<<<<<<<<<<<<<<<<<<<<<<<<<<<<<<<<<//

   => Loading Basis Set <=

    Name: (AUG-CC-PVTZ AUX)
    Role: RIFIT
    Keyword: DF_BASIS_MP2
    atoms 1   entry F          line   322 file /home/kchung25/anaconda3/envs/p415env/share/psi4/basis/aug-cc-pvtz-ri.gbs 
    atoms 2-3 entry LI         line    90 file /home/kchung25/anaconda3/envs/p415env/share/psi4/basis/def2-qzvpp-ri.gbs 

	 --------------------------------------------------------
	                          DF-MP2                         
	      2nd-Order Density-Fitted Moller-Plesset Theory     
	              RMP2 Wavefunction,   6 Threads             
	                                                         
	        Rob Parrish, Justin Turney, Andy Simmonett,      
	           Ed Hohenstein, and C. David Sherrill          
	 --------------------------------------------------------

   => Auxiliary Basis Set <=

  Basis Set: (AUG-CC-PVTZ AUX)
    Blend: AUG-CC-PVTZ-RI + DEF2-QZVPP-RI
    Number of shells: 82
    Number of basis functions: 308
    Number of Cartesian functions: 396
    Spherical Harmonics?: true
    Max angular momentum: 4

	 --------------------------------------------------------
	                 NBF =   138, NAUX =   308
	 --------------------------------------------------------
	   CLASS    FOCC     OCC    AOCC    AVIR     VIR    FVIR
	   PAIRS       0       7       7     131     131       0
	 --------------------------------------------------------

	-----------------------------------------------------------
	 ==================> DF-MP2 Energies <==================== 
	-----------------------------------------------------------
	 Reference Energy          =    -114.2811586853994470 [Eh]
	 Singles Energy            =      -0.0000000000000000 [Eh]
	 Same-Spin Energy          =      -0.0784514679623672 [Eh]
	 Opposite-Spin Energy      =      -0.2470724613318345 [Eh]
	 Correlation Energy        =      -0.3255239292942017 [Eh]
	 Total Energy              =    -114.6066826146936535 [Eh]
	-----------------------------------------------------------
	 ================> DF-SCS-MP2 Energies <================== 
	-----------------------------------------------------------
	 SCS Same-Spin Scale       =       0.3333333333333333 [-]
	 SCS Opposite-Spin Scale   =       1.2000000000000000 [-]
	 SCS Same-Spin Energy      =      -0.0261504893207891 [Eh]
	 SCS Opposite-Spin Energy  =      -0.2964869535982014 [Eh]
	 SCS Correlation Energy    =      -0.3226374429189905 [Eh]
	 SCS Total Energy          =    -114.6037961283184359 [Eh]
	-----------------------------------------------------------


*** tstop() called on moses-razer at Wed Jan  3 19:44:36 2024
Module time:
	user time   =       1.50 seconds =       0.02 minutes
	system time =       0.03 seconds =       0.00 minutes
	total time  =          0 seconds =       0.00 minutes
Total time:
	user time   =      14.31 seconds =       0.24 minutes
	system time =       0.24 seconds =       0.00 minutes
	total time  =          2 seconds =       0.03 minutes

    Psi4 stopped on: Wednesday, 03 January 2024 07:44PM
    Psi4 wall time for execution: 0:00:00.81


  //>>>>>>>>>>>>>>>>>>>>>>>>>>>>>>>>>>>//
  //          ManyBody Results         //
  //<<<<<<<<<<<<<<<<<<<<<<<<<<<<<<<<<<<//


   ==> N-Body: Counterpoise Corrected (CP) energies <==

        n-Body     Total Energy            Interaction Energy                          N-body Contribution to Interaction Energy
                   [Eh]                    [Eh]                  [kcal/mol]            [Eh]                  [kcal/mol]
             1  N/A                         0.000000000000        0.000000000000        0.000000000000        0.000000000000
  FULL/RTN   2  N/A                        -0.057072377772      -35.813457742942       -0.057072377772      -35.813457742942


    Psi4 stopped on: Wednesday, 03 January 2024 07:44PM
    Psi4 wall time for execution: 0:00:04.01

*** Psi4 exiting successfully. Buy a developer a beer!
