
    -----------------------------------------------------------------------
          Psi4: An Open-Source Ab Initio Electronic Structure Package
                               Psi4 1.8.2 release

                         Git: Rev {} zzzzzzz 


    D. G. A. Smith, L. A. Burns, A. C. Simmonett, R. M. Parrish,
    M. C. Schieber, R. Galvelis, P. Kraus, H. Kruse, R. Di Remigio,
    A. Alenaizan, A. M. James, S. Lehtola, J. P. Misiewicz, M. Scheurer,
    R. A. Shaw, J. B. Schriber, Y. Xie, Z. L. Glick, D. A. Sirianni,
    J. S. O'Brien, J. M. Waldrop, A. Kumar, E. G. Hohenstein,
    B. P. Pritchard, B. R. Brooks, H. F. Schaefer III, A. Yu. Sokolov,
    K. Patkowski, A. E. DePrince III, U. Bozkaya, R. A. King,
    F. A. Evangelista, J. M. Turney, T. D. Crawford, C. D. Sherrill,
    J. Chem. Phys. 152(18) 184108 (2020). https://doi.org/10.1063/5.0006002

                            Additional Code Authors
    E. T. Seidl, C. L. Janssen, E. F. Valeev, M. L. Leininger,
    J. F. Gonthier, R. M. Richard, H. R. McAlexander, M. Saitow, X. Wang,
    P. Verma, M. H. Lechner, A. Jiang, S. Behnle, A. G. Heide,
    M. F. Herbst, and D. L. Poole

             Previous Authors, Complete List of Code Contributors,
                       and Citations for Specific Modules
    https://github.com/psi4/psi4/blob/master/codemeta.json
    https://github.com/psi4/psi4/graphs/contributors
    http://psicode.org/psi4manual/master/introduction.html#citing-psifour

    -----------------------------------------------------------------------


    Psi4 started on: Monday, 22 January 2024 11:29AM

    Process ID: 40843
    Host:       ddmfs1
    PSIDATADIR: /ddmfs1b/softs/psi4conda/share/psi4
    Memory:     500.0 MiB
    Threads:    20
    
  ==> Input File <==

--------------------------------------------------------------------------
MEMORY 60 GB

molecule dimer {
1 1
Gh(F)      0.000000     0.000000     0.000000
Li         0.000000     1.584155     0.000000
Gh(Li)     2.059401     0.000000     0.000000

units ang
no_reorient
no_com
symmetry c1
}

set {
basis        aug-cc-pVTZ
scf_type     df
}

energy("mp2")
--------------------------------------------------------------------------

  Memory set to  55.879 GiB by Python driver.

Scratch directory: /ddmfs1a/scratch/
   => Libint2 <=

    Primary   basis highest AM E, G, H:  5, 4, 3
    Auxiliary basis highest AM E, G, H:  6, 5, 4
    Onebody   basis highest AM E, G, H:  6, 5, 4
    Solid Harmonics ordering:            gaussian

*** tstart() called on ddmfs1
*** at Mon Jan 22 11:29:47 2024

   => Loading Basis Set <=

    Name: AUG-CC-PVTZ
    Role: ORBITAL
    Keyword: BASIS
    atoms 1   entry F          line   377 file /ddmfs1b/softs/psi4conda/share/psi4/basis/aug-cc-pvtz.gbs 
    atoms 2-3 entry LI         line    85 file /ddmfs1b/softs/psi4conda/share/psi4/basis/aug-cc-pvtz.gbs 


         ---------------------------------------------------------
                                   SCF
               by Justin Turney, Rob Parrish, Andy Simmonett
                          and Daniel G. A. Smith
                              RHF Reference
                       20 Threads,  57220 MiB Core
         ---------------------------------------------------------

  ==> Geometry <==

    Molecular point group: c1
    Full point group: Cs

    Geometry (in Angstrom), charge = 1, multiplicity = 1:

       Center              X                  Y                   Z               Mass       
    ------------   -----------------  -----------------  -----------------  -----------------
      Gh(F)           0.000000000000     0.000000000000     0.000000000000    18.998403162730
         LI           0.000000000000     1.584155000000     0.000000000000     7.016003436600
      Gh(LI)          2.059401000000     0.000000000000     0.000000000000     7.016003436600

  Running in c1 symmetry.

  Rotational constants: A =      0.95744  B =      0.56653  C =      0.35593 [cm^-1]
  Rotational constants: A =  28703.31528  B =  16984.21847  C =  10670.38068 [MHz]
  Nuclear repulsion =    0.000000000000000

  Charge       = 1
  Multiplicity = 1
  Electrons    = 2
  Nalpha       = 1
  Nbeta        = 1

  ==> Algorithm <==

  SCF Algorithm Type is DF.
  DIIS enabled.
  MOM disabled.
  Fractional occupation disabled.
  Guess Type is SAD.
  Energy threshold   = 1.00e-08
  Density threshold  = 1.00e-08
  Integral threshold = 1.00e-12

  ==> Primary Basis <==

  Basis Set: AUG-CC-PVTZ
    Blend: AUG-CC-PVTZ
    Number of shells: 42
    Number of basis functions: 138
    Number of Cartesian functions: 165
    Spherical Harmonics?: true
    Max angular momentum: 3

   => Loading Basis Set <=

    Name: (AUG-CC-PVTZ AUX)
    Role: JKFIT
    Keyword: DF_BASIS_SCF
    atoms 1   entry F          line   348 file /ddmfs1b/softs/psi4conda/share/psi4/basis/aug-cc-pvtz-jkfit.gbs 
    atoms 2-3 entry LI         line    54 file /ddmfs1b/softs/psi4conda/share/psi4/basis/def2-universal-jkfit.gbs 

  ==> Integral Setup <==

  DFHelper Memory: AOs need 0.036 GiB; user supplied 41.910 GiB. 
  Using in-core AOs.

  ==> MemDFJK: Density-Fitted J/K Matrices <==

    J tasked:                   Yes
    K tasked:                   Yes
    wK tasked:                   No
    OpenMP threads:              20
    Memory [MiB]:             42915
    Algorithm:                 Core
    Schwarz Cutoff:           1E-12
    Mask sparsity (%):       0.0000
    Fitting Condition:        1E-10

   => Auxiliary Basis Set <=

  Basis Set: (AUG-CC-PVTZ AUX)
    Blend: AUG-CC-PVTZ-JKFIT + DEF2-UNIVERSAL-JKFIT
    Number of shells: 64
    Number of basis functions: 206
    Number of Cartesian functions: 251
    Spherical Harmonics?: true
    Max angular momentum: 4

  Minimum eigenvalue in the overlap matrix is 5.0402140793E-05.
  Reciprocal condition number of the overlap matrix is 6.4579783372E-06.
    Using symmetric orthogonalization.

  ==> Pre-Iterations <==

  SCF Guess: Superposition of Atomic Densities via on-the-fly atomic UHF (no occupation information).

   -------------------------
    Irrep   Nso     Nmo    
   -------------------------
     A        138     138 
   -------------------------
    Total     138     138
   -------------------------

  ==> Iterations <==

                           Total Energy        Delta E     RMS |[F,P]|

   @DF-RHF iter SAD:    -7.31444681879034   -7.31445e+00   0.00000e+00 
   @DF-RHF iter   1:    -7.23638163925328    7.80652e-02   1.64517e-05 DIIS
   @DF-RHF iter   2:    -7.23638351082678   -1.87157e-06   1.88962e-06 DIIS
   @DF-RHF iter   3:    -7.23638353921739   -2.83906e-08   9.79701e-08 DIIS
   @DF-RHF iter   4:    -7.23638353927554   -5.81490e-11   9.22354e-10 DIIS
  Energy and wave function converged.


  ==> Post-Iterations <==

    Orbital Energies [Eh]
    ---------------------

    Doubly Occupied:                                                      

       1A     -2.792367  

    Virtual:                                                              

       2A     -0.196299     3A     -0.128600     4A     -0.128596  
       5A     -0.128595     6A     -0.073715     7A     -0.056654  
       8A     -0.056379     9A     -0.056361    10A     -0.053491  
      11A     -0.053446    12A     -0.053143    13A     -0.033148  
      14A     -0.032990    15A     -0.029285    16A     -0.025973  
      17A     -0.021887    18A     -0.021784    19A     -0.005498  
      20A     -0.004107    21A     -0.001479    22A      0.006189  
      23A      0.016561    24A      0.017110    25A      0.017902  
      26A      0.027117    27A      0.027706    28A      0.049579  
      29A      0.058411    30A      0.061601    31A      0.082591  
      32A      0.093487    33A      0.105915    34A      0.107917  
      35A      0.113066    36A      0.114878    37A      0.126738  
      38A      0.127539    39A      0.142532    40A      0.161888  
      41A      0.167426    42A      0.169235    43A      0.171878  
      44A      0.172198    45A      0.183801    46A      0.197855  
      47A      0.200843    48A      0.204163    49A      0.224212  
      50A      0.233177    51A      0.241247    52A      0.257802  
      53A      0.259710    54A      0.260488    55A      0.264834  
      56A      0.282096    57A      0.284486    58A      0.286678  
      59A      0.294418    60A      0.300621    61A      0.305911  
      62A      0.307086    63A      0.403077    64A      0.410413  
      65A      0.435527    66A      0.482125    67A      0.499583  
      68A      0.520477    69A      0.528915    70A      0.531039  
      71A      0.535833    72A      0.546886    73A      0.564538  
      74A      0.573167    75A      0.575777    76A      0.579658  
      77A      0.594407    78A      0.613804    79A      0.661627  
      80A      0.662116    81A      0.709595    82A      0.735672  
      83A      0.751052    84A      0.764612    85A      0.765246  
      86A      0.780157    87A      0.782937    88A      0.809891  
      89A      0.812632    90A      0.857955    91A      0.926733  
      92A      0.952565    93A      0.976750    94A      0.986636  
      95A      1.038866    96A      1.065800    97A      1.191643  
      98A      1.210089    99A      1.244019   100A      1.290260  
     101A      1.340675   102A      1.431912   103A      1.715674  
     104A      2.699026   105A      2.831404   106A      2.860902  
     107A      2.889938   108A      2.904632   109A      2.973908  
     110A      2.976701   111A      3.064965   112A      3.075769  
     113A      3.219063   114A      3.378453   115A      3.534524  
     116A      3.551233   117A      3.588784   118A      3.659232  
     119A      3.694448   120A      4.339465   121A      9.869435  
     122A      9.905092   123A      9.913699   124A      9.915518  
     125A      9.954366   126A      9.968504   127A     10.037812  
     128A     10.400978   129A     10.593953   130A     12.748146  
     131A     12.761965   132A     12.796840   133A     12.829274  
     134A     12.853905   135A     14.221491   136A     14.358272  
     137A     14.442941   138A     70.701855  

    Final Occupation by Irrep:
              A 
    DOCC [     1 ]
    NA   [     1 ]
    NB   [     1 ]

  @DF-RHF Final Energy:    -7.23638353927554

   => Energetics <=

    Nuclear Repulsion Energy =              0.0000000000000000
    One-Electron Energy =                  -8.8880333002658514
    Two-Electron Energy =                   1.6516497609903082
    Total Energy =                         -7.2363835392755433

Computation Completed


Properties will be evaluated at   0.000000,   0.000000,   0.000000 [a0]

Properties computed using the SCF density matrix


 Multipole Moments:

 ------------------------------------------------------------------------------------
     Multipole            Electronic (a.u.)      Nuclear  (a.u.)        Total (a.u.)
 ------------------------------------------------------------------------------------

 L = 1.  Multiply by 2.5417464519 to convert [e a0] to [Debye]
 Dipole X            :          0.0000552            0.0000000            0.0000552
 Dipole Y            :         -5.9872495            8.9808573            2.9936078
 Dipole Z            :         -0.0000000            0.0000000           -0.0000000
 Magnitude           :                                                    2.9936078

 ------------------------------------------------------------------------------------

*** tstop() called on ddmfs1 at Mon Jan 22 11:29:48 2024
Module time:
	user time   =       9.26 seconds =       0.15 minutes
	system time =       0.71 seconds =       0.01 minutes
	total time  =          1 seconds =       0.02 minutes
Total time:
	user time   =       9.26 seconds =       0.15 minutes
	system time =       0.71 seconds =       0.01 minutes
	total time  =          1 seconds =       0.02 minutes

*** tstart() called on ddmfs1
*** at Mon Jan 22 11:29:48 2024


  //>>>>>>>>>>>>>>>>>>>>>>>>>>>>>>>>>>>//
  //               DFMP2               //
  //<<<<<<<<<<<<<<<<<<<<<<<<<<<<<<<<<<<//

   => Loading Basis Set <=

    Name: (AUG-CC-PVTZ AUX)
    Role: RIFIT
    Keyword: DF_BASIS_MP2
    atoms 1   entry F          line   322 file /ddmfs1b/softs/psi4conda/share/psi4/basis/aug-cc-pvtz-ri.gbs 
    atoms 2-3 entry LI         line    90 file /ddmfs1b/softs/psi4conda/share/psi4/basis/def2-qzvpp-ri.gbs 

	 --------------------------------------------------------
	                          DF-MP2                         
	      2nd-Order Density-Fitted Moller-Plesset Theory     
	              RMP2 Wavefunction,  20 Threads             
	                                                         
	        Rob Parrish, Justin Turney, Andy Simmonett,      
	           Ed Hohenstein, and C. David Sherrill          
	 --------------------------------------------------------

   => Auxiliary Basis Set <=

  Basis Set: (AUG-CC-PVTZ AUX)
    Blend: AUG-CC-PVTZ-RI + DEF2-QZVPP-RI
    Number of shells: 82
    Number of basis functions: 308
    Number of Cartesian functions: 396
    Spherical Harmonics?: true
    Max angular momentum: 4

	 --------------------------------------------------------
	                 NBF =   138, NAUX =   308
	 --------------------------------------------------------
	   CLASS    FOCC     OCC    AOCC    AVIR     VIR    FVIR
	   PAIRS       0       1       1     137     137       0
	 --------------------------------------------------------

	-----------------------------------------------------------
	 ==================> DF-MP2 Energies <==================== 
	-----------------------------------------------------------
	 Reference Energy          =      -7.2363835392755433 [Eh]
	 Singles Energy            =      -0.0000000000000000 [Eh]
	 Same-Spin Energy          =       0.0000000000000000 [Eh]
	 Opposite-Spin Energy      =      -0.0132670774287844 [Eh]
	 Correlation Energy        =      -0.0132670774287844 [Eh]
	 Total Energy              =      -7.2496506167043275 [Eh]
	-----------------------------------------------------------
	 ================> DF-SCS-MP2 Energies <================== 
	-----------------------------------------------------------
	 SCS Same-Spin Scale       =       0.3333333333333333 [-]
	 SCS Opposite-Spin Scale   =       1.2000000000000000 [-]
	 SCS Same-Spin Energy      =       0.0000000000000000 [Eh]
	 SCS Opposite-Spin Energy  =      -0.0159204929145412 [Eh]
	 SCS Correlation Energy    =      -0.0159204929145412 [Eh]
	 SCS Total Energy          =      -7.2523040321900849 [Eh]
	-----------------------------------------------------------


*** tstop() called on ddmfs1 at Mon Jan 22 11:29:49 2024
Module time:
	user time   =       5.10 seconds =       0.09 minutes
	system time =       0.29 seconds =       0.00 minutes
	total time  =          1 seconds =       0.02 minutes
Total time:
	user time   =      14.37 seconds =       0.24 minutes
	system time =       1.00 seconds =       0.02 minutes
	total time  =          2 seconds =       0.03 minutes

    Psi4 stopped on: Monday, 22 January 2024 11:29AM
    Psi4 wall time for execution: 0:00:01.48

*** Psi4 exiting successfully. Buy a developer a beer!
