
    -----------------------------------------------------------------------
          Psi4: An Open-Source Ab Initio Electronic Structure Package
                               Psi4 1.8.2 release

                         Git: Rev {} zzzzzzz 


    D. G. A. Smith, L. A. Burns, A. C. Simmonett, R. M. Parrish,
    M. C. Schieber, R. Galvelis, P. Kraus, H. Kruse, R. Di Remigio,
    A. Alenaizan, A. M. James, S. Lehtola, J. P. Misiewicz, M. Scheurer,
    R. A. Shaw, J. B. Schriber, Y. Xie, Z. L. Glick, D. A. Sirianni,
    J. S. O'Brien, J. M. Waldrop, A. Kumar, E. G. Hohenstein,
    B. P. Pritchard, B. R. Brooks, H. F. Schaefer III, A. Yu. Sokolov,
    K. Patkowski, A. E. DePrince III, U. Bozkaya, R. A. King,
    F. A. Evangelista, J. M. Turney, T. D. Crawford, C. D. Sherrill,
    J. Chem. Phys. 152(18) 184108 (2020). https://doi.org/10.1063/5.0006002

                            Additional Code Authors
    E. T. Seidl, C. L. Janssen, E. F. Valeev, M. L. Leininger,
    J. F. Gonthier, R. M. Richard, H. R. McAlexander, M. Saitow, X. Wang,
    P. Verma, M. H. Lechner, A. Jiang, S. Behnle, A. G. Heide,
    M. F. Herbst, and D. L. Poole

             Previous Authors, Complete List of Code Contributors,
                       and Citations for Specific Modules
    https://github.com/psi4/psi4/blob/master/codemeta.json
    https://github.com/psi4/psi4/graphs/contributors
    http://psicode.org/psi4manual/master/introduction.html#citing-psifour

    -----------------------------------------------------------------------


    Psi4 started on: Monday, 22 January 2024 03:35AM

    Process ID: 30354
    Host:       ddmfs1
    PSIDATADIR: /ddmfs1b/softs/psi4conda/share/psi4
    Memory:     500.0 MiB
    Threads:    20
    
  ==> Input File <==

--------------------------------------------------------------------------
MEMORY 60 GB

molecule dimer {
1 1
Li     0.000000     0.000000     0.000000
--
-1 1
F      0.000000     1.584155     0.000000
--
-1 1
F      2.059401     0.000000     0.000000

units ang
no_reorient
no_com
symmetry c1
}

set {
basis        aug-cc-pVTZ
scf_type     df
}

energy("mp2", bsse_type="cp")
--------------------------------------------------------------------------

  Memory set to  55.879 GiB by Python driver.

Scratch directory: /ddmfs1a/scratch/

  //>>>>>>>>>>>>>>>>>>>>>>>>>>>>>>>>>>>>>>>>//
  // ManyBody Setup: N-Body Levels [1, 2, 3]//
  //<<<<<<<<<<<<<<<<<<<<<<<<<<<<<<<<<<<<<<<<//

        Number of 1-body computations:     3
        Number of 2-body computations:     3
        Number of 3-body computations:     1

    -----------------------------------------------------------------------
          Psi4: An Open-Source Ab Initio Electronic Structure Package
                               Psi4 1.8.2 release

                         Git: Rev {} zzzzzzz 


    D. G. A. Smith, L. A. Burns, A. C. Simmonett, R. M. Parrish,
    M. C. Schieber, R. Galvelis, P. Kraus, H. Kruse, R. Di Remigio,
    A. Alenaizan, A. M. James, S. Lehtola, J. P. Misiewicz, M. Scheurer,
    R. A. Shaw, J. B. Schriber, Y. Xie, Z. L. Glick, D. A. Sirianni,
    J. S. O'Brien, J. M. Waldrop, A. Kumar, E. G. Hohenstein,
    B. P. Pritchard, B. R. Brooks, H. F. Schaefer III, A. Yu. Sokolov,
    K. Patkowski, A. E. DePrince III, U. Bozkaya, R. A. King,
    F. A. Evangelista, J. M. Turney, T. D. Crawford, C. D. Sherrill,
    J. Chem. Phys. 152(18) 184108 (2020). https://doi.org/10.1063/5.0006002

                            Additional Code Authors
    E. T. Seidl, C. L. Janssen, E. F. Valeev, M. L. Leininger,
    J. F. Gonthier, R. M. Richard, H. R. McAlexander, M. Saitow, X. Wang,
    P. Verma, M. H. Lechner, A. Jiang, S. Behnle, A. G. Heide,
    M. F. Herbst, and D. L. Poole

             Previous Authors, Complete List of Code Contributors,
                       and Citations for Specific Modules
    https://github.com/psi4/psi4/blob/master/codemeta.json
    https://github.com/psi4/psi4/graphs/contributors
    http://psicode.org/psi4manual/master/introduction.html#citing-psifour

    -----------------------------------------------------------------------


    Psi4 started on: Monday, 22 January 2024 03:35AM

    Process ID: 30354
    Host:       ddmfs1
    PSIDATADIR: /ddmfs1b/softs/psi4conda/share/psi4
    Memory:     55.9 GiB
    Threads:    20
    
  ==> Input QCSchema <==

--------------------------------------------------------------------------
{'driver': 'energy',
 'extras': {'psiapi': True, 'wfn_qcvars_only': True},
 'id': None,
 'keywords': {'SCF_TYPE': 'DF', 'function_kwargs': {}},
 'model': {'basis': 'aug-cc-pvtz', 'method': 'mp2'},
 'molecule': {'atom_labels': ['', '', ''],
              'atomic_numbers': [3, 9, 9],
              'extras': {},
              'fix_com': True,
              'fix_orientation': True,
              'fix_symmetry': 'c1',
              'fragment_charges': [1.0, 0.0, 0.0],
              'fragment_multiplicities': [1, 1, 1],
              'fragments': [[0], [1], [2]],
              'geometry': [0.0, 0.0, 0.0, 0.0, 2.993619090274646, 0.0, 3.8917038724939763, 0.0, 0.0],
              'mass_numbers': [7, 19, 19],
              'masses': [7.0160034366, 18.99840316273, 18.99840316273],
              'molecular_charge': 1.0,
              'molecular_multiplicity': 1,
              'name': 'dimer',
              'provenance': {'creator': 'QCElemental',
                             'routine': 'qcelemental.molparse.from_string',
                             'version': '0.26.0'},
              'real': [True, False, False],
              'schema_name': 'qcschema_molecule',
              'schema_version': 2,
              'symbols': ['Li', 'F', 'F'],
              'validated': True},
 'protocols': {'stdout': True},
 'provenance': {'creator': 'QCElemental', 'routine': 'qcelemental.models.results', 'version': '0.26.0'},
 'schema_name': 'qcschema_input',
 'schema_version': 1}
--------------------------------------------------------------------------

Scratch directory: /ddmfs1a/scratch/
   => Libint2 <=

    Primary   basis highest AM E, G, H:  5, 4, 3
    Auxiliary basis highest AM E, G, H:  6, 5, 4
    Onebody   basis highest AM E, G, H:  6, 5, 4
    Solid Harmonics ordering:            gaussian

*** tstart() called on ddmfs1
*** at Mon Jan 22 03:35:33 2024

   => Loading Basis Set <=

    Name: AUG-CC-PVTZ
    Role: ORBITAL
    Keyword: BASIS
    atoms 1   entry LI         line    85 file /ddmfs1b/softs/psi4conda/share/psi4/basis/aug-cc-pvtz.gbs 
    atoms 2-3 entry F          line   377 file /ddmfs1b/softs/psi4conda/share/psi4/basis/aug-cc-pvtz.gbs 


         ---------------------------------------------------------
                                   SCF
               by Justin Turney, Rob Parrish, Andy Simmonett
                          and Daniel G. A. Smith
                              RHF Reference
                       20 Threads,  57220 MiB Core
         ---------------------------------------------------------

  ==> Geometry <==

    Molecular point group: c1
    Full point group: Cs

    Geometry (in Bohr), charge = 1, multiplicity = 1:

       Center              X                  Y                   Z               Mass       
    ------------   -----------------  -----------------  -----------------  -----------------
         LI           0.000000000000     0.000000000000     0.000000000000     7.016003436600
      Gh(F)           0.000000000000     2.993619090275     0.000000000000    18.998403162730
      Gh(F)           3.891703872494     0.000000000000     0.000000000000    18.998403162730

  Running in c1 symmetry.

  Rotational constants: A =      0.35358  B =      0.20922  C =      0.13144 [cm^-1]
  Rotational constants: A =  10599.97290  B =   6272.17636  C =   3940.51157 [MHz]
  Nuclear repulsion =    0.000000000000000

  Charge       = 1
  Multiplicity = 1
  Electrons    = 2
  Nalpha       = 1
  Nbeta        = 1

  ==> Algorithm <==

  SCF Algorithm Type is DF.
  DIIS enabled.
  MOM disabled.
  Fractional occupation disabled.
  Guess Type is SAD.
  Energy threshold   = 1.00e-08
  Density threshold  = 1.00e-08
  Integral threshold = 1.00e-12

  ==> Primary Basis <==

  Basis Set: AUG-CC-PVTZ
    Blend: AUG-CC-PVTZ
    Number of shells: 42
    Number of basis functions: 138
    Number of Cartesian functions: 165
    Spherical Harmonics?: true
    Max angular momentum: 3

   => Loading Basis Set <=

    Name: (AUG-CC-PVTZ AUX)
    Role: JKFIT
    Keyword: DF_BASIS_SCF
    atoms 1   entry LI         line    54 file /ddmfs1b/softs/psi4conda/share/psi4/basis/def2-universal-jkfit.gbs 
    atoms 2-3 entry F          line   348 file /ddmfs1b/softs/psi4conda/share/psi4/basis/aug-cc-pvtz-jkfit.gbs 

  ==> Integral Setup <==

  DFHelper Memory: AOs need 0.044 GiB; user supplied 41.910 GiB. 
  Using in-core AOs.

  ==> MemDFJK: Density-Fitted J/K Matrices <==

    J tasked:                   Yes
    K tasked:                   Yes
    wK tasked:                   No
    OpenMP threads:              20
    Memory [MiB]:             42915
    Algorithm:                 Core
    Schwarz Cutoff:           1E-12
    Mask sparsity (%):       0.8192
    Fitting Condition:        1E-10

   => Auxiliary Basis Set <=

  Basis Set: (AUG-CC-PVTZ AUX)
    Blend: AUG-CC-PVTZ-JKFIT + DEF2-UNIVERSAL-JKFIT
    Number of shells: 77
    Number of basis functions: 259
    Number of Cartesian functions: 322
    Spherical Harmonics?: true
    Max angular momentum: 4

  Minimum eigenvalue in the overlap matrix is 4.5313543666E-04.
  Reciprocal condition number of the overlap matrix is 7.8160689908E-05.
    Using symmetric orthogonalization.

  ==> Pre-Iterations <==

  SCF Guess: Superposition of Atomic Densities via on-the-fly atomic UHF (no occupation information).

   -------------------------
    Irrep   Nso     Nmo    
   -------------------------
     A        138     138 
   -------------------------
    Total     138     138
   -------------------------

  ==> Iterations <==

                           Total Energy        Delta E     RMS |[F,P]|

   @DF-RHF iter SAD:    -7.31451984539063   -7.31452e+00   0.00000e+00 
   @DF-RHF iter   1:    -7.23638163962350    7.81382e-02   1.65419e-05 DIIS
   @DF-RHF iter   2:    -7.23638352893789   -1.88931e-06   1.89551e-06 DIIS
   @DF-RHF iter   3:    -7.23638355739023   -2.84523e-08   9.63671e-08 DIIS
   @DF-RHF iter   4:    -7.23638355744628   -5.60503e-11   1.01983e-09 DIIS
  Energy and wave function converged.


  ==> Post-Iterations <==

    Orbital Energies [Eh]
    ---------------------

    Doubly Occupied:                                                      

       1A     -2.792364  

    Virtual:                                                              

       2A     -0.196297     3A     -0.128596     4A     -0.128595  
       5A     -0.128594     6A     -0.073647     7A     -0.056369  
       8A     -0.056355     9A     -0.056339    10A     -0.032506  
      11A     -0.032411    12A     -0.031712    13A     -0.031644  
      14A     -0.031575    15A     -0.006603    16A     -0.005849  
      17A     -0.003270    18A     -0.001263    19A      0.079383  
      20A      0.085937    21A      0.097802    22A      0.106690  
      23A      0.107271    24A      0.113356    25A      0.127238  
      26A      0.127244    27A      0.130805    28A      0.132629  
      29A      0.133544    30A      0.134132    31A      0.140754  
      32A      0.162521    33A      0.200102    34A      0.205561  
      35A      0.206897    36A      0.223807    37A      0.246927  
      38A      0.250206    39A      0.257125    40A      0.290849  
      41A      0.393250    42A      0.512667    43A      0.519825  
      44A      0.520101    45A      0.526413    46A      0.528334  
      47A      0.531668    48A      0.534331    49A      0.544435  
      50A      0.559310    51A      0.561576    52A      0.563927  
      53A      0.570379    54A      0.727664    55A      0.762819  
      56A      0.783676    57A      0.837430    58A      0.840046  
      59A      0.881641    60A      0.886603    61A      0.902475  
      62A      0.920575    63A      0.931903    64A      1.001551  
      65A      1.036130    66A      1.099093    67A      1.135583  
      68A      1.194945    69A      1.223300    70A      1.242750  
      71A      1.297318    72A      2.608172    73A      2.690128  
      74A      2.780641    75A      2.788388    76A      2.800343  
      77A      2.818451    78A      2.830161    79A      2.839413  
      80A      2.859115    81A      2.878505    82A      2.886045  
      83A      2.891300    84A      2.906519    85A      2.910056  
      86A      2.932073    87A      3.003326    88A      3.036868  
      89A      3.057078    90A      3.076962    91A      3.121022  
      92A      3.177606    93A      3.288550    94A      3.373543  
      95A      3.385376    96A      3.403326    97A      3.479425  
      98A      3.508106    99A      3.513121   100A      3.583533  
     101A      3.589586   102A      3.622072   103A      3.809253  
     104A      4.303879   105A      9.495415   106A      9.789895  
     107A      9.842365   108A      9.848569   109A      9.876491  
     110A      9.884965   111A      9.915306   112A      9.923897  
     113A      9.934005   114A      9.937763   115A      9.954537  
     116A      9.968147   117A      9.990569   118A     10.005564  
     119A     10.091112   120A     10.288665   121A     12.698581  
     122A     12.703138   123A     12.732187   124A     12.745757  
     125A     12.751172   126A     12.761650   127A     12.786419  
     128A     12.813546   129A     12.828521   130A     12.843937  
     131A     14.090848   132A     14.113053   133A     14.150097  
     134A     14.183221   135A     14.336944   136A     14.466582  
     137A     68.019073   138A     69.502209  

    Final Occupation by Irrep:
              A 
    DOCC [     1 ]
    NA   [     1 ]
    NB   [     1 ]

  @DF-RHF Final Energy:    -7.23638355744628

   => Energetics <=

    Nuclear Repulsion Energy =              0.0000000000000000
    One-Electron Energy =                  -8.8880393388459531
    Two-Electron Energy =                   1.6516557813996686
    Total Energy =                         -7.2363835574462847

Computation Completed


Properties will be evaluated at   0.000000,   0.000000,   0.000000 [a0]

Properties computed using the SCF density matrix


 Multipole Moments:

 ------------------------------------------------------------------------------------
     Multipole            Electronic (a.u.)      Nuclear  (a.u.)        Total (a.u.)
 ------------------------------------------------------------------------------------

 L = 1.  Multiply by 2.5417464519 to convert [e a0] to [Debye]
 Dipole X            :          0.0000239            0.0000000            0.0000239
 Dipole Y            :          0.0000042            0.0000000            0.0000042
 Dipole Z            :         -0.0000000            0.0000000           -0.0000000
 Magnitude           :                                                    0.0000243

 ------------------------------------------------------------------------------------

*** tstop() called on ddmfs1 at Mon Jan 22 03:35:34 2024
Module time:
	user time   =       9.47 seconds =       0.16 minutes
	system time =       0.69 seconds =       0.01 minutes
	total time  =          1 seconds =       0.02 minutes
Total time:
	user time   =       9.47 seconds =       0.16 minutes
	system time =       0.69 seconds =       0.01 minutes
	total time  =          1 seconds =       0.02 minutes

*** tstart() called on ddmfs1
*** at Mon Jan 22 03:35:34 2024


  //>>>>>>>>>>>>>>>>>>>>>>>>>>>>>>>>>>>//
  //               DFMP2               //
  //<<<<<<<<<<<<<<<<<<<<<<<<<<<<<<<<<<<//

   => Loading Basis Set <=

    Name: (AUG-CC-PVTZ AUX)
    Role: RIFIT
    Keyword: DF_BASIS_MP2
    atoms 1   entry LI         line    90 file /ddmfs1b/softs/psi4conda/share/psi4/basis/def2-qzvpp-ri.gbs 
    atoms 2-3 entry F          line   322 file /ddmfs1b/softs/psi4conda/share/psi4/basis/aug-cc-pvtz-ri.gbs 

	 --------------------------------------------------------
	                          DF-MP2                         
	      2nd-Order Density-Fitted Moller-Plesset Theory     
	              RMP2 Wavefunction,  20 Threads             
	                                                         
	        Rob Parrish, Justin Turney, Andy Simmonett,      
	           Ed Hohenstein, and C. David Sherrill          
	 --------------------------------------------------------

   => Auxiliary Basis Set <=

  Basis Set: (AUG-CC-PVTZ AUX)
    Blend: AUG-CC-PVTZ-RI + DEF2-QZVPP-RI
    Number of shells: 83
    Number of basis functions: 313
    Number of Cartesian functions: 402
    Spherical Harmonics?: true
    Max angular momentum: 4

	 --------------------------------------------------------
	                 NBF =   138, NAUX =   313
	 --------------------------------------------------------
	   CLASS    FOCC     OCC    AOCC    AVIR     VIR    FVIR
	   PAIRS       0       1       1     137     137       0
	 --------------------------------------------------------

	-----------------------------------------------------------
	 ==================> DF-MP2 Energies <==================== 
	-----------------------------------------------------------
	 Reference Energy          =      -7.2363835574462847 [Eh]
	 Singles Energy            =      -0.0000000000000000 [Eh]
	 Same-Spin Energy          =       0.0000000000000000 [Eh]
	 Opposite-Spin Energy      =      -0.0134265877437724 [Eh]
	 Correlation Energy        =      -0.0134265877437724 [Eh]
	 Total Energy              =      -7.2498101451900574 [Eh]
	-----------------------------------------------------------
	 ================> DF-SCS-MP2 Energies <================== 
	-----------------------------------------------------------
	 SCS Same-Spin Scale       =       0.3333333333333333 [-]
	 SCS Opposite-Spin Scale   =       1.2000000000000000 [-]
	 SCS Same-Spin Energy      =       0.0000000000000000 [Eh]
	 SCS Opposite-Spin Energy  =      -0.0161119052925269 [Eh]
	 SCS Correlation Energy    =      -0.0161119052925269 [Eh]
	 SCS Total Energy          =      -7.2524954627388114 [Eh]
	-----------------------------------------------------------


*** tstop() called on ddmfs1 at Mon Jan 22 03:35:35 2024
Module time:
	user time   =       4.95 seconds =       0.08 minutes
	system time =       0.29 seconds =       0.00 minutes
	total time  =          1 seconds =       0.02 minutes
Total time:
	user time   =      14.44 seconds =       0.24 minutes
	system time =       0.98 seconds =       0.02 minutes
	total time  =          2 seconds =       0.03 minutes

    Psi4 stopped on: Monday, 22 January 2024 03:35AM
    Psi4 wall time for execution: 0:00:01.34


    -----------------------------------------------------------------------
          Psi4: An Open-Source Ab Initio Electronic Structure Package
                               Psi4 1.8.2 release

                         Git: Rev {} zzzzzzz 


    D. G. A. Smith, L. A. Burns, A. C. Simmonett, R. M. Parrish,
    M. C. Schieber, R. Galvelis, P. Kraus, H. Kruse, R. Di Remigio,
    A. Alenaizan, A. M. James, S. Lehtola, J. P. Misiewicz, M. Scheurer,
    R. A. Shaw, J. B. Schriber, Y. Xie, Z. L. Glick, D. A. Sirianni,
    J. S. O'Brien, J. M. Waldrop, A. Kumar, E. G. Hohenstein,
    B. P. Pritchard, B. R. Brooks, H. F. Schaefer III, A. Yu. Sokolov,
    K. Patkowski, A. E. DePrince III, U. Bozkaya, R. A. King,
    F. A. Evangelista, J. M. Turney, T. D. Crawford, C. D. Sherrill,
    J. Chem. Phys. 152(18) 184108 (2020). https://doi.org/10.1063/5.0006002

                            Additional Code Authors
    E. T. Seidl, C. L. Janssen, E. F. Valeev, M. L. Leininger,
    J. F. Gonthier, R. M. Richard, H. R. McAlexander, M. Saitow, X. Wang,
    P. Verma, M. H. Lechner, A. Jiang, S. Behnle, A. G. Heide,
    M. F. Herbst, and D. L. Poole

             Previous Authors, Complete List of Code Contributors,
                       and Citations for Specific Modules
    https://github.com/psi4/psi4/blob/master/codemeta.json
    https://github.com/psi4/psi4/graphs/contributors
    http://psicode.org/psi4manual/master/introduction.html#citing-psifour

    -----------------------------------------------------------------------


    Psi4 started on: Monday, 22 January 2024 03:35AM

    Process ID: 30354
    Host:       ddmfs1
    PSIDATADIR: /ddmfs1b/softs/psi4conda/share/psi4
    Memory:     55.9 GiB
    Threads:    20
    
  ==> Input QCSchema <==

--------------------------------------------------------------------------
{'driver': 'energy',
 'extras': {'psiapi': True, 'wfn_qcvars_only': True},
 'id': None,
 'keywords': {'SCF_TYPE': 'DF', 'function_kwargs': {}},
 'model': {'basis': 'aug-cc-pvtz', 'method': 'mp2'},
 'molecule': {'atom_labels': ['', '', ''],
              'atomic_numbers': [3, 9, 9],
              'extras': {},
              'fix_com': True,
              'fix_orientation': True,
              'fix_symmetry': 'c1',
              'fragment_charges': [0.0, -1.0, 0.0],
              'fragment_multiplicities': [1, 1, 1],
              'fragments': [[0], [1], [2]],
              'geometry': [0.0, 0.0, 0.0, 0.0, 2.993619090274646, 0.0, 3.8917038724939763, 0.0, 0.0],
              'mass_numbers': [7, 19, 19],
              'masses': [7.0160034366, 18.99840316273, 18.99840316273],
              'molecular_charge': -1.0,
              'molecular_multiplicity': 1,
              'name': 'dimer',
              'provenance': {'creator': 'QCElemental',
                             'routine': 'qcelemental.molparse.from_string',
                             'version': '0.26.0'},
              'real': [False, True, False],
              'schema_name': 'qcschema_molecule',
              'schema_version': 2,
              'symbols': ['Li', 'F', 'F'],
              'validated': True},
 'protocols': {'stdout': True},
 'provenance': {'creator': 'QCElemental', 'routine': 'qcelemental.models.results', 'version': '0.26.0'},
 'schema_name': 'qcschema_input',
 'schema_version': 1}
--------------------------------------------------------------------------

Scratch directory: /ddmfs1a/scratch/
   => Libint2 <=

    Primary   basis highest AM E, G, H:  5, 4, 3
    Auxiliary basis highest AM E, G, H:  6, 5, 4
    Onebody   basis highest AM E, G, H:  6, 5, 4
    Solid Harmonics ordering:            gaussian

*** tstart() called on ddmfs1
*** at Mon Jan 22 03:35:35 2024

   => Loading Basis Set <=

    Name: AUG-CC-PVTZ
    Role: ORBITAL
    Keyword: BASIS
    atoms 1   entry LI         line    85 file /ddmfs1b/softs/psi4conda/share/psi4/basis/aug-cc-pvtz.gbs 
    atoms 2-3 entry F          line   377 file /ddmfs1b/softs/psi4conda/share/psi4/basis/aug-cc-pvtz.gbs 


         ---------------------------------------------------------
                                   SCF
               by Justin Turney, Rob Parrish, Andy Simmonett
                          and Daniel G. A. Smith
                              RHF Reference
                       20 Threads,  57220 MiB Core
         ---------------------------------------------------------

  ==> Geometry <==

    Molecular point group: c1
    Full point group: Cs

    Geometry (in Bohr), charge = -1, multiplicity = 1:

       Center              X                  Y                   Z               Mass       
    ------------   -----------------  -----------------  -----------------  -----------------
      Gh(LI)          0.000000000000     0.000000000000     0.000000000000     7.016003436600
         F            0.000000000000     2.993619090275     0.000000000000    18.998403162730
      Gh(F)           3.891703872494     0.000000000000     0.000000000000    18.998403162730

  Running in c1 symmetry.

  Rotational constants: A =      0.35358  B =      0.20922  C =      0.13144 [cm^-1]
  Rotational constants: A =  10599.97290  B =   6272.17636  C =   3940.51157 [MHz]
  Nuclear repulsion =    0.000000000000000

  Charge       = -1
  Multiplicity = 1
  Electrons    = 10
  Nalpha       = 5
  Nbeta        = 5

  ==> Algorithm <==

  SCF Algorithm Type is DF.
  DIIS enabled.
  MOM disabled.
  Fractional occupation disabled.
  Guess Type is SAD.
  Energy threshold   = 1.00e-08
  Density threshold  = 1.00e-08
  Integral threshold = 1.00e-12

  ==> Primary Basis <==

  Basis Set: AUG-CC-PVTZ
    Blend: AUG-CC-PVTZ
    Number of shells: 42
    Number of basis functions: 138
    Number of Cartesian functions: 165
    Spherical Harmonics?: true
    Max angular momentum: 3

   => Loading Basis Set <=

    Name: (AUG-CC-PVTZ AUX)
    Role: JKFIT
    Keyword: DF_BASIS_SCF
    atoms 1   entry LI         line    54 file /ddmfs1b/softs/psi4conda/share/psi4/basis/def2-universal-jkfit.gbs 
    atoms 2-3 entry F          line   348 file /ddmfs1b/softs/psi4conda/share/psi4/basis/aug-cc-pvtz-jkfit.gbs 

  ==> Integral Setup <==

  DFHelper Memory: AOs need 0.044 GiB; user supplied 41.910 GiB. 
  Using in-core AOs.

  ==> MemDFJK: Density-Fitted J/K Matrices <==

    J tasked:                   Yes
    K tasked:                   Yes
    wK tasked:                   No
    OpenMP threads:              20
    Memory [MiB]:             42915
    Algorithm:                 Core
    Schwarz Cutoff:           1E-12
    Mask sparsity (%):       0.8192
    Fitting Condition:        1E-10

   => Auxiliary Basis Set <=

  Basis Set: (AUG-CC-PVTZ AUX)
    Blend: AUG-CC-PVTZ-JKFIT + DEF2-UNIVERSAL-JKFIT
    Number of shells: 77
    Number of basis functions: 259
    Number of Cartesian functions: 322
    Spherical Harmonics?: true
    Max angular momentum: 4

  Minimum eigenvalue in the overlap matrix is 4.5313543666E-04.
  Reciprocal condition number of the overlap matrix is 7.8160689908E-05.
    Using symmetric orthogonalization.

  ==> Pre-Iterations <==

  SCF Guess: Superposition of Atomic Densities via on-the-fly atomic UHF (no occupation information).

   -------------------------
    Irrep   Nso     Nmo    
   -------------------------
     A        138     138 
   -------------------------
    Total     138     138
   -------------------------

  ==> Iterations <==

                           Total Energy        Delta E     RMS |[F,P]|

   @DF-RHF iter SAD:   -98.82535132671919   -9.88254e+01   0.00000e+00 
   @DF-RHF iter   1:   -99.33780950884849   -5.12458e-01   3.95751e-03 ADIIS/DIIS
   @DF-RHF iter   2:   -99.37275242889777   -3.49429e-02   3.86659e-03 ADIIS/DIIS
   @DF-RHF iter   3:   -99.45082565195518   -7.80732e-02   1.18430e-04 ADIIS/DIIS
   @DF-RHF iter   4:   -99.45089195275071   -6.63008e-05   4.58555e-05 DIIS
   @DF-RHF iter   5:   -99.45090232155762   -1.03688e-05   3.02056e-06 DIIS
   @DF-RHF iter   6:   -99.45090242498529   -1.03428e-07   2.62527e-07 DIIS
   @DF-RHF iter   7:   -99.45090242590091   -9.15620e-10   3.26061e-08 DIIS
   @DF-RHF iter   8:   -99.45090242592491   -2.40021e-11   2.92142e-09 DIIS
  Energy and wave function converged.


  ==> Post-Iterations <==

    Orbital Energies [Eh]
    ---------------------

    Doubly Occupied:                                                      

       1A    -25.833759     2A     -1.076028     3A     -0.180998  
       4A     -0.180978     5A     -0.180973  

    Virtual:                                                              

       6A      0.086631     7A      0.093410     8A      0.095160  
       9A      0.107273    10A      0.170943    11A      0.181065  
      12A      0.188565    13A      0.219168    14A      0.249183  
      15A      0.251133    16A      0.254876    17A      0.258364  
      18A      0.261797    19A      0.323759    20A      0.342563  
      21A      0.384509    22A      0.400830    23A      0.409138  
      24A      0.412999    25A      0.417456    26A      0.467077  
      27A      0.470301    28A      0.470398    29A      0.471503  
      30A      0.507932    31A      0.520385    32A      0.529582  
      33A      0.532145    34A      0.532694    35A      0.536230  
      36A      0.540066    37A      0.557714    38A      0.594041  
      39A      0.614370    40A      0.627051    41A      0.647494  
      42A      0.786785    43A      0.881500    44A      0.950994  
      45A      0.973891    46A      0.975216    47A      0.986624  
      48A      1.015065    49A      1.015229    50A      1.021890  
      51A      1.060359    52A      1.084873    53A      1.110132  
      54A      1.142524    55A      1.162303    56A      1.200879  
      57A      1.222147    58A      1.262841    59A      1.263427  
      60A      1.296601    61A      1.305251    62A      1.335379  
      63A      1.435613    64A      1.439425    65A      1.491614  
      66A      1.518159    67A      1.523868    68A      1.618714  
      69A      1.624657    70A      1.780461    71A      1.907272  
      72A      1.980051    73A      2.130531    74A      2.198690  
      75A      2.358173    76A      2.932911    77A      3.250000  
      78A      3.260950    79A      3.289625    80A      3.296627  
      81A      3.312114    82A      3.313282    83A      3.332837  
      84A      3.346487    85A      3.349755    86A      3.367987  
      87A      3.382601    88A      3.397769    89A      3.407481  
      90A      3.475281    91A      3.496348    92A      3.499599  
      93A      3.541527    94A      3.574586    95A      3.643940  
      96A      3.714429    97A      3.777770    98A      3.807143  
      99A      3.827182   100A      3.843580   101A      3.922547  
     102A      3.984877   103A      4.099820   104A      4.163828  
     105A      5.967327   106A      6.033616   107A      6.133393  
     108A      9.292519   109A      9.304072   110A      9.349653  
     111A      9.366556   112A      9.396441   113A      9.401639  
     114A      9.414822   115A      9.841822   116A      9.861804  
     117A      9.884520   118A      9.913087   119A      9.927935  
     120A     10.085945   121A     10.364938   122A     10.365439  
     123A     10.402592   124A     10.417331   125A     10.446861  
     126A     10.460999   127A     10.521879   128A     11.531425  
     129A     13.148454   130A     13.187412   131A     13.204617  
     132A     13.266743   133A     13.284268   134A     13.324948  
     135A     14.557131   136A     14.608968   137A     14.782799  
     138A     68.696669  

    Final Occupation by Irrep:
              A 
    DOCC [     5 ]
    NA   [     5 ]
    NB   [     5 ]

  @DF-RHF Final Energy:   -99.45090242592491

   => Energetics <=

    Nuclear Repulsion Energy =              0.0000000000000000
    One-Electron Energy =                -143.9963315455037787
    Two-Electron Energy =                  44.5454291195788841
    Total Energy =                        -99.4509024259248946

Computation Completed


Properties will be evaluated at   0.000000,   0.000000,   0.000000 [a0]

Properties computed using the SCF density matrix


 Multipole Moments:

 ------------------------------------------------------------------------------------
     Multipole            Electronic (a.u.)      Nuclear  (a.u.)        Total (a.u.)
 ------------------------------------------------------------------------------------

 L = 1.  Multiply by 2.5417464519 to convert [e a0] to [Debye]
 Dipole X            :          0.0000953            0.0000000            0.0000953
 Dipole Y            :        -29.9364575           26.9425718           -2.9938857
 Dipole Z            :          0.0000000            0.0000000            0.0000000
 Magnitude           :                                                    2.9938857

 ------------------------------------------------------------------------------------

*** tstop() called on ddmfs1 at Mon Jan 22 03:35:36 2024
Module time:
	user time   =      12.62 seconds =       0.21 minutes
	system time =       0.61 seconds =       0.01 minutes
	total time  =          1 seconds =       0.02 minutes
Total time:
	user time   =      28.18 seconds =       0.47 minutes
	system time =       1.65 seconds =       0.03 minutes
	total time  =          3 seconds =       0.05 minutes

*** tstart() called on ddmfs1
*** at Mon Jan 22 03:35:36 2024


  //>>>>>>>>>>>>>>>>>>>>>>>>>>>>>>>>>>>//
  //               DFMP2               //
  //<<<<<<<<<<<<<<<<<<<<<<<<<<<<<<<<<<<//

   => Loading Basis Set <=

    Name: (AUG-CC-PVTZ AUX)
    Role: RIFIT
    Keyword: DF_BASIS_MP2
    atoms 1   entry LI         line    90 file /ddmfs1b/softs/psi4conda/share/psi4/basis/def2-qzvpp-ri.gbs 
    atoms 2-3 entry F          line   322 file /ddmfs1b/softs/psi4conda/share/psi4/basis/aug-cc-pvtz-ri.gbs 

	 --------------------------------------------------------
	                          DF-MP2                         
	      2nd-Order Density-Fitted Moller-Plesset Theory     
	              RMP2 Wavefunction,  20 Threads             
	                                                         
	        Rob Parrish, Justin Turney, Andy Simmonett,      
	           Ed Hohenstein, and C. David Sherrill          
	 --------------------------------------------------------

   => Auxiliary Basis Set <=

  Basis Set: (AUG-CC-PVTZ AUX)
    Blend: AUG-CC-PVTZ-RI + DEF2-QZVPP-RI
    Number of shells: 83
    Number of basis functions: 313
    Number of Cartesian functions: 402
    Spherical Harmonics?: true
    Max angular momentum: 4

	 --------------------------------------------------------
	                 NBF =   138, NAUX =   313
	 --------------------------------------------------------
	   CLASS    FOCC     OCC    AOCC    AVIR     VIR    FVIR
	   PAIRS       0       5       5     133     133       0
	 --------------------------------------------------------

	-----------------------------------------------------------
	 ==================> DF-MP2 Energies <==================== 
	-----------------------------------------------------------
	 Reference Energy          =     -99.4509024259249088 [Eh]
	 Singles Energy            =      -0.0000000000000000 [Eh]
	 Same-Spin Energy          =      -0.0817591615658191 [Eh]
	 Opposite-Spin Energy      =      -0.2276080458914438 [Eh]
	 Correlation Energy        =      -0.3093672074572628 [Eh]
	 Total Energy              =     -99.7602696333821655 [Eh]
	-----------------------------------------------------------
	 ================> DF-SCS-MP2 Energies <================== 
	-----------------------------------------------------------
	 SCS Same-Spin Scale       =       0.3333333333333333 [-]
	 SCS Opposite-Spin Scale   =       1.2000000000000000 [-]
	 SCS Same-Spin Energy      =      -0.0272530538552730 [Eh]
	 SCS Opposite-Spin Energy  =      -0.2731296550697325 [Eh]
	 SCS Correlation Energy    =      -0.3003827089250055 [Eh]
	 SCS Total Energy          =     -99.7512851348499083 [Eh]
	-----------------------------------------------------------


*** tstop() called on ddmfs1 at Mon Jan 22 03:35:36 2024
Module time:
	user time   =       4.95 seconds =       0.08 minutes
	system time =       0.20 seconds =       0.00 minutes
	total time  =          0 seconds =       0.00 minutes
Total time:
	user time   =      33.15 seconds =       0.55 minutes
	system time =       1.85 seconds =       0.03 minutes
	total time  =          3 seconds =       0.05 minutes

    Psi4 stopped on: Monday, 22 January 2024 03:35AM
    Psi4 wall time for execution: 0:00:01.30


    -----------------------------------------------------------------------
          Psi4: An Open-Source Ab Initio Electronic Structure Package
                               Psi4 1.8.2 release

                         Git: Rev {} zzzzzzz 


    D. G. A. Smith, L. A. Burns, A. C. Simmonett, R. M. Parrish,
    M. C. Schieber, R. Galvelis, P. Kraus, H. Kruse, R. Di Remigio,
    A. Alenaizan, A. M. James, S. Lehtola, J. P. Misiewicz, M. Scheurer,
    R. A. Shaw, J. B. Schriber, Y. Xie, Z. L. Glick, D. A. Sirianni,
    J. S. O'Brien, J. M. Waldrop, A. Kumar, E. G. Hohenstein,
    B. P. Pritchard, B. R. Brooks, H. F. Schaefer III, A. Yu. Sokolov,
    K. Patkowski, A. E. DePrince III, U. Bozkaya, R. A. King,
    F. A. Evangelista, J. M. Turney, T. D. Crawford, C. D. Sherrill,
    J. Chem. Phys. 152(18) 184108 (2020). https://doi.org/10.1063/5.0006002

                            Additional Code Authors
    E. T. Seidl, C. L. Janssen, E. F. Valeev, M. L. Leininger,
    J. F. Gonthier, R. M. Richard, H. R. McAlexander, M. Saitow, X. Wang,
    P. Verma, M. H. Lechner, A. Jiang, S. Behnle, A. G. Heide,
    M. F. Herbst, and D. L. Poole

             Previous Authors, Complete List of Code Contributors,
                       and Citations for Specific Modules
    https://github.com/psi4/psi4/blob/master/codemeta.json
    https://github.com/psi4/psi4/graphs/contributors
    http://psicode.org/psi4manual/master/introduction.html#citing-psifour

    -----------------------------------------------------------------------


    Psi4 started on: Monday, 22 January 2024 03:35AM

    Process ID: 30354
    Host:       ddmfs1
    PSIDATADIR: /ddmfs1b/softs/psi4conda/share/psi4
    Memory:     55.9 GiB
    Threads:    20
    
  ==> Input QCSchema <==

--------------------------------------------------------------------------
{'driver': 'energy',
 'extras': {'psiapi': True, 'wfn_qcvars_only': True},
 'id': None,
 'keywords': {'SCF_TYPE': 'DF', 'function_kwargs': {}},
 'model': {'basis': 'aug-cc-pvtz', 'method': 'mp2'},
 'molecule': {'atom_labels': ['', '', ''],
              'atomic_numbers': [3, 9, 9],
              'extras': {},
              'fix_com': True,
              'fix_orientation': True,
              'fix_symmetry': 'c1',
              'fragment_charges': [0.0, -1.0, -1.0],
              'fragment_multiplicities': [1, 1, 1],
              'fragments': [[0], [1], [2]],
              'geometry': [0.0, 0.0, 0.0, 0.0, 2.993619090274646, 0.0, 3.8917038724939763, 0.0, 0.0],
              'mass_numbers': [7, 19, 19],
              'masses': [7.0160034366, 18.99840316273, 18.99840316273],
              'molecular_charge': -2.0,
              'molecular_multiplicity': 1,
              'name': 'dimer',
              'provenance': {'creator': 'QCElemental',
                             'routine': 'qcelemental.molparse.from_string',
                             'version': '0.26.0'},
              'real': [False, True, True],
              'schema_name': 'qcschema_molecule',
              'schema_version': 2,
              'symbols': ['Li', 'F', 'F'],
              'validated': True},
 'protocols': {'stdout': True},
 'provenance': {'creator': 'QCElemental', 'routine': 'qcelemental.models.results', 'version': '0.26.0'},
 'schema_name': 'qcschema_input',
 'schema_version': 1}
--------------------------------------------------------------------------

Scratch directory: /ddmfs1a/scratch/
   => Libint2 <=

    Primary   basis highest AM E, G, H:  5, 4, 3
    Auxiliary basis highest AM E, G, H:  6, 5, 4
    Onebody   basis highest AM E, G, H:  6, 5, 4
    Solid Harmonics ordering:            gaussian

*** tstart() called on ddmfs1
*** at Mon Jan 22 03:35:36 2024

   => Loading Basis Set <=

    Name: AUG-CC-PVTZ
    Role: ORBITAL
    Keyword: BASIS
    atoms 1   entry LI         line    85 file /ddmfs1b/softs/psi4conda/share/psi4/basis/aug-cc-pvtz.gbs 
    atoms 2-3 entry F          line   377 file /ddmfs1b/softs/psi4conda/share/psi4/basis/aug-cc-pvtz.gbs 


         ---------------------------------------------------------
                                   SCF
               by Justin Turney, Rob Parrish, Andy Simmonett
                          and Daniel G. A. Smith
                              RHF Reference
                       20 Threads,  57220 MiB Core
         ---------------------------------------------------------

  ==> Geometry <==

    Molecular point group: c1
    Full point group: Cs

    Geometry (in Bohr), charge = -2, multiplicity = 1:

       Center              X                  Y                   Z               Mass       
    ------------   -----------------  -----------------  -----------------  -----------------
      Gh(LI)          0.000000000000     0.000000000000     0.000000000000     7.016003436600
         F            0.000000000000     2.993619090275     0.000000000000    18.998403162730
         F            3.891703872494     0.000000000000     0.000000000000    18.998403162730

  Running in c1 symmetry.

  Rotational constants: A =      0.35358  B =      0.20922  C =      0.13144 [cm^-1]
  Rotational constants: A =  10599.97290  B =   6272.17636  C =   3940.51157 [MHz]
  Nuclear repulsion =   16.497282276941199

  Charge       = -2
  Multiplicity = 1
  Electrons    = 20
  Nalpha       = 10
  Nbeta        = 10

  ==> Algorithm <==

  SCF Algorithm Type is DF.
  DIIS enabled.
  MOM disabled.
  Fractional occupation disabled.
  Guess Type is SAD.
  Energy threshold   = 1.00e-08
  Density threshold  = 1.00e-08
  Integral threshold = 1.00e-12

  ==> Primary Basis <==

  Basis Set: AUG-CC-PVTZ
    Blend: AUG-CC-PVTZ
    Number of shells: 42
    Number of basis functions: 138
    Number of Cartesian functions: 165
    Spherical Harmonics?: true
    Max angular momentum: 3

   => Loading Basis Set <=

    Name: (AUG-CC-PVTZ AUX)
    Role: JKFIT
    Keyword: DF_BASIS_SCF
    atoms 1   entry LI         line    54 file /ddmfs1b/softs/psi4conda/share/psi4/basis/def2-universal-jkfit.gbs 
    atoms 2-3 entry F          line   348 file /ddmfs1b/softs/psi4conda/share/psi4/basis/aug-cc-pvtz-jkfit.gbs 

  ==> Integral Setup <==

  DFHelper Memory: AOs need 0.044 GiB; user supplied 41.910 GiB. 
  Using in-core AOs.

  ==> MemDFJK: Density-Fitted J/K Matrices <==

    J tasked:                   Yes
    K tasked:                   Yes
    wK tasked:                   No
    OpenMP threads:              20
    Memory [MiB]:             42915
    Algorithm:                 Core
    Schwarz Cutoff:           1E-12
    Mask sparsity (%):       0.8192
    Fitting Condition:        1E-10

   => Auxiliary Basis Set <=

  Basis Set: (AUG-CC-PVTZ AUX)
    Blend: AUG-CC-PVTZ-JKFIT + DEF2-UNIVERSAL-JKFIT
    Number of shells: 77
    Number of basis functions: 259
    Number of Cartesian functions: 322
    Spherical Harmonics?: true
    Max angular momentum: 4

  Minimum eigenvalue in the overlap matrix is 4.5313543666E-04.
  Reciprocal condition number of the overlap matrix is 7.8160689908E-05.
    Using symmetric orthogonalization.

  ==> Pre-Iterations <==

  SCF Guess: Superposition of Atomic Densities via on-the-fly atomic UHF (no occupation information).

   -------------------------
    Irrep   Nso     Nmo    
   -------------------------
     A        138     138 
   -------------------------
    Total     138     138
   -------------------------

  ==> Iterations <==

                           Total Energy        Delta E     RMS |[F,P]|

   @DF-RHF iter SAD:  -197.65542295368411   -1.97655e+02   0.00000e+00 
   @DF-RHF iter   1:  -198.46646594443715   -8.11043e-01   5.66671e-03 ADIIS/DIIS
   @DF-RHF iter   2:  -187.49392867286736    1.09725e+01   1.89602e-02 ADIIS/DIIS
   @DF-RHF iter   3:  -198.63201088061754   -1.11381e+01   2.83859e-03 ADIIS/DIIS
   @DF-RHF iter   4:  -198.70634772294869   -7.43368e-02   3.95393e-04 ADIIS/DIIS
   @DF-RHF iter   5:  -198.70946286063787   -3.11514e-03   6.40462e-05 DIIS
   @DF-RHF iter   6:  -198.70963986865959   -1.77008e-04   1.79171e-05 DIIS
   @DF-RHF iter   7:  -198.70965628088038   -1.64122e-05   9.35628e-06 DIIS
   @DF-RHF iter   8:  -198.70965923701419   -2.95613e-06   5.02761e-06 DIIS
   @DF-RHF iter   9:  -198.70966028402808   -1.04701e-06   2.69220e-06 DIIS
   @DF-RHF iter  10:  -198.70966041459090   -1.30563e-07   5.15182e-07 DIIS
   @DF-RHF iter  11:  -198.70966041964263   -5.05173e-09   1.00045e-07 DIIS
   @DF-RHF iter  12:  -198.70966041978204   -1.39408e-10   3.30395e-08 DIIS
   @DF-RHF iter  13:  -198.70966041979239   -1.03455e-11   3.16150e-09 DIIS
  Energy and wave function converged.


  ==> Post-Iterations <==

    Orbital Energies [Eh]
    ---------------------

    Doubly Occupied:                                                      

       1A    -25.656914     2A    -25.656715     3A     -0.900756  
       4A     -0.892887     5A     -0.021370     6A     -0.007138  
       7A     -0.007128     8A      0.004468     9A      0.004471  
      10A      0.024775  

    Virtual:                                                              

      11A      0.155062    12A      0.163787    13A      0.166165  
      14A      0.192218    15A      0.273489    16A      0.290877  
      17A      0.299761    18A      0.360986    19A      0.375259  
      20A      0.379884    21A      0.381893    22A      0.386823  
      23A      0.395564    24A      0.481360    25A      0.509956  
      26A      0.553785    27A      0.599906    28A      0.607393  
      29A      0.610239    30A      0.611941    31A      0.620240  
      32A      0.623523    33A      0.634536    34A      0.639908  
      35A      0.662604    36A      0.662744    37A      0.673532  
      38A      0.675241    39A      0.683780    40A      0.692482  
      41A      0.753524    42A      0.763981    43A      0.782565  
      44A      0.814032    45A      0.852233    46A      0.905982  
      47A      0.964710    48A      1.133801    49A      1.163481  
      50A      1.183726    51A      1.191632    52A      1.201701  
      53A      1.224258    54A      1.224321    55A      1.258195  
      56A      1.263598    57A      1.311853    58A      1.403951  
      59A      1.474341    60A      1.477321    61A      1.487478  
      62A      1.504213    63A      1.526242    64A      1.596377  
      65A      1.616056    66A      1.629135    67A      1.645786  
      68A      1.655375    69A      1.693336    70A      1.703950  
      71A      1.736825    72A      1.920071    73A      2.011779  
      74A      2.079447    75A      2.111219    76A      2.317276  
      77A      2.320971    78A      2.409209    79A      2.545420  
      80A      2.791387    81A      3.158605    82A      3.465999  
      83A      3.486820    84A      3.499682    85A      3.509003  
      86A      3.518994    87A      3.523668    88A      3.532122  
      89A      3.532646    90A      3.541304    91A      3.547901  
      92A      3.550191    93A      3.598069    94A      3.599253  
      95A      3.637335    96A      3.682410    97A      3.712771  
      98A      3.725266    99A      3.763772   100A      3.775097  
     101A      3.812107   102A      3.893552   103A      3.910637  
     104A      3.982248   105A      4.161503   106A      5.991633  
     107A      6.024355   108A      6.089555   109A      6.148498  
     110A      6.271556   111A      6.397067   112A      9.440270  
     113A      9.441124   114A      9.461808   115A      9.462666  
     116A      9.487763   117A      9.503807   118A      9.506023  
     119A      9.515646   120A      9.519404   121A      9.546811  
     122A      9.577898   123A      9.587881   124A      9.598454  
     125A      9.672968   126A      9.982770   127A      9.983408  
     128A     10.024239   129A     10.058690   130A     10.065263  
     131A     10.066762   132A     10.111180   133A     10.113624  
     134A     10.119727   135A     10.180314   136A     11.733475  
     137A     12.263490   138A     13.422738  

    Final Occupation by Irrep:
              A 
    DOCC [    10 ]
    NA   [    10 ]
    NB   [    10 ]

  @DF-RHF Final Energy:  -198.70966041979239

   => Energetics <=

    Nuclear Repulsion Energy =             16.4972822769411991
    One-Electron Energy =                -324.1954946265703370
    Two-Electron Energy =                 108.9885519298367740
    Total Energy =                       -198.7096604197923853

Computation Completed


Properties will be evaluated at   0.000000,   0.000000,   0.000000 [a0]

Properties computed using the SCF density matrix


 Multipole Moments:

 ------------------------------------------------------------------------------------
     Multipole            Electronic (a.u.)      Nuclear  (a.u.)        Total (a.u.)
 ------------------------------------------------------------------------------------

 L = 1.  Multiply by 2.5417464519 to convert [e a0] to [Debye]
 Dipole X            :        -38.9053049           35.0253349           -3.8799700
 Dipole Y            :        -29.9330477           26.9425718           -2.9904759
 Dipole Z            :          0.0000000            0.0000000            0.0000000
 Magnitude           :                                                    4.8986849

 ------------------------------------------------------------------------------------

*** tstop() called on ddmfs1 at Mon Jan 22 03:35:37 2024
Module time:
	user time   =      12.32 seconds =       0.21 minutes
	system time =       0.36 seconds =       0.01 minutes
	total time  =          1 seconds =       0.02 minutes
Total time:
	user time   =      46.60 seconds =       0.78 minutes
	system time =       2.26 seconds =       0.04 minutes
	total time  =          4 seconds =       0.07 minutes

*** tstart() called on ddmfs1
*** at Mon Jan 22 03:35:37 2024


  //>>>>>>>>>>>>>>>>>>>>>>>>>>>>>>>>>>>//
  //               DFMP2               //
  //<<<<<<<<<<<<<<<<<<<<<<<<<<<<<<<<<<<//

   => Loading Basis Set <=

    Name: (AUG-CC-PVTZ AUX)
    Role: RIFIT
    Keyword: DF_BASIS_MP2
    atoms 1   entry LI         line    90 file /ddmfs1b/softs/psi4conda/share/psi4/basis/def2-qzvpp-ri.gbs 
    atoms 2-3 entry F          line   322 file /ddmfs1b/softs/psi4conda/share/psi4/basis/aug-cc-pvtz-ri.gbs 

	 --------------------------------------------------------
	                          DF-MP2                         
	      2nd-Order Density-Fitted Moller-Plesset Theory     
	              RMP2 Wavefunction,  20 Threads             
	                                                         
	        Rob Parrish, Justin Turney, Andy Simmonett,      
	           Ed Hohenstein, and C. David Sherrill          
	 --------------------------------------------------------

   => Auxiliary Basis Set <=

  Basis Set: (AUG-CC-PVTZ AUX)
    Blend: AUG-CC-PVTZ-RI + DEF2-QZVPP-RI
    Number of shells: 83
    Number of basis functions: 313
    Number of Cartesian functions: 402
    Spherical Harmonics?: true
    Max angular momentum: 4

	 --------------------------------------------------------
	                 NBF =   138, NAUX =   313
	 --------------------------------------------------------
	   CLASS    FOCC     OCC    AOCC    AVIR     VIR    FVIR
	   PAIRS       0      10      10     128     128       0
	 --------------------------------------------------------

	-----------------------------------------------------------
	 ==================> DF-MP2 Energies <==================== 
	-----------------------------------------------------------
	 Reference Energy          =    -198.7096604197923853 [Eh]
	 Singles Energy            =      -0.0000000000000000 [Eh]
	 Same-Spin Energy          =      -0.1664620360661982 [Eh]
	 Opposite-Spin Energy      =      -0.4597518839704837 [Eh]
	 Correlation Energy        =      -0.6262139200366820 [Eh]
	 Total Energy              =    -199.3358743398290756 [Eh]
	-----------------------------------------------------------
	 ================> DF-SCS-MP2 Energies <================== 
	-----------------------------------------------------------
	 SCS Same-Spin Scale       =       0.3333333333333333 [-]
	 SCS Opposite-Spin Scale   =       1.2000000000000000 [-]
	 SCS Same-Spin Energy      =      -0.0554873453553994 [Eh]
	 SCS Opposite-Spin Energy  =      -0.5517022607645804 [Eh]
	 SCS Correlation Energy    =      -0.6071896061199799 [Eh]
	 SCS Total Energy          =    -199.3168500259123732 [Eh]
	-----------------------------------------------------------


*** tstop() called on ddmfs1 at Mon Jan 22 03:35:37 2024
Module time:
	user time   =       5.47 seconds =       0.09 minutes
	system time =       0.19 seconds =       0.00 minutes
	total time  =          0 seconds =       0.00 minutes
Total time:
	user time   =      52.09 seconds =       0.87 minutes
	system time =       2.45 seconds =       0.04 minutes
	total time  =          4 seconds =       0.07 minutes

    Psi4 stopped on: Monday, 22 January 2024 03:35AM
    Psi4 wall time for execution: 0:00:01.25


    -----------------------------------------------------------------------
          Psi4: An Open-Source Ab Initio Electronic Structure Package
                               Psi4 1.8.2 release

                         Git: Rev {} zzzzzzz 


    D. G. A. Smith, L. A. Burns, A. C. Simmonett, R. M. Parrish,
    M. C. Schieber, R. Galvelis, P. Kraus, H. Kruse, R. Di Remigio,
    A. Alenaizan, A. M. James, S. Lehtola, J. P. Misiewicz, M. Scheurer,
    R. A. Shaw, J. B. Schriber, Y. Xie, Z. L. Glick, D. A. Sirianni,
    J. S. O'Brien, J. M. Waldrop, A. Kumar, E. G. Hohenstein,
    B. P. Pritchard, B. R. Brooks, H. F. Schaefer III, A. Yu. Sokolov,
    K. Patkowski, A. E. DePrince III, U. Bozkaya, R. A. King,
    F. A. Evangelista, J. M. Turney, T. D. Crawford, C. D. Sherrill,
    J. Chem. Phys. 152(18) 184108 (2020). https://doi.org/10.1063/5.0006002

                            Additional Code Authors
    E. T. Seidl, C. L. Janssen, E. F. Valeev, M. L. Leininger,
    J. F. Gonthier, R. M. Richard, H. R. McAlexander, M. Saitow, X. Wang,
    P. Verma, M. H. Lechner, A. Jiang, S. Behnle, A. G. Heide,
    M. F. Herbst, and D. L. Poole

             Previous Authors, Complete List of Code Contributors,
                       and Citations for Specific Modules
    https://github.com/psi4/psi4/blob/master/codemeta.json
    https://github.com/psi4/psi4/graphs/contributors
    http://psicode.org/psi4manual/master/introduction.html#citing-psifour

    -----------------------------------------------------------------------


    Psi4 started on: Monday, 22 January 2024 03:35AM

    Process ID: 30354
    Host:       ddmfs1
    PSIDATADIR: /ddmfs1b/softs/psi4conda/share/psi4
    Memory:     55.9 GiB
    Threads:    20
    
  ==> Input QCSchema <==

--------------------------------------------------------------------------
{'driver': 'energy',
 'extras': {'psiapi': True, 'wfn_qcvars_only': True},
 'id': None,
 'keywords': {'SCF_TYPE': 'DF', 'function_kwargs': {}},
 'model': {'basis': 'aug-cc-pvtz', 'method': 'mp2'},
 'molecule': {'atom_labels': ['', '', ''],
              'atomic_numbers': [3, 9, 9],
              'extras': {},
              'fix_com': True,
              'fix_orientation': True,
              'fix_symmetry': 'c1',
              'fragment_charges': [1.0, 0.0, -1.0],
              'fragment_multiplicities': [1, 1, 1],
              'fragments': [[0], [1], [2]],
              'geometry': [0.0, 0.0, 0.0, 0.0, 2.993619090274646, 0.0, 3.8917038724939763, 0.0, 0.0],
              'mass_numbers': [7, 19, 19],
              'masses': [7.0160034366, 18.99840316273, 18.99840316273],
              'molecular_charge': 0.0,
              'molecular_multiplicity': 1,
              'name': 'dimer',
              'provenance': {'creator': 'QCElemental',
                             'routine': 'qcelemental.molparse.from_string',
                             'version': '0.26.0'},
              'real': [True, False, True],
              'schema_name': 'qcschema_molecule',
              'schema_version': 2,
              'symbols': ['Li', 'F', 'F'],
              'validated': True},
 'protocols': {'stdout': True},
 'provenance': {'creator': 'QCElemental', 'routine': 'qcelemental.models.results', 'version': '0.26.0'},
 'schema_name': 'qcschema_input',
 'schema_version': 1}
--------------------------------------------------------------------------

Scratch directory: /ddmfs1a/scratch/
   => Libint2 <=

    Primary   basis highest AM E, G, H:  5, 4, 3
    Auxiliary basis highest AM E, G, H:  6, 5, 4
    Onebody   basis highest AM E, G, H:  6, 5, 4
    Solid Harmonics ordering:            gaussian

*** tstart() called on ddmfs1
*** at Mon Jan 22 03:35:37 2024

   => Loading Basis Set <=

    Name: AUG-CC-PVTZ
    Role: ORBITAL
    Keyword: BASIS
    atoms 1   entry LI         line    85 file /ddmfs1b/softs/psi4conda/share/psi4/basis/aug-cc-pvtz.gbs 
    atoms 2-3 entry F          line   377 file /ddmfs1b/softs/psi4conda/share/psi4/basis/aug-cc-pvtz.gbs 


         ---------------------------------------------------------
                                   SCF
               by Justin Turney, Rob Parrish, Andy Simmonett
                          and Daniel G. A. Smith
                              RHF Reference
                       20 Threads,  57220 MiB Core
         ---------------------------------------------------------

  ==> Geometry <==

    Molecular point group: c1
    Full point group: Cs

    Geometry (in Bohr), charge = 0, multiplicity = 1:

       Center              X                  Y                   Z               Mass       
    ------------   -----------------  -----------------  -----------------  -----------------
         LI           0.000000000000     0.000000000000     0.000000000000     7.016003436600
      Gh(F)           0.000000000000     2.993619090275     0.000000000000    18.998403162730
         F            3.891703872494     0.000000000000     0.000000000000    18.998403162730

  Running in c1 symmetry.

  Rotational constants: A =      0.35358  B =      0.20922  C =      0.13144 [cm^-1]
  Rotational constants: A =  10599.97290  B =   6272.17636  C =   3940.51157 [MHz]
  Nuclear repulsion =    6.937835170561732

  Charge       = 0
  Multiplicity = 1
  Electrons    = 12
  Nalpha       = 6
  Nbeta        = 6

  ==> Algorithm <==

  SCF Algorithm Type is DF.
  DIIS enabled.
  MOM disabled.
  Fractional occupation disabled.
  Guess Type is SAD.
  Energy threshold   = 1.00e-08
  Density threshold  = 1.00e-08
  Integral threshold = 1.00e-12

  ==> Primary Basis <==

  Basis Set: AUG-CC-PVTZ
    Blend: AUG-CC-PVTZ
    Number of shells: 42
    Number of basis functions: 138
    Number of Cartesian functions: 165
    Spherical Harmonics?: true
    Max angular momentum: 3

   => Loading Basis Set <=

    Name: (AUG-CC-PVTZ AUX)
    Role: JKFIT
    Keyword: DF_BASIS_SCF
    atoms 1   entry LI         line    54 file /ddmfs1b/softs/psi4conda/share/psi4/basis/def2-universal-jkfit.gbs 
    atoms 2-3 entry F          line   348 file /ddmfs1b/softs/psi4conda/share/psi4/basis/aug-cc-pvtz-jkfit.gbs 

  ==> Integral Setup <==

  DFHelper Memory: AOs need 0.044 GiB; user supplied 41.910 GiB. 
  Using in-core AOs.

  ==> MemDFJK: Density-Fitted J/K Matrices <==

    J tasked:                   Yes
    K tasked:                   Yes
    wK tasked:                   No
    OpenMP threads:              20
    Memory [MiB]:             42915
    Algorithm:                 Core
    Schwarz Cutoff:           1E-12
    Mask sparsity (%):       0.8192
    Fitting Condition:        1E-10

   => Auxiliary Basis Set <=

  Basis Set: (AUG-CC-PVTZ AUX)
    Blend: AUG-CC-PVTZ-JKFIT + DEF2-UNIVERSAL-JKFIT
    Number of shells: 77
    Number of basis functions: 259
    Number of Cartesian functions: 322
    Spherical Harmonics?: true
    Max angular momentum: 4

  Minimum eigenvalue in the overlap matrix is 4.5313543666E-04.
  Reciprocal condition number of the overlap matrix is 7.8160689908E-05.
    Using symmetric orthogonalization.

  ==> Pre-Iterations <==

  SCF Guess: Superposition of Atomic Densities via on-the-fly atomic UHF (no occupation information).

   -------------------------
    Irrep   Nso     Nmo    
   -------------------------
     A        138     138 
   -------------------------
    Total     138     138
   -------------------------

  ==> Iterations <==

                           Total Energy        Delta E     RMS |[F,P]|

   @DF-RHF iter SAD:  -106.17909286480932   -1.06179e+02   0.00000e+00 
   @DF-RHF iter   1:  -106.84307296689484   -6.63980e-01   3.82454e-03 ADIIS/DIIS
   @DF-RHF iter   2:  -106.88284583625261   -3.97729e-02   3.56038e-03 ADIIS/DIIS
   @DF-RHF iter   3:  -106.94709553087888   -6.42497e-02   1.36895e-04 ADIIS/DIIS
   @DF-RHF iter   4:  -106.94722263704512   -1.27106e-04   3.80014e-05 DIIS
   @DF-RHF iter   5:  -106.94723898074110   -1.63437e-05   7.78021e-06 DIIS
   @DF-RHF iter   6:  -106.94724101820893   -2.03747e-06   1.76662e-06 DIIS
   @DF-RHF iter   7:  -106.94724113357398   -1.15365e-07   4.05267e-07 DIIS
   @DF-RHF iter   8:  -106.94724113964087   -6.06688e-09   7.88622e-08 DIIS
   @DF-RHF iter   9:  -106.94724113981322   -1.72349e-10   1.43440e-08 DIIS
   @DF-RHF iter  10:  -106.94724113981964   -6.42331e-12   1.61852e-09 DIIS
  Energy and wave function converged.


  ==> Post-Iterations <==

    Orbital Energies [Eh]
    ---------------------

    Doubly Occupied:                                                      

       1A    -26.082817     2A     -2.507329     3A     -1.327853  
       4A     -0.439037     5A     -0.430211     6A     -0.430200  

    Virtual:                                                              

       7A     -0.023529     8A      0.013573     9A      0.013929  
      10A      0.015461    11A      0.031528    12A      0.044213  
      13A      0.045977    14A      0.068638    15A      0.103520  
      16A      0.104396    17A      0.108556    18A      0.117501  
      19A      0.121907    20A      0.127488    21A      0.142099  
      22A      0.152400    23A      0.207640    24A      0.241872  
      25A      0.253368    26A      0.261703    27A      0.283043  
      28A      0.285183    29A      0.287837    30A      0.289993  
      31A      0.301841    32A      0.304341    33A      0.312712  
      34A      0.321514    35A      0.336899    36A      0.360013  
      37A      0.369560    38A      0.377246    39A      0.385230  
      40A      0.393639    41A      0.419917    42A      0.456041  
      43A      0.458045    44A      0.472482    45A      0.574618  
      46A      0.631286    47A      0.713325    48A      0.715289  
      49A      0.732845    50A      0.734487    51A      0.740745  
      52A      0.743922    53A      0.750292    54A      0.779957  
      55A      0.782499    56A      0.843913    57A      0.853457  
      58A      0.926454    59A      1.041908    60A      1.052418  
      61A      1.074844    62A      1.095506    63A      1.115467  
      64A      1.138513    65A      1.209103    66A      1.228749  
      67A      1.235176    68A      1.261410    69A      1.290957  
      70A      1.428883    71A      1.433947    72A      1.503691  
      73A      1.544246    74A      1.604800    75A      1.776316  
      76A      2.308616    77A      2.852725    78A      2.962081  
      79A      2.993066    80A      3.014541    81A      3.029459  
      82A      3.052143    83A      3.053016    84A      3.069803  
      85A      3.085911    86A      3.094652    87A      3.104023  
      88A      3.111280    89A      3.130119    90A      3.149416  
      91A      3.152546    92A      3.198390    93A      3.211810  
      94A      3.271303    95A      3.309725    96A      3.337498  
      97A      3.337750    98A      3.469449    99A      3.521515  
     100A      3.611842   101A      3.677984   102A      3.731151  
     103A      3.770516   104A      3.900656   105A      4.542395  
     106A      5.570971   107A      5.618781   108A      5.779886  
     109A      9.038177   110A      9.040732   111A      9.064345  
     112A      9.072260   113A      9.095024   114A      9.096089  
     115A      9.114718   116A      9.556296   117A      9.573057  
     118A      9.644245   119A      9.646406   120A      9.664700  
     121A      9.982690   122A     10.075753   123A     10.085258  
     124A     10.124146   125A     10.162028   126A     10.170284  
     127A     10.205952   128A     10.451529   129A     11.907556  
     130A     12.916043   131A     12.935591   132A     12.966513  
     133A     12.968533   134A     13.010286   135A     14.393598  
     136A     14.471508   137A     14.582349   138A     69.504463  

    Final Occupation by Irrep:
              A 
    DOCC [     6 ]
    NA   [     6 ]
    NB   [     6 ]

  @DF-RHF Final Energy:  -106.94724113981964

   => Energetics <=

    Nuclear Repulsion Energy =              6.9378351705617325
    One-Electron Energy =                -165.3352575442564500
    Two-Electron Energy =                  51.4501812338750781
    Total Energy =                       -106.9472411398196527

Computation Completed


Properties will be evaluated at   0.000000,   0.000000,   0.000000 [a0]

Properties computed using the SCF density matrix


 Multipole Moments:

 ------------------------------------------------------------------------------------
     Multipole            Electronic (a.u.)      Nuclear  (a.u.)        Total (a.u.)
 ------------------------------------------------------------------------------------

 L = 1.  Multiply by 2.5417464519 to convert [e a0] to [Debye]
 Dipole X            :        -38.4716323           35.0253349           -3.4462974
 Dipole Y            :          0.0001675            0.0000000            0.0001675
 Dipole Z            :         -0.0000000            0.0000000           -0.0000000
 Magnitude           :                                                    3.4462974

 ------------------------------------------------------------------------------------

*** tstop() called on ddmfs1 at Mon Jan 22 03:35:38 2024
Module time:
	user time   =      12.92 seconds =       0.22 minutes
	system time =       0.43 seconds =       0.01 minutes
	total time  =          1 seconds =       0.02 minutes
Total time:
	user time   =      66.17 seconds =       1.10 minutes
	system time =       2.93 seconds =       0.05 minutes
	total time  =          5 seconds =       0.08 minutes

*** tstart() called on ddmfs1
*** at Mon Jan 22 03:35:38 2024


  //>>>>>>>>>>>>>>>>>>>>>>>>>>>>>>>>>>>//
  //               DFMP2               //
  //<<<<<<<<<<<<<<<<<<<<<<<<<<<<<<<<<<<//

   => Loading Basis Set <=

    Name: (AUG-CC-PVTZ AUX)
    Role: RIFIT
    Keyword: DF_BASIS_MP2
    atoms 1   entry LI         line    90 file /ddmfs1b/softs/psi4conda/share/psi4/basis/def2-qzvpp-ri.gbs 
    atoms 2-3 entry F          line   322 file /ddmfs1b/softs/psi4conda/share/psi4/basis/aug-cc-pvtz-ri.gbs 

	 --------------------------------------------------------
	                          DF-MP2                         
	      2nd-Order Density-Fitted Moller-Plesset Theory     
	              RMP2 Wavefunction,  20 Threads             
	                                                         
	        Rob Parrish, Justin Turney, Andy Simmonett,      
	           Ed Hohenstein, and C. David Sherrill          
	 --------------------------------------------------------

   => Auxiliary Basis Set <=

  Basis Set: (AUG-CC-PVTZ AUX)
    Blend: AUG-CC-PVTZ-RI + DEF2-QZVPP-RI
    Number of shells: 83
    Number of basis functions: 313
    Number of Cartesian functions: 402
    Spherical Harmonics?: true
    Max angular momentum: 4

	 --------------------------------------------------------
	                 NBF =   138, NAUX =   313
	 --------------------------------------------------------
	   CLASS    FOCC     OCC    AOCC    AVIR     VIR    FVIR
	   PAIRS       0       6       6     132     132       0
	 --------------------------------------------------------

	-----------------------------------------------------------
	 ==================> DF-MP2 Energies <==================== 
	-----------------------------------------------------------
	 Reference Energy          =    -106.9472411398196385 [Eh]
	 Singles Energy            =      -0.0000000000000000 [Eh]
	 Same-Spin Energy          =      -0.0811908240546463 [Eh]
	 Opposite-Spin Energy      =      -0.2397703387756685 [Eh]
	 Correlation Energy        =      -0.3209611628303148 [Eh]
	 Total Energy              =    -107.2682023026499536 [Eh]
	-----------------------------------------------------------
	 ================> DF-SCS-MP2 Energies <================== 
	-----------------------------------------------------------
	 SCS Same-Spin Scale       =       0.3333333333333333 [-]
	 SCS Opposite-Spin Scale   =       1.2000000000000000 [-]
	 SCS Same-Spin Energy      =      -0.0270636080182154 [Eh]
	 SCS Opposite-Spin Energy  =      -0.2877244065308022 [Eh]
	 SCS Correlation Energy    =      -0.3147880145490177 [Eh]
	 SCS Total Energy          =    -107.2620291543686619 [Eh]
	-----------------------------------------------------------


*** tstop() called on ddmfs1 at Mon Jan 22 03:35:39 2024
Module time:
	user time   =       5.00 seconds =       0.08 minutes
	system time =       0.15 seconds =       0.00 minutes
	total time  =          1 seconds =       0.02 minutes
Total time:
	user time   =      71.18 seconds =       1.19 minutes
	system time =       3.08 seconds =       0.05 minutes
	total time  =          6 seconds =       0.10 minutes

    Psi4 stopped on: Monday, 22 January 2024 03:35AM
    Psi4 wall time for execution: 0:00:01.27


    -----------------------------------------------------------------------
          Psi4: An Open-Source Ab Initio Electronic Structure Package
                               Psi4 1.8.2 release

                         Git: Rev {} zzzzzzz 


    D. G. A. Smith, L. A. Burns, A. C. Simmonett, R. M. Parrish,
    M. C. Schieber, R. Galvelis, P. Kraus, H. Kruse, R. Di Remigio,
    A. Alenaizan, A. M. James, S. Lehtola, J. P. Misiewicz, M. Scheurer,
    R. A. Shaw, J. B. Schriber, Y. Xie, Z. L. Glick, D. A. Sirianni,
    J. S. O'Brien, J. M. Waldrop, A. Kumar, E. G. Hohenstein,
    B. P. Pritchard, B. R. Brooks, H. F. Schaefer III, A. Yu. Sokolov,
    K. Patkowski, A. E. DePrince III, U. Bozkaya, R. A. King,
    F. A. Evangelista, J. M. Turney, T. D. Crawford, C. D. Sherrill,
    J. Chem. Phys. 152(18) 184108 (2020). https://doi.org/10.1063/5.0006002

                            Additional Code Authors
    E. T. Seidl, C. L. Janssen, E. F. Valeev, M. L. Leininger,
    J. F. Gonthier, R. M. Richard, H. R. McAlexander, M. Saitow, X. Wang,
    P. Verma, M. H. Lechner, A. Jiang, S. Behnle, A. G. Heide,
    M. F. Herbst, and D. L. Poole

             Previous Authors, Complete List of Code Contributors,
                       and Citations for Specific Modules
    https://github.com/psi4/psi4/blob/master/codemeta.json
    https://github.com/psi4/psi4/graphs/contributors
    http://psicode.org/psi4manual/master/introduction.html#citing-psifour

    -----------------------------------------------------------------------


    Psi4 started on: Monday, 22 January 2024 03:35AM

    Process ID: 30354
    Host:       ddmfs1
    PSIDATADIR: /ddmfs1b/softs/psi4conda/share/psi4
    Memory:     55.9 GiB
    Threads:    20
    
  ==> Input QCSchema <==

--------------------------------------------------------------------------
{'driver': 'energy',
 'extras': {'psiapi': True, 'wfn_qcvars_only': True},
 'id': None,
 'keywords': {'SCF_TYPE': 'DF', 'function_kwargs': {}},
 'model': {'basis': 'aug-cc-pvtz', 'method': 'mp2'},
 'molecule': {'atom_labels': ['', '', ''],
              'atomic_numbers': [3, 9, 9],
              'extras': {},
              'fix_com': True,
              'fix_orientation': True,
              'fix_symmetry': 'c1',
              'fragment_charges': [1.0, -1.0, 0.0],
              'fragment_multiplicities': [1, 1, 1],
              'fragments': [[0], [1], [2]],
              'geometry': [0.0, 0.0, 0.0, 0.0, 2.993619090274646, 0.0, 3.8917038724939763, 0.0, 0.0],
              'mass_numbers': [7, 19, 19],
              'masses': [7.0160034366, 18.99840316273, 18.99840316273],
              'molecular_charge': 0.0,
              'molecular_multiplicity': 1,
              'name': 'dimer',
              'provenance': {'creator': 'QCElemental',
                             'routine': 'qcelemental.molparse.from_string',
                             'version': '0.26.0'},
              'real': [True, True, False],
              'schema_name': 'qcschema_molecule',
              'schema_version': 2,
              'symbols': ['Li', 'F', 'F'],
              'validated': True},
 'protocols': {'stdout': True},
 'provenance': {'creator': 'QCElemental', 'routine': 'qcelemental.models.results', 'version': '0.26.0'},
 'schema_name': 'qcschema_input',
 'schema_version': 1}
--------------------------------------------------------------------------

Scratch directory: /ddmfs1a/scratch/
   => Libint2 <=

    Primary   basis highest AM E, G, H:  5, 4, 3
    Auxiliary basis highest AM E, G, H:  6, 5, 4
    Onebody   basis highest AM E, G, H:  6, 5, 4
    Solid Harmonics ordering:            gaussian

*** tstart() called on ddmfs1
*** at Mon Jan 22 03:35:39 2024

   => Loading Basis Set <=

    Name: AUG-CC-PVTZ
    Role: ORBITAL
    Keyword: BASIS
    atoms 1   entry LI         line    85 file /ddmfs1b/softs/psi4conda/share/psi4/basis/aug-cc-pvtz.gbs 
    atoms 2-3 entry F          line   377 file /ddmfs1b/softs/psi4conda/share/psi4/basis/aug-cc-pvtz.gbs 


         ---------------------------------------------------------
                                   SCF
               by Justin Turney, Rob Parrish, Andy Simmonett
                          and Daniel G. A. Smith
                              RHF Reference
                       20 Threads,  57220 MiB Core
         ---------------------------------------------------------

  ==> Geometry <==

    Molecular point group: c1
    Full point group: Cs

    Geometry (in Bohr), charge = 0, multiplicity = 1:

       Center              X                  Y                   Z               Mass       
    ------------   -----------------  -----------------  -----------------  -----------------
         LI           0.000000000000     0.000000000000     0.000000000000     7.016003436600
         F            0.000000000000     2.993619090275     0.000000000000    18.998403162730
      Gh(F)           3.891703872494     0.000000000000     0.000000000000    18.998403162730

  Running in c1 symmetry.

  Rotational constants: A =      0.35358  B =      0.20922  C =      0.13144 [cm^-1]
  Rotational constants: A =  10599.97290  B =   6272.17636  C =   3940.51157 [MHz]
  Nuclear repulsion =    9.019183531971304

  Charge       = 0
  Multiplicity = 1
  Electrons    = 12
  Nalpha       = 6
  Nbeta        = 6

  ==> Algorithm <==

  SCF Algorithm Type is DF.
  DIIS enabled.
  MOM disabled.
  Fractional occupation disabled.
  Guess Type is SAD.
  Energy threshold   = 1.00e-08
  Density threshold  = 1.00e-08
  Integral threshold = 1.00e-12

  ==> Primary Basis <==

  Basis Set: AUG-CC-PVTZ
    Blend: AUG-CC-PVTZ
    Number of shells: 42
    Number of basis functions: 138
    Number of Cartesian functions: 165
    Spherical Harmonics?: true
    Max angular momentum: 3

   => Loading Basis Set <=

    Name: (AUG-CC-PVTZ AUX)
    Role: JKFIT
    Keyword: DF_BASIS_SCF
    atoms 1   entry LI         line    54 file /ddmfs1b/softs/psi4conda/share/psi4/basis/def2-universal-jkfit.gbs 
    atoms 2-3 entry F          line   348 file /ddmfs1b/softs/psi4conda/share/psi4/basis/aug-cc-pvtz-jkfit.gbs 

  ==> Integral Setup <==

  DFHelper Memory: AOs need 0.044 GiB; user supplied 41.910 GiB. 
  Using in-core AOs.

  ==> MemDFJK: Density-Fitted J/K Matrices <==

    J tasked:                   Yes
    K tasked:                   Yes
    wK tasked:                   No
    OpenMP threads:              20
    Memory [MiB]:             42915
    Algorithm:                 Core
    Schwarz Cutoff:           1E-12
    Mask sparsity (%):       0.8192
    Fitting Condition:        1E-10

   => Auxiliary Basis Set <=

  Basis Set: (AUG-CC-PVTZ AUX)
    Blend: AUG-CC-PVTZ-JKFIT + DEF2-UNIVERSAL-JKFIT
    Number of shells: 77
    Number of basis functions: 259
    Number of Cartesian functions: 322
    Spherical Harmonics?: true
    Max angular momentum: 4

  Minimum eigenvalue in the overlap matrix is 4.5313543666E-04.
  Reciprocal condition number of the overlap matrix is 7.8160689908E-05.
    Using symmetric orthogonalization.

  ==> Pre-Iterations <==

  SCF Guess: Superposition of Atomic Densities via on-the-fly atomic UHF (no occupation information).

   -------------------------
    Irrep   Nso     Nmo    
   -------------------------
     A        138     138 
   -------------------------
    Total     138     138
   -------------------------

  ==> Iterations <==

                           Total Energy        Delta E     RMS |[F,P]|

   @DF-RHF iter SAD:  -106.21045023676072   -1.06210e+02   0.00000e+00 
   @DF-RHF iter   1:  -106.87994101768635   -6.69491e-01   3.93044e-03 ADIIS/DIIS
   @DF-RHF iter   2:  -106.92880814631080   -4.88671e-02   3.32464e-03 ADIIS/DIIS
   @DF-RHF iter   3:  -106.98273909356352   -5.39309e-02   1.09801e-04 ADIIS/DIIS
   @DF-RHF iter   4:  -106.98280891242132   -6.98189e-05   2.36403e-05 DIIS
   @DF-RHF iter   5:  -106.98281367989185   -4.76747e-06   3.69675e-06 DIIS
   @DF-RHF iter   6:  -106.98281398871435   -3.08823e-07   8.26589e-07 DIIS
   @DF-RHF iter   7:  -106.98281400699757   -1.82832e-08   1.74662e-07 DIIS
   @DF-RHF iter   8:  -106.98281400765055   -6.52975e-10   2.86222e-08 DIIS
   @DF-RHF iter   9:  -106.98281400766763   -1.70814e-11   5.81959e-09 DIIS
  Energy and wave function converged.


  ==> Post-Iterations <==

    Orbital Energies [Eh]
    ---------------------

    Doubly Occupied:                                                      

       1A    -26.113759     2A     -2.437590     3A     -1.377033  
       4A     -0.497190     5A     -0.473951     6A     -0.473873  

    Virtual:                                                              

       7A     -0.010689     8A      0.016294     9A      0.016612  
      10A      0.022174    11A      0.029425    12A      0.053517  
      13A      0.055094    14A      0.074703    15A      0.109450  
      16A      0.110767    17A      0.116999    18A      0.120320  
      19A      0.123628    20A      0.140383    21A      0.155514  
      22A      0.164031    23A      0.215114    24A      0.238035  
      25A      0.249640    26A      0.250736    27A      0.292059  
      28A      0.293978    29A      0.294333    30A      0.295652  
      31A      0.311543    32A      0.325304    33A      0.326547  
      34A      0.340904    35A      0.353636    36A      0.362815  
      37A      0.367465    38A      0.374801    39A      0.393720  
      40A      0.414721    41A      0.421699    42A      0.453634  
      43A      0.486491    44A      0.513999    45A      0.542799  
      46A      0.717846    47A      0.733694    48A      0.736787  
      49A      0.741411    50A      0.747947    51A      0.749938  
      52A      0.750477    53A      0.775562    54A      0.784562  
      55A      0.810550    56A      0.891684    57A      0.924041  
      58A      0.961400    59A      0.984636    60A      1.022278  
      61A      1.044890    62A      1.058139    63A      1.098377  
      64A      1.182416    65A      1.192157    66A      1.214306  
      67A      1.246597    68A      1.266871    69A      1.270934  
      70A      1.316912    71A      1.377578    72A      1.470189  
      73A      1.740079    74A      1.742462    75A      1.792374  
      76A      2.412167    77A      2.877654    78A      2.996135  
      79A      2.996406    80A      3.032649    81A      3.033149  
      82A      3.044098    83A      3.052960    84A      3.062679  
      85A      3.072022    86A      3.074997    87A      3.075155  
      88A      3.094353    89A      3.106890    90A      3.142289  
      91A      3.203966    92A      3.220369    93A      3.248724  
      94A      3.262194    95A      3.275436    96A      3.356182  
      97A      3.394962    98A      3.487288    99A      3.516353  
     100A      3.595403   101A      3.629330   102A      3.741196  
     103A      3.807453   104A      3.870536   105A      4.367857  
[...]

  Basis Set: (AUG-CC-PVTZ AUX)
    Blend: AUG-CC-PVTZ-RI + DEF2-QZVPP-RI
    Number of shells: 83
    Number of basis functions: 313
    Number of Cartesian functions: 402
    Spherical Harmonics?: true
    Max angular momentum: 4

	 --------------------------------------------------------
	                 NBF =   138, NAUX =   313
	 --------------------------------------------------------
	   CLASS    FOCC     OCC    AOCC    AVIR     VIR    FVIR
	   PAIRS       0       5       5     133     133       0
	 --------------------------------------------------------

	-----------------------------------------------------------
	 ==================> DF-MP2 Energies <==================== 
	-----------------------------------------------------------
	 Reference Energy          =     -99.4508833526076046 [Eh]
	 Singles Energy            =      -0.0000000000000000 [Eh]
	 Same-Spin Energy          =      -0.0816986300589103 [Eh]
	 Opposite-Spin Energy      =      -0.2271384495393713 [Eh]
	 Correlation Energy        =      -0.3088370795982816 [Eh]
	 Total Energy              =     -99.7597204322058815 [Eh]
	-----------------------------------------------------------
	 ================> DF-SCS-MP2 Energies <================== 
	-----------------------------------------------------------
	 SCS Same-Spin Scale       =       0.3333333333333333 [-]
	 SCS Opposite-Spin Scale   =       1.2000000000000000 [-]
	 SCS Same-Spin Energy      =      -0.0272328766863034 [Eh]
	 SCS Opposite-Spin Energy  =      -0.2725661394472456 [Eh]
	 SCS Correlation Energy    =      -0.2997990161335490 [Eh]
	 SCS Total Energy          =     -99.7506823687411526 [Eh]
	-----------------------------------------------------------


*** tstop() called on ddmfs1 at Mon Jan 22 03:35:41 2024
Module time:
	user time   =       4.95 seconds =       0.08 minutes
	system time =       0.21 seconds =       0.00 minutes
	total time  =          0 seconds =       0.00 minutes
Total time:
	user time   =     107.25 seconds =       1.79 minutes
	system time =       4.35 seconds =       0.07 minutes
	total time  =          8 seconds =       0.13 minutes

    Psi4 stopped on: Monday, 22 January 2024 03:35AM
    Psi4 wall time for execution: 0:00:01.17


    -----------------------------------------------------------------------
          Psi4: An Open-Source Ab Initio Electronic Structure Package
                               Psi4 1.8.2 release

                         Git: Rev {} zzzzzzz 


    D. G. A. Smith, L. A. Burns, A. C. Simmonett, R. M. Parrish,
    M. C. Schieber, R. Galvelis, P. Kraus, H. Kruse, R. Di Remigio,
    A. Alenaizan, A. M. James, S. Lehtola, J. P. Misiewicz, M. Scheurer,
    R. A. Shaw, J. B. Schriber, Y. Xie, Z. L. Glick, D. A. Sirianni,
    J. S. O'Brien, J. M. Waldrop, A. Kumar, E. G. Hohenstein,
    B. P. Pritchard, B. R. Brooks, H. F. Schaefer III, A. Yu. Sokolov,
    K. Patkowski, A. E. DePrince III, U. Bozkaya, R. A. King,
    F. A. Evangelista, J. M. Turney, T. D. Crawford, C. D. Sherrill,
    J. Chem. Phys. 152(18) 184108 (2020). https://doi.org/10.1063/5.0006002

                            Additional Code Authors
    E. T. Seidl, C. L. Janssen, E. F. Valeev, M. L. Leininger,
    J. F. Gonthier, R. M. Richard, H. R. McAlexander, M. Saitow, X. Wang,
    P. Verma, M. H. Lechner, A. Jiang, S. Behnle, A. G. Heide,
    M. F. Herbst, and D. L. Poole

             Previous Authors, Complete List of Code Contributors,
                       and Citations for Specific Modules
    https://github.com/psi4/psi4/blob/master/codemeta.json
    https://github.com/psi4/psi4/graphs/contributors
    http://psicode.org/psi4manual/master/introduction.html#citing-psifour

    -----------------------------------------------------------------------


    Psi4 started on: Monday, 22 January 2024 03:35AM

    Process ID: 30354
    Host:       ddmfs1
    PSIDATADIR: /ddmfs1b/softs/psi4conda/share/psi4
    Memory:     55.9 GiB
    Threads:    20
    
  ==> Input QCSchema <==

--------------------------------------------------------------------------
{'driver': 'energy',
 'extras': {'psiapi': True, 'wfn_qcvars_only': True},
 'id': None,
 'keywords': {'SCF_TYPE': 'DF', 'function_kwargs': {}},
 'model': {'basis': 'aug-cc-pvtz', 'method': 'mp2'},
 'molecule': {'atom_labels': ['', '', ''],
              'atomic_numbers': [3, 9, 9],
              'extras': {},
              'fix_com': True,
              'fix_orientation': True,
              'fix_symmetry': 'c1',
              'fragment_charges': [1.0, -1.0, -1.0],
              'fragment_multiplicities': [1, 1, 1],
              'fragments': [[0], [1], [2]],
              'geometry': [0.0, 0.0, 0.0, 0.0, 2.993619090274646, 0.0, 3.8917038724939763, 0.0, 0.0],
              'mass_numbers': [7, 19, 19],
              'masses': [7.0160034366, 18.99840316273, 18.99840316273],
              'molecular_charge': -1.0,
              'molecular_multiplicity': 1,
              'name': 'dimer',
              'provenance': {'creator': 'QCElemental',
                             'routine': 'qcelemental.molparse.from_string',
                             'version': '0.26.0'},
              'real': [True, True, True],
              'schema_name': 'qcschema_molecule',
              'schema_version': 2,
              'symbols': ['Li', 'F', 'F'],
              'validated': True},
 'protocols': {'stdout': True},
 'provenance': {'creator': 'QCElemental', 'routine': 'qcelemental.models.results', 'version': '0.26.0'},
 'schema_name': 'qcschema_input',
 'schema_version': 1}
--------------------------------------------------------------------------

Scratch directory: /ddmfs1a/scratch/
   => Libint2 <=

    Primary   basis highest AM E, G, H:  5, 4, 3
    Auxiliary basis highest AM E, G, H:  6, 5, 4
    Onebody   basis highest AM E, G, H:  6, 5, 4
    Solid Harmonics ordering:            gaussian

*** tstart() called on ddmfs1
*** at Mon Jan 22 03:35:41 2024

   => Loading Basis Set <=

    Name: AUG-CC-PVTZ
    Role: ORBITAL
    Keyword: BASIS
    atoms 1   entry LI         line    85 file /ddmfs1b/softs/psi4conda/share/psi4/basis/aug-cc-pvtz.gbs 
    atoms 2-3 entry F          line   377 file /ddmfs1b/softs/psi4conda/share/psi4/basis/aug-cc-pvtz.gbs 


         ---------------------------------------------------------
                                   SCF
               by Justin Turney, Rob Parrish, Andy Simmonett
                          and Daniel G. A. Smith
                              RHF Reference
                       20 Threads,  57220 MiB Core
         ---------------------------------------------------------

  ==> Geometry <==

    Molecular point group: c1
    Full point group: Cs

    Geometry (in Bohr), charge = -1, multiplicity = 1:

       Center              X                  Y                   Z               Mass       
    ------------   -----------------  -----------------  -----------------  -----------------
         LI           0.000000000000     0.000000000000     0.000000000000     7.016003436600
         F            0.000000000000     2.993619090275     0.000000000000    18.998403162730
         F            3.891703872494     0.000000000000     0.000000000000    18.998403162730

  Running in c1 symmetry.

  Rotational constants: A =      0.35358  B =      0.20922  C =      0.13144 [cm^-1]
  Rotational constants: A =  10599.97290  B =   6272.17636  C =   3940.51157 [MHz]
  Nuclear repulsion =   32.454300979474240

  Charge       = -1
  Multiplicity = 1
  Electrons    = 22
  Nalpha       = 11
  Nbeta        = 11

  ==> Algorithm <==

  SCF Algorithm Type is DF.
  DIIS enabled.
  MOM disabled.
  Fractional occupation disabled.
  Guess Type is SAD.
  Energy threshold   = 1.00e-08
  Density threshold  = 1.00e-08
  Integral threshold = 1.00e-12

  ==> Primary Basis <==

  Basis Set: AUG-CC-PVTZ
    Blend: AUG-CC-PVTZ
    Number of shells: 42
    Number of basis functions: 138
    Number of Cartesian functions: 165
    Spherical Harmonics?: true
    Max angular momentum: 3

   => Loading Basis Set <=

    Name: (AUG-CC-PVTZ AUX)
    Role: JKFIT
    Keyword: DF_BASIS_SCF
    atoms 1   entry LI         line    54 file /ddmfs1b/softs/psi4conda/share/psi4/basis/def2-universal-jkfit.gbs 
    atoms 2-3 entry F          line   348 file /ddmfs1b/softs/psi4conda/share/psi4/basis/aug-cc-pvtz-jkfit.gbs 

  ==> Integral Setup <==

  DFHelper Memory: AOs need 0.044 GiB; user supplied 41.910 GiB. 
  Using in-core AOs.

  ==> MemDFJK: Density-Fitted J/K Matrices <==

    J tasked:                   Yes
    K tasked:                   Yes
    wK tasked:                   No
    OpenMP threads:              20
    Memory [MiB]:             42915
    Algorithm:                 Core
    Schwarz Cutoff:           1E-12
    Mask sparsity (%):       0.8192
    Fitting Condition:        1E-10

   => Auxiliary Basis Set <=

  Basis Set: (AUG-CC-PVTZ AUX)
    Blend: AUG-CC-PVTZ-JKFIT + DEF2-UNIVERSAL-JKFIT
    Number of shells: 77
    Number of basis functions: 259
    Number of Cartesian functions: 322
    Spherical Harmonics?: true
    Max angular momentum: 4

  Minimum eigenvalue in the overlap matrix is 4.5313543666E-04.
  Reciprocal condition number of the overlap matrix is 7.8160689908E-05.
    Using symmetric orthogonalization.

  ==> Pre-Iterations <==

  SCF Guess: Superposition of Atomic Densities via on-the-fly atomic UHF (no occupation information).

   -------------------------
    Irrep   Nso     Nmo    
   -------------------------
     A        138     138 
   -------------------------
    Total     138     138
   -------------------------

  ==> Iterations <==

                           Total Energy        Delta E     RMS |[F,P]|

   @DF-RHF iter SAD:  -205.07974353608572   -2.05080e+02   0.00000e+00 
   @DF-RHF iter   1:  -206.26517146604380   -1.18543e+00   5.52135e-03 ADIIS/DIIS
   @DF-RHF iter   2:  -206.35769832398594   -9.25269e-02   4.87089e-03 ADIIS/DIIS
   @DF-RHF iter   3:  -206.47608943301012   -1.18391e-01   1.65838e-04 ADIIS/DIIS
   @DF-RHF iter   4:  -206.47626725939921   -1.77826e-04   9.01136e-05 DIIS
   @DF-RHF iter   5:  -206.47631233663057   -4.50772e-05   2.58911e-05 DIIS
   @DF-RHF iter   6:  -206.47631908807659   -6.75145e-06   5.11978e-06 DIIS
   @DF-RHF iter   7:  -206.47631981708059   -7.29004e-07   1.19975e-06 DIIS
   @DF-RHF iter   8:  -206.47631986249442   -4.54138e-08   2.75533e-07 DIIS
   @DF-RHF iter   9:  -206.47631986511016   -2.61574e-09   6.62593e-08 DIIS
   @DF-RHF iter  10:  -206.47631986527412   -1.63965e-10   1.49306e-08 DIIS
   @DF-RHF iter  11:  -206.47631986528069   -6.56541e-12   2.57795e-09 DIIS
  Energy and wave function converged.


  ==> Post-Iterations <==

    Orbital Energies [Eh]
    ---------------------

    Doubly Occupied:                                                      

       1A    -25.911272     2A    -25.876507     3A     -2.187714  
       4A     -1.175728     5A     -1.124266     6A     -0.298678  
       7A     -0.280280     8A     -0.274535     9A     -0.231496  
      10A     -0.226260    11A     -0.219254  

    Virtual:                                                              

      12A      0.080776    13A      0.093716    14A      0.093718  
      15A      0.112056    16A      0.145870    17A      0.174192  
      18A      0.175876    19A      0.214570    20A      0.242671  
      21A      0.246421    22A      0.249443    23A      0.251398  
      24A      0.254325    25A      0.301255    26A      0.335982  
      27A      0.339708    28A      0.418163    29A      0.440173  
      30A      0.443537    31A      0.443923    32A      0.450174  
      33A      0.452197    34A      0.466282    35A      0.473283  
      36A      0.482842    37A      0.491669    38A      0.500752  
      39A      0.505430    40A      0.515195    41A      0.522961  
      42A      0.556946    43A      0.569975    44A      0.582808  
      45A      0.602178    46A      0.650629    47A      0.692069  
      48A      0.692882    49A      0.712814    50A      0.851079  
      51A      0.922411    52A      0.935021    53A      0.944739  
      54A      0.951461    55A      0.952810    56A      0.967844  
      57A      0.970597    58A      0.990426    59A      1.081135  
      60A      1.133408    61A      1.166913    62A      1.189461  
      63A      1.274626    64A      1.307341    65A      1.357266  
      66A      1.373591    67A      1.381732    68A      1.411197  
      69A      1.431291    70A      1.446007    71A      1.454587  
      72A      1.475671    73A      1.506001    74A      1.746806  
      75A      1.766505    76A      1.893333    77A      1.944273  
      78A      1.996413    79A      2.071489    80A      2.471456  
      81A      2.655495    82A      3.106527    83A      3.209182  
      84A      3.229500    85A      3.235634    86A      3.236615  
      87A      3.241047    88A      3.264572    89A      3.284263  
      90A      3.290969    91A      3.293261    92A      3.296852  
      93A      3.309663    94A      3.344904    95A      3.352539  
      96A      3.365727    97A      3.398606    98A      3.439319  
      99A      3.469343   100A      3.485474   101A      3.537577  
     102A      3.590519   103A      3.596303   104A      3.613423  
     105A      3.799002   106A      4.562307   107A      5.766957  
     108A      5.803214   109A      5.837517   110A      5.879692  
     111A      6.046342   112A      6.157589   113A      9.190056  
     114A      9.191913   115A      9.219996   116A      9.226291  
     117A      9.242217   118A      9.255855   119A      9.268592  
     120A      9.273681   121A      9.281588   122A      9.286894  
     123A      9.320835   124A      9.321178   125A      9.347780  
     126A      9.434459   127A      9.751174   128A      9.762732  
     129A      9.764608   130A      9.806683   131A      9.817839  
     132A      9.826742   133A      9.864456   134A      9.867977  
     135A      9.883604   136A      9.942498   137A     11.985260  
     138A     12.804201  

    Final Occupation by Irrep:
              A 
    DOCC [    11 ]
    NA   [    11 ]
    NB   [    11 ]

  @DF-RHF Final Energy:  -206.47631986528069

   => Energetics <=

    Nuclear Repulsion Energy =             32.4543009794742403
    One-Electron Energy =                -362.2492619116353580
    Two-Electron Energy =                 123.3186410668804456
    Total Energy =                       -206.4763198652806864

Computation Completed


Properties will be evaluated at   0.000000,   0.000000,   0.000000 [a0]

Properties computed using the SCF density matrix


 Multipole Moments:

 ------------------------------------------------------------------------------------
     Multipole            Electronic (a.u.)      Nuclear  (a.u.)        Total (a.u.)
 ------------------------------------------------------------------------------------

 L = 1.  Multiply by 2.5417464519 to convert [e a0] to [Debye]
 Dipole X            :        -38.5199303           35.0253349           -3.4945954
 Dipole Y            :        -29.4920493           26.9425718           -2.5494775
 Dipole Z            :         -0.0000000            0.0000000           -0.0000000
 Magnitude           :                                                    4.3257407

 ------------------------------------------------------------------------------------

*** tstop() called on ddmfs1 at Mon Jan 22 03:35:42 2024
Module time:
	user time   =      13.38 seconds =       0.22 minutes
	system time =       0.51 seconds =       0.01 minutes
	total time  =          1 seconds =       0.02 minutes
Total time:
	user time   =     121.80 seconds =       2.03 minutes
	system time =       4.88 seconds =       0.08 minutes
	total time  =          9 seconds =       0.15 minutes

*** tstart() called on ddmfs1
*** at Mon Jan 22 03:35:42 2024


  //>>>>>>>>>>>>>>>>>>>>>>>>>>>>>>>>>>>//
  //               DFMP2               //
  //<<<<<<<<<<<<<<<<<<<<<<<<<<<<<<<<<<<//

   => Loading Basis Set <=

    Name: (AUG-CC-PVTZ AUX)
    Role: RIFIT
    Keyword: DF_BASIS_MP2
    atoms 1   entry LI         line    90 file /ddmfs1b/softs/psi4conda/share/psi4/basis/def2-qzvpp-ri.gbs 
    atoms 2-3 entry F          line   322 file /ddmfs1b/softs/psi4conda/share/psi4/basis/aug-cc-pvtz-ri.gbs 

	 --------------------------------------------------------
	                          DF-MP2                         
	      2nd-Order Density-Fitted Moller-Plesset Theory     
	              RMP2 Wavefunction,  20 Threads             
	                                                         
	        Rob Parrish, Justin Turney, Andy Simmonett,      
	           Ed Hohenstein, and C. David Sherrill          
	 --------------------------------------------------------

   => Auxiliary Basis Set <=

  Basis Set: (AUG-CC-PVTZ AUX)
    Blend: AUG-CC-PVTZ-RI + DEF2-QZVPP-RI
    Number of shells: 83
    Number of basis functions: 313
    Number of Cartesian functions: 402
    Spherical Harmonics?: true
    Max angular momentum: 4

	 --------------------------------------------------------
	                 NBF =   138, NAUX =   313
	 --------------------------------------------------------
	   CLASS    FOCC     OCC    AOCC    AVIR     VIR    FVIR
	   PAIRS       0      11      11     127     127       0
	 --------------------------------------------------------

	-----------------------------------------------------------
	 ==================> DF-MP2 Energies <==================== 
	-----------------------------------------------------------
	 Reference Energy          =    -206.4763198652806864 [Eh]
	 Singles Energy            =      -0.0000000000000000 [Eh]
	 Same-Spin Energy          =      -0.1616293266309120 [Eh]
	 Opposite-Spin Energy      =      -0.4627064162769244 [Eh]
	 Correlation Energy        =      -0.6243357429078364 [Eh]
	 Total Energy              =    -207.1006556081885321 [Eh]
	-----------------------------------------------------------
	 ================> DF-SCS-MP2 Energies <================== 
	-----------------------------------------------------------
	 SCS Same-Spin Scale       =       0.3333333333333333 [-]
	 SCS Opposite-Spin Scale   =       1.2000000000000000 [-]
	 SCS Same-Spin Energy      =      -0.0538764422103040 [Eh]
	 SCS Opposite-Spin Energy  =      -0.5552476995323092 [Eh]
	 SCS Correlation Energy    =      -0.6091241417426132 [Eh]
	 SCS Total Energy          =    -207.0854440070233125 [Eh]
	-----------------------------------------------------------


*** tstop() called on ddmfs1 at Mon Jan 22 03:35:42 2024
Module time:
	user time   =       5.55 seconds =       0.09 minutes
	system time =       0.16 seconds =       0.00 minutes
	total time  =          0 seconds =       0.00 minutes
Total time:
	user time   =     127.37 seconds =       2.12 minutes
	system time =       5.04 seconds =       0.08 minutes
	total time  =          9 seconds =       0.15 minutes

    Psi4 stopped on: Monday, 22 January 2024 03:35AM
    Psi4 wall time for execution: 0:00:01.31


  //>>>>>>>>>>>>>>>>>>>>>>>>>>>>>>>>>>>//
  //          ManyBody Results         //
  //<<<<<<<<<<<<<<<<<<<<<<<<<<<<<<<<<<<//


   ==> N-Body: Counterpoise Corrected (CP) energies <==

        n-Body     Total Energy            Interaction Energy                          N-body Contribution to Interaction Energy
                   [Eh]                    [Eh]                  [kcal/mol]            [Eh]                  [kcal/mol]
             1  N/A                         0.000000000000        0.000000000000        0.000000000000        0.000000000000
             2  N/A                        -0.362915343445     -227.732816191231       -0.362915343445     -227.732816191231
  FULL/RTN   3  N/A                        -0.330855397410     -207.614896325478        0.032059946035       20.117919865753


    Psi4 stopped on: Monday, 22 January 2024 03:35AM
    Psi4 wall time for execution: 0:00:11.65

*** Psi4 exiting successfully. Buy a developer a beer!
