
    -----------------------------------------------------------------------
          Psi4: An Open-Source Ab Initio Electronic Structure Package
                               Psi4 1.8.2 release

                         Git: Rev {} zzzzzzz 


    D. G. A. Smith, L. A. Burns, A. C. Simmonett, R. M. Parrish,
    M. C. Schieber, R. Galvelis, P. Kraus, H. Kruse, R. Di Remigio,
    A. Alenaizan, A. M. James, S. Lehtola, J. P. Misiewicz, M. Scheurer,
    R. A. Shaw, J. B. Schriber, Y. Xie, Z. L. Glick, D. A. Sirianni,
    J. S. O'Brien, J. M. Waldrop, A. Kumar, E. G. Hohenstein,
    B. P. Pritchard, B. R. Brooks, H. F. Schaefer III, A. Yu. Sokolov,
    K. Patkowski, A. E. DePrince III, U. Bozkaya, R. A. King,
    F. A. Evangelista, J. M. Turney, T. D. Crawford, C. D. Sherrill,
    J. Chem. Phys. 152(18) 184108 (2020). https://doi.org/10.1063/5.0006002

                            Additional Code Authors
    E. T. Seidl, C. L. Janssen, E. F. Valeev, M. L. Leininger,
    J. F. Gonthier, R. M. Richard, H. R. McAlexander, M. Saitow, X. Wang,
    P. Verma, M. H. Lechner, A. Jiang, S. Behnle, A. G. Heide,
    M. F. Herbst, and D. L. Poole

             Previous Authors, Complete List of Code Contributors,
                       and Citations for Specific Modules
    https://github.com/psi4/psi4/blob/master/codemeta.json
    https://github.com/psi4/psi4/graphs/contributors
    http://psicode.org/psi4manual/master/introduction.html#citing-psifour

    -----------------------------------------------------------------------


    Psi4 started on: Monday, 22 January 2024 11:31AM

    Process ID: 41671
    Host:       ddmfs1
    PSIDATADIR: /ddmfs1b/softs/psi4conda/share/psi4
    Memory:     500.0 MiB
    Threads:    20
    
  ==> Input File <==

--------------------------------------------------------------------------
MEMORY 60 GB

molecule dimer {
-1 1
Li         0.000000     0.000000     0.000000
F          0.000000     1.584155     0.000000
F          2.376232     0.000000     0.000000

units ang
no_reorient
no_com
symmetry c1
}

set {
basis        aug-cc-pVTZ
scf_type     df
}

energy("mp2")
--------------------------------------------------------------------------

  Memory set to  55.879 GiB by Python driver.

Scratch directory: /ddmfs1a/scratch/
   => Libint2 <=

    Primary   basis highest AM E, G, H:  5, 4, 3
    Auxiliary basis highest AM E, G, H:  6, 5, 4
    Onebody   basis highest AM E, G, H:  6, 5, 4
    Solid Harmonics ordering:            gaussian

*** tstart() called on ddmfs1
*** at Mon Jan 22 11:31:12 2024

   => Loading Basis Set <=

    Name: AUG-CC-PVTZ
    Role: ORBITAL
    Keyword: BASIS
    atoms 1   entry LI         line    85 file /ddmfs1b/softs/psi4conda/share/psi4/basis/aug-cc-pvtz.gbs 
    atoms 2-3 entry F          line   377 file /ddmfs1b/softs/psi4conda/share/psi4/basis/aug-cc-pvtz.gbs 


         ---------------------------------------------------------
                                   SCF
               by Justin Turney, Rob Parrish, Andy Simmonett
                          and Daniel G. A. Smith
                              RHF Reference
                       20 Threads,  57220 MiB Core
         ---------------------------------------------------------

  ==> Geometry <==

    Molecular point group: c1
    Full point group: Cs

    Geometry (in Angstrom), charge = -1, multiplicity = 1:

       Center              X                  Y                   Z               Mass       
    ------------   -----------------  -----------------  -----------------  -----------------
         LI           0.000000000000     0.000000000000     0.000000000000     7.016003436600
         F            0.000000000000     1.584155000000     0.000000000000    18.998403162730
         F            2.376232000000     0.000000000000     0.000000000000    18.998403162730

  Running in c1 symmetry.

  Rotational constants: A =      0.35358  B =      0.15715  C =      0.10879 [cm^-1]
  Rotational constants: A =  10599.97290  B =   4711.10105  C =   3261.53107 [MHz]
  Nuclear repulsion =   30.040804629794245

  Charge       = -1
  Multiplicity = 1
  Electrons    = 22
  Nalpha       = 11
  Nbeta        = 11

  ==> Algorithm <==

  SCF Algorithm Type is DF.
  DIIS enabled.
  MOM disabled.
  Fractional occupation disabled.
  Guess Type is SAD.
  Energy threshold   = 1.00e-08
  Density threshold  = 1.00e-08
  Integral threshold = 1.00e-12

  ==> Primary Basis <==

  Basis Set: AUG-CC-PVTZ
    Blend: AUG-CC-PVTZ
    Number of shells: 42
    Number of basis functions: 138
    Number of Cartesian functions: 165
    Spherical Harmonics?: true
    Max angular momentum: 3

   => Loading Basis Set <=

    Name: (AUG-CC-PVTZ AUX)
    Role: JKFIT
    Keyword: DF_BASIS_SCF
    atoms 1   entry LI         line    54 file /ddmfs1b/softs/psi4conda/share/psi4/basis/def2-universal-jkfit.gbs 
    atoms 2-3 entry F          line   348 file /ddmfs1b/softs/psi4conda/share/psi4/basis/aug-cc-pvtz-jkfit.gbs 

  ==> Integral Setup <==

  DFHelper Memory: AOs need 0.043 GiB; user supplied 41.910 GiB. 
  Using in-core AOs.

  ==> MemDFJK: Density-Fitted J/K Matrices <==

    J tasked:                   Yes
    K tasked:                   Yes
    wK tasked:                   No
    OpenMP threads:              20
    Memory [MiB]:             42915
    Algorithm:                 Core
    Schwarz Cutoff:           1E-12
    Mask sparsity (%):       1.6068
    Fitting Condition:        1E-10

   => Auxiliary Basis Set <=

  Basis Set: (AUG-CC-PVTZ AUX)
    Blend: AUG-CC-PVTZ-JKFIT + DEF2-UNIVERSAL-JKFIT
    Number of shells: 77
    Number of basis functions: 259
    Number of Cartesian functions: 322
    Spherical Harmonics?: true
    Max angular momentum: 4

  Minimum eigenvalue in the overlap matrix is 4.5327360155E-04.
  Reciprocal condition number of the overlap matrix is 8.0282299876E-05.
    Using symmetric orthogonalization.

  ==> Pre-Iterations <==

  SCF Guess: Superposition of Atomic Densities via on-the-fly atomic UHF (no occupation information).

   -------------------------
    Irrep   Nso     Nmo    
   -------------------------
     A        138     138 
   -------------------------
    Total     138     138
   -------------------------

  ==> Iterations <==

                           Total Energy        Delta E     RMS |[F,P]|

   @DF-RHF iter SAD:  -205.06648419504359   -2.05066e+02   0.00000e+00 
   @DF-RHF iter   1:  -206.25674026869808   -1.19026e+00   5.50604e-03 ADIIS/DIIS
   @DF-RHF iter   2:  -206.34493255622223   -8.81923e-02   4.92801e-03 ADIIS/DIIS
   @DF-RHF iter   3:  -206.46671149226592   -1.21779e-01   1.88070e-04 ADIIS/DIIS
   @DF-RHF iter   4:  -206.46689545720560   -1.83965e-04   1.13240e-04 ADIIS/DIIS
   @DF-RHF iter   5:  -206.46696297267687   -6.75155e-05   2.51416e-05 DIIS
   @DF-RHF iter   6:  -206.46696970699185   -6.73431e-06   4.92691e-06 DIIS
   @DF-RHF iter   7:  -206.46697043819859   -7.31207e-07   1.20273e-06 DIIS
   @DF-RHF iter   8:  -206.46697048615971   -4.79611e-08   2.81637e-07 DIIS
   @DF-RHF iter   9:  -206.46697048904119   -2.88148e-09   7.20991e-08 DIIS
   @DF-RHF iter  10:  -206.46697048924761   -2.06427e-10   1.69153e-08 DIIS
   @DF-RHF iter  11:  -206.46697048925628   -8.66862e-12   2.63364e-09 DIIS
  Energy and wave function converged.


  ==> Post-Iterations <==

    Orbital Energies [Eh]
    ---------------------

    Doubly Occupied:                                                      

       1A    -25.928312     2A    -25.868808     3A     -2.219286  
       4A     -1.192012     5A     -1.112762     6A     -0.313047  
       7A     -0.291478     8A     -0.290030     9A     -0.218227  
      10A     -0.216786    11A     -0.214986  

    Virtual:                                                              

      12A      0.079177    13A      0.093194    14A      0.094088  
      15A      0.113127    16A      0.140332    17A      0.169668  
      18A      0.174259    19A      0.208809    20A      0.238323  
      21A      0.242509    22A      0.249110    23A      0.252888  
      24A      0.255065    25A      0.297018    26A      0.323336  
      27A      0.334953    28A      0.404125    29A      0.427191  
      30A      0.437128    31A      0.437497    32A      0.444653  
      33A      0.450007    34A      0.461735    35A      0.471791  
      36A      0.477359    37A      0.484995    38A      0.496037  
      39A      0.504344    40A      0.510670    41A      0.518040  
      42A      0.547283    43A      0.553464    44A      0.572091  
      45A      0.627340    46A      0.650232    47A      0.672994  
      48A      0.677208    49A      0.696000    50A      0.783736  
      51A      0.915633    52A      0.923321    53A      0.932450  
      54A      0.943007    55A      0.950246    56A      0.957863  
      57A      0.968447    58A      0.975632    59A      1.043134  
      60A      1.098753    61A      1.117328    62A      1.154268  
      63A      1.254466    64A      1.272189    65A      1.356548  
      66A      1.358900    67A      1.365052    68A      1.391076  
      69A      1.425099    70A      1.431086    71A      1.436635  
      72A      1.462734    73A      1.478762    74A      1.659952  
      75A      1.693304    76A      1.831916    77A      1.917959  
      78A      1.923792    79A      2.018431    80A      2.414722  
      81A      2.610520    82A      3.109882    83A      3.210214  
      84A      3.211936    85A      3.219914    86A      3.233709  
      87A      3.238983    88A      3.241265    89A      3.290146  
      90A      3.290174    91A      3.296372    92A      3.300740  
      93A      3.305753    94A      3.327770    95A      3.330628  
      96A      3.359645    97A      3.384773    98A      3.412788  
      99A      3.414695   100A      3.453686   101A      3.492700  
     102A      3.527465   103A      3.573439   104A      3.580136  
     105A      3.651807   106A      4.518510   107A      5.728318  
     108A      5.749343   109A      5.805291   110A      5.855443  
     111A      5.987127   112A      6.074004   113A      9.185678  
     114A      9.189217   115A      9.218269   116A      9.228543  
     117A      9.244655   118A      9.245337   119A      9.246251  
     120A      9.257816   121A      9.266381   122A      9.269390  
     123A      9.302399   124A      9.309874   125A      9.342807  
     126A      9.364184   127A      9.735040   128A      9.744589  
     129A      9.753956   130A      9.786498   131A      9.794988  
     132A      9.807060   133A      9.815728   134A      9.839160  
     135A      9.858540   136A      9.922209   137A     11.817957  
     138A     12.655049  

    Final Occupation by Irrep:
              A 
    DOCC [    11 ]
    NA   [    11 ]
    NB   [    11 ]

  @DF-RHF Final Energy:  -206.46697048925628

   => Energetics <=

    Nuclear Repulsion Energy =             30.0408046297942448
    One-Electron Energy =                -357.2840816992770669
    Two-Electron Energy =                 120.7763065802265459
    Total Energy =                       -206.4669704892562550

Computation Completed


Properties will be evaluated at   0.000000,   0.000000,   0.000000 [a0]

Properties computed using the SCF density matrix


 Multipole Moments:

 ------------------------------------------------------------------------------------
     Multipole            Electronic (a.u.)      Nuclear  (a.u.)        Total (a.u.)
 ------------------------------------------------------------------------------------

 L = 1.  Multiply by 2.5417464519 to convert [e a0] to [Debye]
 Dipole X            :        -44.5524895           40.4138492           -4.1386402
 Dipole Y            :        -29.4902055           26.9425718           -2.5476337
 Dipole Z            :          0.0000000            0.0000000            0.0000000
 Magnitude           :                                                    4.8599157

 ------------------------------------------------------------------------------------

*** tstop() called on ddmfs1 at Mon Jan 22 11:31:13 2024
Module time:
	user time   =      14.37 seconds =       0.24 minutes
	system time =       0.86 seconds =       0.01 minutes
	total time  =          1 seconds =       0.02 minutes
Total time:
	user time   =      14.37 seconds =       0.24 minutes
	system time =       0.86 seconds =       0.01 minutes
	total time  =          1 seconds =       0.02 minutes

*** tstart() called on ddmfs1
*** at Mon Jan 22 11:31:13 2024


  //>>>>>>>>>>>>>>>>>>>>>>>>>>>>>>>>>>>//
  //               DFMP2               //
  //<<<<<<<<<<<<<<<<<<<<<<<<<<<<<<<<<<<//

   => Loading Basis Set <=

    Name: (AUG-CC-PVTZ AUX)
    Role: RIFIT
    Keyword: DF_BASIS_MP2
    atoms 1   entry LI         line    90 file /ddmfs1b/softs/psi4conda/share/psi4/basis/def2-qzvpp-ri.gbs 
    atoms 2-3 entry F          line   322 file /ddmfs1b/softs/psi4conda/share/psi4/basis/aug-cc-pvtz-ri.gbs 

	 --------------------------------------------------------
	                          DF-MP2                         
	      2nd-Order Density-Fitted Moller-Plesset Theory     
	              RMP2 Wavefunction,  20 Threads             
	                                                         
	        Rob Parrish, Justin Turney, Andy Simmonett,      
	           Ed Hohenstein, and C. David Sherrill          
	 --------------------------------------------------------

   => Auxiliary Basis Set <=

  Basis Set: (AUG-CC-PVTZ AUX)
    Blend: AUG-CC-PVTZ-RI + DEF2-QZVPP-RI
    Number of shells: 83
    Number of basis functions: 313
    Number of Cartesian functions: 402
    Spherical Harmonics?: true
    Max angular momentum: 4

	 --------------------------------------------------------
	                 NBF =   138, NAUX =   313
	 --------------------------------------------------------
	   CLASS    FOCC     OCC    AOCC    AVIR     VIR    FVIR
	   PAIRS       0      11      11     127     127       0
	 --------------------------------------------------------

	-----------------------------------------------------------
	 ==================> DF-MP2 Energies <==================== 
	-----------------------------------------------------------
	 Reference Energy          =    -206.4669704892562834 [Eh]
	 Singles Energy            =      -0.0000000000000000 [Eh]
	 Same-Spin Energy          =      -0.1616661590769919 [Eh]
	 Opposite-Spin Energy      =      -0.4627044652124408 [Eh]
	 Correlation Energy        =      -0.6243706242894327 [Eh]
	 Total Energy              =    -207.0913411135457238 [Eh]
	-----------------------------------------------------------
	 ================> DF-SCS-MP2 Energies <================== 
	-----------------------------------------------------------
	 SCS Same-Spin Scale       =       0.3333333333333333 [-]
	 SCS Opposite-Spin Scale   =       1.2000000000000000 [-]
	 SCS Same-Spin Energy      =      -0.0538887196923306 [Eh]
	 SCS Opposite-Spin Energy  =      -0.5552453582549289 [Eh]
	 SCS Correlation Energy    =      -0.6091340779472596 [Eh]
	 SCS Total Energy          =    -207.0761045672035436 [Eh]
	-----------------------------------------------------------


*** tstop() called on ddmfs1 at Mon Jan 22 11:31:13 2024
Module time:
	user time   =       5.59 seconds =       0.09 minutes
	system time =       0.32 seconds =       0.01 minutes
	total time  =          0 seconds =       0.00 minutes
Total time:
	user time   =      19.97 seconds =       0.33 minutes
	system time =       1.18 seconds =       0.02 minutes
	total time  =          1 seconds =       0.02 minutes

    Psi4 stopped on: Monday, 22 January 2024 11:31AM
    Psi4 wall time for execution: 0:00:01.63

*** Psi4 exiting successfully. Buy a developer a beer!
