
    -----------------------------------------------------------------------
          Psi4: An Open-Source Ab Initio Electronic Structure Package
                               Psi4 1.8.2 release

                         Git: Rev {} zzzzzzz 


    D. G. A. Smith, L. A. Burns, A. C. Simmonett, R. M. Parrish,
    M. C. Schieber, R. Galvelis, P. Kraus, H. Kruse, R. Di Remigio,
    A. Alenaizan, A. M. James, S. Lehtola, J. P. Misiewicz, M. Scheurer,
    R. A. Shaw, J. B. Schriber, Y. Xie, Z. L. Glick, D. A. Sirianni,
    J. S. O'Brien, J. M. Waldrop, A. Kumar, E. G. Hohenstein,
    B. P. Pritchard, B. R. Brooks, H. F. Schaefer III, A. Yu. Sokolov,
    K. Patkowski, A. E. DePrince III, U. Bozkaya, R. A. King,
    F. A. Evangelista, J. M. Turney, T. D. Crawford, C. D. Sherrill,
    J. Chem. Phys. 152(18) 184108 (2020). https://doi.org/10.1063/5.0006002

                            Additional Code Authors
    E. T. Seidl, C. L. Janssen, E. F. Valeev, M. L. Leininger,
    J. F. Gonthier, R. M. Richard, H. R. McAlexander, M. Saitow, X. Wang,
    P. Verma, M. H. Lechner, A. Jiang, S. Behnle, A. G. Heide,
    M. F. Herbst, and D. L. Poole

             Previous Authors, Complete List of Code Contributors,
                       and Citations for Specific Modules
    https://github.com/psi4/psi4/blob/master/codemeta.json
    https://github.com/psi4/psi4/graphs/contributors
    http://psicode.org/psi4manual/master/introduction.html#citing-psifour

    -----------------------------------------------------------------------


    Psi4 started on: Monday, 22 January 2024 11:30AM

    Process ID: 41366
    Host:       ddmfs1
    PSIDATADIR: /ddmfs1b/softs/psi4conda/share/psi4
    Memory:     500.0 MiB
    Threads:    20
    
  ==> Input File <==

--------------------------------------------------------------------------
MEMORY 60 GB

molecule dimer {
-1 1
Gh(Li)     0.000000     0.000000     0.000000
F          0.000000     1.584155     0.000000
Gh(F)      1.900986     0.000000     0.000000

units ang
no_reorient
no_com
symmetry c1
}

set {
basis        aug-cc-pVTZ
scf_type     df
}

energy("mp2")
--------------------------------------------------------------------------

  Memory set to  55.879 GiB by Python driver.

Scratch directory: /ddmfs1a/scratch/
   => Libint2 <=

    Primary   basis highest AM E, G, H:  5, 4, 3
    Auxiliary basis highest AM E, G, H:  6, 5, 4
    Onebody   basis highest AM E, G, H:  6, 5, 4
    Solid Harmonics ordering:            gaussian

*** tstart() called on ddmfs1
*** at Mon Jan 22 11:30:41 2024

   => Loading Basis Set <=

    Name: AUG-CC-PVTZ
    Role: ORBITAL
    Keyword: BASIS
    atoms 1   entry LI         line    85 file /ddmfs1b/softs/psi4conda/share/psi4/basis/aug-cc-pvtz.gbs 
    atoms 2-3 entry F          line   377 file /ddmfs1b/softs/psi4conda/share/psi4/basis/aug-cc-pvtz.gbs 


         ---------------------------------------------------------
                                   SCF
               by Justin Turney, Rob Parrish, Andy Simmonett
                          and Daniel G. A. Smith
                              RHF Reference
                       20 Threads,  57220 MiB Core
         ---------------------------------------------------------

  ==> Geometry <==

    Molecular point group: c1
    Full point group: Cs

    Geometry (in Angstrom), charge = -1, multiplicity = 1:

       Center              X                  Y                   Z               Mass       
    ------------   -----------------  -----------------  -----------------  -----------------
      Gh(LI)          0.000000000000     0.000000000000     0.000000000000     7.016003436600
         F            0.000000000000     1.584155000000     0.000000000000    18.998403162730
      Gh(F)           1.900986000000     0.000000000000     0.000000000000    18.998403162730

  Running in c1 symmetry.

  Rotational constants: A =      0.35358  B =      0.24554  C =      0.14491 [cm^-1]
  Rotational constants: A =  10599.97290  B =   7361.09229  C =   4344.25119 [MHz]
  Nuclear repulsion =    0.000000000000000

  Charge       = -1
  Multiplicity = 1
  Electrons    = 10
  Nalpha       = 5
  Nbeta        = 5

  ==> Algorithm <==

  SCF Algorithm Type is DF.
  DIIS enabled.
  MOM disabled.
  Fractional occupation disabled.
  Guess Type is SAD.
  Energy threshold   = 1.00e-08
  Density threshold  = 1.00e-08
  Integral threshold = 1.00e-12

  ==> Primary Basis <==

  Basis Set: AUG-CC-PVTZ
    Blend: AUG-CC-PVTZ
    Number of shells: 42
    Number of basis functions: 138
    Number of Cartesian functions: 165
    Spherical Harmonics?: true
    Max angular momentum: 3

   => Loading Basis Set <=

    Name: (AUG-CC-PVTZ AUX)
    Role: JKFIT
    Keyword: DF_BASIS_SCF
    atoms 1   entry LI         line    54 file /ddmfs1b/softs/psi4conda/share/psi4/basis/def2-universal-jkfit.gbs 
    atoms 2-3 entry F          line   348 file /ddmfs1b/softs/psi4conda/share/psi4/basis/aug-cc-pvtz-jkfit.gbs 

  ==> Integral Setup <==

  DFHelper Memory: AOs need 0.044 GiB; user supplied 41.910 GiB. 
  Using in-core AOs.

  ==> MemDFJK: Density-Fitted J/K Matrices <==

    J tasked:                   Yes
    K tasked:                   Yes
    wK tasked:                   No
    OpenMP threads:              20
    Memory [MiB]:             42915
    Algorithm:                 Core
    Schwarz Cutoff:           1E-12
    Mask sparsity (%):       0.5461
    Fitting Condition:        1E-10

   => Auxiliary Basis Set <=

  Basis Set: (AUG-CC-PVTZ AUX)
    Blend: AUG-CC-PVTZ-JKFIT + DEF2-UNIVERSAL-JKFIT
    Number of shells: 77
    Number of basis functions: 259
    Number of Cartesian functions: 322
    Spherical Harmonics?: true
    Max angular momentum: 4

  Minimum eigenvalue in the overlap matrix is 4.4723621780E-04.
  Reciprocal condition number of the overlap matrix is 7.6186996978E-05.
    Using symmetric orthogonalization.

  ==> Pre-Iterations <==

  SCF Guess: Superposition of Atomic Densities via on-the-fly atomic UHF (no occupation information).

   -------------------------
    Irrep   Nso     Nmo    
   -------------------------
     A        138     138 
   -------------------------
    Total     138     138
   -------------------------

  ==> Iterations <==

                           Total Energy        Delta E     RMS |[F,P]|

   @DF-RHF iter SAD:   -98.82535133344979   -9.88254e+01   0.00000e+00 
   @DF-RHF iter   1:   -99.33781389452800   -5.12463e-01   3.95749e-03 DIIS/ADIIS
   @DF-RHF iter   2:   -99.37275701426869   -3.49431e-02   3.86664e-03 DIIS/ADIIS
   @DF-RHF iter   3:   -99.45083187049406   -7.80749e-02   1.18455e-04 DIIS/ADIIS
   @DF-RHF iter   4:   -99.45089820946468   -6.63390e-05   4.58775e-05 DIIS
   @DF-RHF iter   5:   -99.45090858493300   -1.03755e-05   3.01811e-06 DIIS
   @DF-RHF iter   6:   -99.45090868818824   -1.03255e-07   2.62768e-07 DIIS
   @DF-RHF iter   7:   -99.45090868910559   -9.17353e-10   3.26370e-08 DIIS
   @DF-RHF iter   8:   -99.45090868912951   -2.39169e-11   2.92362e-09 DIIS
  Energy and wave function converged.


  ==> Post-Iterations <==

    Orbital Energies [Eh]
    ---------------------

    Doubly Occupied:                                                      

       1A    -25.833753     2A     -1.076025     3A     -0.181000  
       4A     -0.180975     5A     -0.180968  

    Virtual:                                                              

       6A      0.086657     7A      0.093017     8A      0.095164  
       9A      0.107537    10A      0.171043    11A      0.179480  
      12A      0.188578    13A      0.220949    14A      0.248987  
      15A      0.250909    16A      0.254172    17A      0.258087  
      18A      0.261781    19A      0.325473    20A      0.342080  
      21A      0.387913    22A      0.407684    23A      0.411694  
      24A      0.414739    25A      0.421427    26A      0.466864  
      27A      0.470323    28A      0.470342    29A      0.471386  
      30A      0.507753    31A      0.518628    32A      0.529440  
      33A      0.531113    34A      0.532696    35A      0.535298  
      36A      0.547465    37A      0.561721    38A      0.587165  
      39A      0.614025    40A      0.623849    41A      0.653434  
      42A      0.785158    43A      0.887224    44A      0.943337  
      45A      0.974382    46A      0.976433    47A      0.995281  
      48A      1.014384    49A      1.014915    50A      1.026892  
      51A      1.055874    52A      1.082051    53A      1.118492  
      54A      1.140612    55A      1.167937    56A      1.218789  
      57A      1.256566    58A      1.277777    59A      1.291964  
      60A      1.323014    61A      1.328136    62A      1.345603  
      63A      1.439492    64A      1.469874    65A      1.495744  
      66A      1.517324    67A      1.529501    68A      1.657963  
      69A      1.688691    70A      1.821780    71A      1.925458  
      72A      2.021410    73A      2.131546    74A      2.255245  
      75A      2.353843    76A      2.927882    77A      3.247443  
      78A      3.259452    79A      3.297385    80A      3.320475  
      81A      3.321540    82A      3.327685    83A      3.352485  
      84A      3.355643    85A      3.364800    86A      3.369896  
      87A      3.392229    88A      3.422000    89A      3.425772  
      90A      3.488433    91A      3.533149    92A      3.542902  
      93A      3.565494    94A      3.603266    95A      3.654118  
      96A      3.717075    97A      3.808587    98A      3.858213  
      99A      3.864625   100A      3.924618   101A      3.974460  
     102A      4.026896   103A      4.181869   104A      4.249255  
     105A      5.969096   106A      6.050552   107A      6.164749  
     108A      9.294589   109A      9.305316   110A      9.349445  
     111A      9.374674   112A      9.397143   113A      9.409875  
     114A      9.415230   115A      9.841417   116A      9.863887  
     117A      9.891350   118A      9.924416   119A      9.928238  
     120A     10.184991   121A     10.380331   122A     10.381318  
     123A     10.428982   124A     10.439859   125A     10.472269  
     126A     10.487256   127A     10.592050   128A     11.651391  
     129A     13.155387   130A     13.208078   131A     13.226635  
     132A     13.284536   133A     13.300753   134A     13.350016  
     135A     14.608700   136A     14.683989   137A     14.887506  
     138A     69.061407  

    Final Occupation by Irrep:
              A 
    DOCC [     5 ]
    NA   [     5 ]
    NB   [     5 ]

  @DF-RHF Final Energy:   -99.45090868912951

   => Energetics <=

    Nuclear Repulsion Energy =              0.0000000000000000
    One-Electron Energy =                -143.9963741271833442
    Two-Electron Energy =                  44.5454654380538386
    Total Energy =                        -99.4509086891295055

Computation Completed


Properties will be evaluated at   0.000000,   0.000000,   0.000000 [a0]

Properties computed using the SCF density matrix


 Multipole Moments:

 ------------------------------------------------------------------------------------
     Multipole            Electronic (a.u.)      Nuclear  (a.u.)        Total (a.u.)
 ------------------------------------------------------------------------------------

 L = 1.  Multiply by 2.5417464519 to convert [e a0] to [Debye]
 Dipole X            :          0.0001325            0.0000000            0.0001325
 Dipole Y            :        -29.9365764           26.9425718           -2.9940046
 Dipole Z            :          0.0000000            0.0000000            0.0000000
 Magnitude           :                                                    2.9940046

 ------------------------------------------------------------------------------------

*** tstop() called on ddmfs1 at Mon Jan 22 11:30:42 2024
Module time:
	user time   =      11.91 seconds =       0.20 minutes
	system time =       0.73 seconds =       0.01 minutes
	total time  =          1 seconds =       0.02 minutes
Total time:
	user time   =      11.91 seconds =       0.20 minutes
	system time =       0.73 seconds =       0.01 minutes
	total time  =          1 seconds =       0.02 minutes

*** tstart() called on ddmfs1
*** at Mon Jan 22 11:30:42 2024


  //>>>>>>>>>>>>>>>>>>>>>>>>>>>>>>>>>>>//
  //               DFMP2               //
  //<<<<<<<<<<<<<<<<<<<<<<<<<<<<<<<<<<<//

   => Loading Basis Set <=

    Name: (AUG-CC-PVTZ AUX)
    Role: RIFIT
    Keyword: DF_BASIS_MP2
    atoms 1   entry LI         line    90 file /ddmfs1b/softs/psi4conda/share/psi4/basis/def2-qzvpp-ri.gbs 
    atoms 2-3 entry F          line   322 file /ddmfs1b/softs/psi4conda/share/psi4/basis/aug-cc-pvtz-ri.gbs 

	 --------------------------------------------------------
	                          DF-MP2                         
	      2nd-Order Density-Fitted Moller-Plesset Theory     
	              RMP2 Wavefunction,  20 Threads             
	                                                         
	        Rob Parrish, Justin Turney, Andy Simmonett,      
	           Ed Hohenstein, and C. David Sherrill          
	 --------------------------------------------------------

   => Auxiliary Basis Set <=

  Basis Set: (AUG-CC-PVTZ AUX)
    Blend: AUG-CC-PVTZ-RI + DEF2-QZVPP-RI
    Number of shells: 83
    Number of basis functions: 313
    Number of Cartesian functions: 402
    Spherical Harmonics?: true
    Max angular momentum: 4

	 --------------------------------------------------------
	                 NBF =   138, NAUX =   313
	 --------------------------------------------------------
	   CLASS    FOCC     OCC    AOCC    AVIR     VIR    FVIR
	   PAIRS       0       5       5     133     133       0
	 --------------------------------------------------------

	-----------------------------------------------------------
	 ==================> DF-MP2 Energies <==================== 
	-----------------------------------------------------------
	 Reference Energy          =     -99.4509086891295055 [Eh]
	 Singles Energy            =      -0.0000000000000000 [Eh]
	 Same-Spin Energy          =      -0.0817635792462296 [Eh]
	 Opposite-Spin Energy      =      -0.2276342362523200 [Eh]
	 Correlation Energy        =      -0.3093978154985497 [Eh]
	 Total Energy              =     -99.7603065046280619 [Eh]
	-----------------------------------------------------------
	 ================> DF-SCS-MP2 Energies <================== 
	-----------------------------------------------------------
	 SCS Same-Spin Scale       =       0.3333333333333333 [-]
	 SCS Opposite-Spin Scale   =       1.2000000000000000 [-]
	 SCS Same-Spin Energy      =      -0.0272545264154099 [Eh]
	 SCS Opposite-Spin Energy  =      -0.2731610835027841 [Eh]
	 SCS Correlation Energy    =      -0.3004156099181939 [Eh]
	 SCS Total Energy          =     -99.7513242990476954 [Eh]
	-----------------------------------------------------------


*** tstop() called on ddmfs1 at Mon Jan 22 11:30:43 2024
Module time:
	user time   =       4.85 seconds =       0.08 minutes
	system time =       0.36 seconds =       0.01 minutes
	total time  =          1 seconds =       0.02 minutes
Total time:
	user time   =      16.77 seconds =       0.28 minutes
	system time =       1.09 seconds =       0.02 minutes
	total time  =          2 seconds =       0.03 minutes

    Psi4 stopped on: Monday, 22 January 2024 11:30AM
    Psi4 wall time for execution: 0:00:01.48

*** Psi4 exiting successfully. Buy a developer a beer!
