
    -----------------------------------------------------------------------
          Psi4: An Open-Source Ab Initio Electronic Structure Package
                               Psi4 1.9 release

                         Git: Rev {} zzzzzzz 


    D. G. A. Smith, L. A. Burns, A. C. Simmonett, R. M. Parrish,
    M. C. Schieber, R. Galvelis, P. Kraus, H. Kruse, R. Di Remigio,
    A. Alenaizan, A. M. James, S. Lehtola, J. P. Misiewicz, M. Scheurer,
    R. A. Shaw, J. B. Schriber, Y. Xie, Z. L. Glick, D. A. Sirianni,
    J. S. O'Brien, J. M. Waldrop, A. Kumar, E. G. Hohenstein,
    B. P. Pritchard, B. R. Brooks, H. F. Schaefer III, A. Yu. Sokolov,
    K. Patkowski, A. E. DePrince III, U. Bozkaya, R. A. King,
    F. A. Evangelista, J. M. Turney, T. D. Crawford, C. D. Sherrill,
    J. Chem. Phys. 152(18) 184108 (2020). https://doi.org/10.1063/5.0006002

                            Additional Code Authors
    E. T. Seidl, C. L. Janssen, E. F. Valeev, M. L. Leininger,
    J. F. Gonthier, R. M. Richard, H. R. McAlexander, M. Saitow, X. Wang,
    P. Verma, M. H. Lechner, A. Jiang, S. Behnle, A. G. Heide,
    M. F. Herbst, and D. L. Poole

             Previous Authors, Complete List of Code Contributors,
                       and Citations for Specific Modules
    https://github.com/psi4/psi4/blob/master/codemeta.json
    https://github.com/psi4/psi4/graphs/contributors
    http://psicode.org/psi4manual/master/introduction.html#citing-psifour

    -----------------------------------------------------------------------


    Psi4 started on: Wednesday, 03 January 2024 07:45PM

    Process ID: 433874
    Host:       moses-razer
    PSIDATADIR: /home/kchung25/anaconda3/envs/psi4_19/share/psi4
    Memory:     500.0 MiB
    Threads:    6
    
  ==> Input File <==

--------------------------------------------------------------------------
MEMORY 60 GB

molecule dimer {
0 1
Li     0.000000     0.000000     0.000000
F      0.000000     1.584155     0.000000
--
-1 1
F      2.376232     0.000000     0.000000

units ang
no_reorient
no_com
symmetry c1
}

set {
basis        aug-cc-pVTZ
scf_type     df
}

energy("mp2", bsse_type="cp")
--------------------------------------------------------------------------

  Memory set to  55.879 GiB by Python driver.

Scratch directory: /scratch/

  //>>>>>>>>>>>>>>>>>>>>>>>>>>>>>>>>>>>>>//
  // ManyBody Setup: N-Body Levels [1, 2]//
  //<<<<<<<<<<<<<<<<<<<<<<<<<<<<<<<<<<<<<//

        Number of 1-body computations:     2
        Number of 2-body computations:     1

    -----------------------------------------------------------------------
          Psi4: An Open-Source Ab Initio Electronic Structure Package
                               Psi4 1.9 release

                         Git: Rev {} zzzzzzz 


    D. G. A. Smith, L. A. Burns, A. C. Simmonett, R. M. Parrish,
    M. C. Schieber, R. Galvelis, P. Kraus, H. Kruse, R. Di Remigio,
    A. Alenaizan, A. M. James, S. Lehtola, J. P. Misiewicz, M. Scheurer,
    R. A. Shaw, J. B. Schriber, Y. Xie, Z. L. Glick, D. A. Sirianni,
    J. S. O'Brien, J. M. Waldrop, A. Kumar, E. G. Hohenstein,
    B. P. Pritchard, B. R. Brooks, H. F. Schaefer III, A. Yu. Sokolov,
    K. Patkowski, A. E. DePrince III, U. Bozkaya, R. A. King,
    F. A. Evangelista, J. M. Turney, T. D. Crawford, C. D. Sherrill,
    J. Chem. Phys. 152(18) 184108 (2020). https://doi.org/10.1063/5.0006002

                            Additional Code Authors
    E. T. Seidl, C. L. Janssen, E. F. Valeev, M. L. Leininger,
    J. F. Gonthier, R. M. Richard, H. R. McAlexander, M. Saitow, X. Wang,
    P. Verma, M. H. Lechner, A. Jiang, S. Behnle, A. G. Heide,
    M. F. Herbst, and D. L. Poole

             Previous Authors, Complete List of Code Contributors,
                       and Citations for Specific Modules
    https://github.com/psi4/psi4/blob/master/codemeta.json
    https://github.com/psi4/psi4/graphs/contributors
    http://psicode.org/psi4manual/master/introduction.html#citing-psifour

    -----------------------------------------------------------------------


    Psi4 started on: Wednesday, 03 January 2024 07:45PM

    Process ID: 433874
    Host:       moses-razer
    PSIDATADIR: /home/kchung25/anaconda3/envs/psi4_19/share/psi4
    Memory:     55.9 GiB
    Threads:    6
    
  ==> Input QCSchema <==

--------------------------------------------------------------------------
{'driver': 'energy',
 'extras': {'psiapi': True, 'wfn_qcvars_only': True},
 'id': None,
 'keywords': {'SCF_TYPE': 'DF', 'function_kwargs': {}},
 'model': {'basis': 'aug-cc-pvtz', 'method': 'mp2'},
 'molecule': {'atom_labels': ['', '', ''],
              'atomic_numbers': [3, 9, 9],
              'extras': {},
              'fix_com': True,
              'fix_orientation': True,
              'fix_symmetry': 'c1',
              'fragment_charges': [0.0, -1.0],
              'fragment_multiplicities': [1, 1],
              'fragments': [[0, 1], [2]],
              'geometry': [0.0, 0.0, 0.0, 0.0, 2.993619090274646, 0.0, 4.490427690548906, 0.0, 0.0],
              'mass_numbers': [7, 19, 19],
              'masses': [7.0160034366, 18.99840316273, 18.99840316273],
              'molecular_charge': -1.0,
              'molecular_multiplicity': 1,
              'name': 'dimer',
              'provenance': {'creator': 'QCElemental',
                             'routine': 'qcelemental.molparse.from_string',
                             'version': '0.27.1'},
              'real': [False, False, True],
              'schema_name': 'qcschema_molecule',
              'schema_version': 2,
              'symbols': ['Li', 'F', 'F'],
              'validated': True},
 'protocols': {'stdout': True},
 'provenance': {'creator': 'QCElemental', 'routine': 'qcelemental.models.results', 'version': '0.27.1'},
 'schema_name': 'qcschema_input',
 'schema_version': 1}
--------------------------------------------------------------------------

Scratch directory: /scratch/
   => Libint2 <=

    Primary   basis highest AM E, G, H:  5, 4, 3
    Auxiliary basis highest AM E, G, H:  6, 5, 4
    Onebody   basis highest AM E, G, H:  6, 5, 4
    Solid Harmonics ordering:            gaussian

*** tstart() called on moses-razer
*** at Wed Jan  3 19:45:26 2024

   => Loading Basis Set <=

    Name: AUG-CC-PVTZ
    Role: ORBITAL
    Keyword: BASIS
    atoms 1   entry LI         line    85 file /home/kchung25/anaconda3/envs/p415env/share/psi4/basis/aug-cc-pvtz.gbs 
    atoms 2-3 entry F          line   377 file /home/kchung25/anaconda3/envs/p415env/share/psi4/basis/aug-cc-pvtz.gbs 


         ---------------------------------------------------------
                                   SCF
               by Justin Turney, Rob Parrish, Andy Simmonett
                          and Daniel G. A. Smith
                              RHF Reference
                        6 Threads,  57220 MiB Core
         ---------------------------------------------------------

  ==> Geometry <==

    Molecular point group: c1
    Full point group: Cs

    Geometry (in Bohr), charge = -1, multiplicity = 1:

       Center              X                  Y                   Z               Mass       
    ------------   -----------------  -----------------  -----------------  -----------------
      Gh(LI)          0.000000000000     0.000000000000     0.000000000000     7.016003436600
      Gh(F)           0.000000000000     2.993619090275     0.000000000000    18.998403162730
         F            4.490427690549     0.000000000000     0.000000000000    18.998403162730

  Running in c1 symmetry.

  Rotational constants: A =      0.35358  B =      0.15715  C =      0.10879 [cm^-1]
  Rotational constants: A =  10599.97290  B =   4711.10105  C =   3261.53107 [MHz]
  Nuclear repulsion =    0.000000000000000

  Charge       = -1
  Multiplicity = 1
  Electrons    = 10
  Nalpha       = 5
  Nbeta        = 5

  ==> Algorithm <==

  SCF Algorithm Type is DF.
  DIIS enabled.
  MOM disabled.
  Fractional occupation disabled.
  Guess Type is SAD.
  Energy threshold   = 1.00e-08
  Density threshold  = 1.00e-08
  Integral threshold = 1.00e-12

  ==> Primary Basis <==

  Basis Set: AUG-CC-PVTZ
    Blend: AUG-CC-PVTZ
    Number of shells: 42
    Number of basis functions: 138
    Number of Cartesian functions: 165
    Spherical Harmonics?: true
    Max angular momentum: 3

   => Loading Basis Set <=

    Name: (AUG-CC-PVTZ AUX)
    Role: JKFIT
    Keyword: DF_BASIS_SCF
    atoms 1   entry LI         line    54 file /home/kchung25/anaconda3/envs/p415env/share/psi4/basis/def2-universal-jkfit.gbs 
    atoms 2-3 entry F          line   348 file /home/kchung25/anaconda3/envs/p415env/share/psi4/basis/aug-cc-pvtz-jkfit.gbs 

  ==> Integral Setup <==

  DFHelper Memory: AOs need 0.041 GiB; user supplied 41.910 GiB. 
  Using in-core AOs.

  ==> MemDFJK: Density-Fitted J/K Matrices <==

    J tasked:                   Yes
    K tasked:                   Yes
    wK tasked:                   No
    OpenMP threads:               6
    Memory [MiB]:             42915
    Algorithm:                 Core
    Schwarz Cutoff:           1E-12
    Mask sparsity (%):       1.6068
    Fitting Condition:        1E-10

   => Auxiliary Basis Set <=

  Basis Set: (AUG-CC-PVTZ AUX)
    Blend: AUG-CC-PVTZ-JKFIT + DEF2-UNIVERSAL-JKFIT
    Number of shells: 77
    Number of basis functions: 259
    Number of Cartesian functions: 322
    Spherical Harmonics?: true
    Max angular momentum: 4

  Minimum eigenvalue in the overlap matrix is 4.5327360154E-04.
  Reciprocal condition number of the overlap matrix is 8.0282299876E-05.
    Using symmetric orthogonalization.

  ==> Pre-Iterations <==

  SCF Guess: Superposition of Atomic Densities via on-the-fly atomic UHF (no occupation information).

   -------------------------
    Irrep   Nso     Nmo    
   -------------------------
     A        138     138 
   -------------------------
    Total     138     138
   -------------------------

  ==> Iterations <==

                           Total Energy        Delta E     RMS |[F,P]|

   @DF-RHF iter SAD:   -98.82535132059868   -9.88254e+01   0.00000e+00 
   @DF-RHF iter   1:   -99.33783473502406   -5.12483e-01   3.95777e-03 DIIS/ADIIS
   @DF-RHF iter   2:   -99.37298057617510   -3.51458e-02   3.86127e-03 DIIS/ADIIS
   @DF-RHF iter   3:   -99.45078225216548   -7.78017e-02   1.18284e-04 DIIS/ADIIS
   @DF-RHF iter   4:   -99.45084797119308   -6.57190e-05   4.55914e-05 DIIS
   @DF-RHF iter   5:   -99.45085827859023   -1.03074e-05   3.18277e-06 DIIS
   @DF-RHF iter   6:   -99.45085839158834   -1.12998e-07   2.57122e-07 DIIS
   @DF-RHF iter   7:   -99.45085839245732   -8.68980e-10   3.08290e-08 DIIS
   @DF-RHF iter   8:   -99.45085839248100   -2.36753e-11   2.90182e-09 DIIS
  Energy and wave function converged.


  ==> Post-Iterations <==

    Orbital Energies [Eh]
    ---------------------

    Doubly Occupied:                                                      

       1A    -25.833820     2A     -1.076067     3A     -0.181033  
       4A     -0.180992     5A     -0.180991  

    Virtual:                                                              

       6A      0.082830     7A      0.091566     8A      0.093952  
       9A      0.113388    10A      0.160067    11A      0.170140  
      12A      0.178946    13A      0.214528    14A      0.240426  
      15A      0.241366    16A      0.251626    17A      0.258474  
      18A      0.267707    19A      0.311797    20A      0.322319  
      21A      0.364481    22A      0.398506    23A      0.406544  
      24A      0.411359    25A      0.420456    26A      0.442436  
      27A      0.458047    28A      0.461459    29A      0.468651  
      30A      0.490424    31A      0.496538    32A      0.497205  
      33A      0.511929    34A      0.521395    35A      0.522253  
      36A      0.548537    37A      0.554315    38A      0.570745  
      39A      0.582416    40A      0.628263    41A      0.663135  
      42A      0.707688    43A      0.892512    44A      0.916127  
      45A      0.919256    46A      0.965478    47A      0.983902  
      48A      0.994740    49A      1.008835    50A      1.022154  
      51A      1.030500    52A      1.043684    53A      1.096618  
      54A      1.108143    55A      1.118653    56A      1.150401  
      57A      1.199745    58A      1.241308    59A      1.288144  
      60A      1.292299    61A      1.323317    62A      1.327338  
      63A      1.364493    64A      1.398496    65A      1.433912  
      66A      1.465840    67A      1.490880    68A      1.512883  
      69A      1.702480    70A      1.739469    71A      1.799093  
      72A      1.838643    73A      1.916206    74A      2.090930  
      75A      2.334424    76A      2.485307    77A      3.254397  
      78A      3.275084    79A      3.310443    80A      3.314839  
      81A      3.320719    82A      3.324762    83A      3.328284  
      84A      3.334168    85A      3.345895    86A      3.345896  
      87A      3.362995    88A      3.373165    89A      3.390699  
      90A      3.399264    91A      3.418022    92A      3.449396  
      93A      3.527345    94A      3.551151    95A      3.595649  
      96A      3.597296    97A      3.630080    98A      3.687983  
      99A      3.868701   100A      3.922818   101A      4.052652  
     102A      4.068927   103A      4.119030   104A      4.191052  
     105A      5.763647   106A      5.788706   107A      5.940253  
     108A      9.277595   109A      9.279228   110A      9.297764  
     111A      9.302788   112A      9.327255   113A      9.328862  
     114A      9.348967   115A      9.786084   116A      9.797298  
     117A      9.868852   118A      9.880071   119A      9.893430  
     120A     10.210175   121A     10.355886   122A     10.367465  
     123A     10.404156   124A     10.421365   125A     10.437116  
     126A     10.475803   127A     10.496369   128A     11.776719  
     129A     12.136755   130A     13.206327   131A     13.224862  
     132A     13.263047   133A     13.269417   134A     13.286490  
     135A     14.691616   136A     14.740913   137A     14.917657  
     138A     69.720997  

    Final Occupation by Irrep:
              A 
    DOCC [     5 ]
    NA   [     5 ]
    NB   [     5 ]

  @DF-RHF Final Energy:   -99.45085839248100

   => Energetics <=

    Nuclear Repulsion Energy =              0.0000000000000000
    One-Electron Energy =                -143.9959106357206906
    Two-Electron Energy =                  44.5450522432397022
    Total Energy =                        -99.4508583924809955

Computation Completed


Properties will be evaluated at   0.000000,   0.000000,   0.000000 [a0]

Properties computed using the SCF density matrix


 Multipole Moments:

 ------------------------------------------------------------------------------------
     Multipole            Electronic (a.u.)      Nuclear  (a.u.)        Total (a.u.)
 ------------------------------------------------------------------------------------

 L = 1.  Multiply by 2.5417464519 to convert [e a0] to [Debye]
 Dipole X            :        -44.9035884           40.4138492           -4.4897392
 Dipole Y            :          0.0000077            0.0000000            0.0000077
 Dipole Z            :          0.0000000            0.0000000            0.0000000
 Magnitude           :                                                    4.4897392

 ------------------------------------------------------------------------------------

*** tstop() called on moses-razer at Wed Jan  3 19:45:27 2024
Module time:
	user time   =       2.75 seconds =       0.05 minutes
	system time =       0.11 seconds =       0.00 minutes
	total time  =          1 seconds =       0.02 minutes
Total time:
	user time   =       2.75 seconds =       0.05 minutes
	system time =       0.11 seconds =       0.00 minutes
	total time  =          1 seconds =       0.02 minutes

*** tstart() called on moses-razer
*** at Wed Jan  3 19:45:27 2024


  //>>>>>>>>>>>>>>>>>>>>>>>>>>>>>>>>>>>//
  //               DFMP2               //
  //<<<<<<<<<<<<<<<<<<<<<<<<<<<<<<<<<<<//

   => Loading Basis Set <=

    Name: (AUG-CC-PVTZ AUX)
    Role: RIFIT
    Keyword: DF_BASIS_MP2
    atoms 1   entry LI         line    90 file /home/kchung25/anaconda3/envs/p415env/share/psi4/basis/def2-qzvpp-ri.gbs 
    atoms 2-3 entry F          line   322 file /home/kchung25/anaconda3/envs/p415env/share/psi4/basis/aug-cc-pvtz-ri.gbs 

	 --------------------------------------------------------
	                          DF-MP2                         
	      2nd-Order Density-Fitted Moller-Plesset Theory     
	              RMP2 Wavefunction,   6 Threads             
	                                                         
	        Rob Parrish, Justin Turney, Andy Simmonett,      
	           Ed Hohenstein, and C. David Sherrill          
	 --------------------------------------------------------

   => Auxiliary Basis Set <=

  Basis Set: (AUG-CC-PVTZ AUX)
    Blend: AUG-CC-PVTZ-RI + DEF2-QZVPP-RI
    Number of shells: 83
    Number of basis functions: 313
    Number of Cartesian functions: 402
    Spherical Harmonics?: true
    Max angular momentum: 4

	 --------------------------------------------------------
	                 NBF =   138, NAUX =   313
	 --------------------------------------------------------
	   CLASS    FOCC     OCC    AOCC    AVIR     VIR    FVIR
	   PAIRS       0       5       5     133     133       0
	 --------------------------------------------------------

	-----------------------------------------------------------
	 ==================> DF-MP2 Energies <==================== 
	-----------------------------------------------------------
	 Reference Energy          =     -99.4508583924809955 [Eh]
	 Singles Energy            =      -0.0000000000000000 [Eh]
	 Same-Spin Energy          =      -0.0816661780282940 [Eh]
	 Opposite-Spin Energy      =      -0.2269052004411909 [Eh]
	 Correlation Energy        =      -0.3085713784694850 [Eh]
	 Total Energy              =     -99.7594297709504758 [Eh]
	-----------------------------------------------------------
	 ================> DF-SCS-MP2 Energies <================== 
	-----------------------------------------------------------
	 SCS Same-Spin Scale       =       0.3333333333333333 [-]
	 SCS Opposite-Spin Scale   =       1.2000000000000000 [-]
	 SCS Same-Spin Energy      =      -0.0272220593427647 [Eh]
	 SCS Opposite-Spin Energy  =      -0.2722862405294291 [Eh]
	 SCS Correlation Energy    =      -0.2995082998721938 [Eh]
	 SCS Total Energy          =     -99.7503666923531824 [Eh]
	-----------------------------------------------------------


*** tstop() called on moses-razer at Wed Jan  3 19:45:27 2024
Module time:
	user time   =       1.34 seconds =       0.02 minutes
	system time =       0.06 seconds =       0.00 minutes
	total time  =          0 seconds =       0.00 minutes
Total time:
	user time   =       4.10 seconds =       0.07 minutes
	system time =       0.17 seconds =       0.00 minutes
	total time  =          1 seconds =       0.02 minutes

    Psi4 stopped on: Wednesday, 03 January 2024 07:45PM
    Psi4 wall time for execution: 0:00:00.76


    -----------------------------------------------------------------------
          Psi4: An Open-Source Ab Initio Electronic Structure Package
                               Psi4 1.9 release

                         Git: Rev {} zzzzzzz 


    D. G. A. Smith, L. A. Burns, A. C. Simmonett, R. M. Parrish,
    M. C. Schieber, R. Galvelis, P. Kraus, H. Kruse, R. Di Remigio,
    A. Alenaizan, A. M. James, S. Lehtola, J. P. Misiewicz, M. Scheurer,
    R. A. Shaw, J. B. Schriber, Y. Xie, Z. L. Glick, D. A. Sirianni,
    J. S. O'Brien, J. M. Waldrop, A. Kumar, E. G. Hohenstein,
    B. P. Pritchard, B. R. Brooks, H. F. Schaefer III, A. Yu. Sokolov,
    K. Patkowski, A. E. DePrince III, U. Bozkaya, R. A. King,
    F. A. Evangelista, J. M. Turney, T. D. Crawford, C. D. Sherrill,
    J. Chem. Phys. 152(18) 184108 (2020). https://doi.org/10.1063/5.0006002

                            Additional Code Authors
    E. T. Seidl, C. L. Janssen, E. F. Valeev, M. L. Leininger,
    J. F. Gonthier, R. M. Richard, H. R. McAlexander, M. Saitow, X. Wang,
    P. Verma, M. H. Lechner, A. Jiang, S. Behnle, A. G. Heide,
    M. F. Herbst, and D. L. Poole

             Previous Authors, Complete List of Code Contributors,
                       and Citations for Specific Modules
    https://github.com/psi4/psi4/blob/master/codemeta.json
    https://github.com/psi4/psi4/graphs/contributors
    http://psicode.org/psi4manual/master/introduction.html#citing-psifour

    -----------------------------------------------------------------------


    Psi4 started on: Wednesday, 03 January 2024 07:45PM

    Process ID: 433874
    Host:       moses-razer
    PSIDATADIR: /home/kchung25/anaconda3/envs/psi4_19/share/psi4
    Memory:     55.9 GiB
    Threads:    6
    
  ==> Input QCSchema <==

--------------------------------------------------------------------------
{'driver': 'energy',
 'extras': {'psiapi': True, 'wfn_qcvars_only': True},
 'id': None,
 'keywords': {'SCF_TYPE': 'DF', 'function_kwargs': {}},
 'model': {'basis': 'aug-cc-pvtz', 'method': 'mp2'},
 'molecule': {'atom_labels': ['', '', ''],
              'atomic_numbers': [3, 9, 9],
              'extras': {},
              'fix_com': True,
              'fix_orientation': True,
              'fix_symmetry': 'c1',
              'fragment_charges': [0.0, 0.0],
              'fragment_multiplicities': [1, 1],
              'fragments': [[0, 1], [2]],
              'geometry': [0.0, 0.0, 0.0, 0.0, 2.993619090274646, 0.0, 4.490427690548906, 0.0, 0.0],
              'mass_numbers': [7, 19, 19],
              'masses': [7.0160034366, 18.99840316273, 18.99840316273],
              'molecular_charge': 0.0,
              'molecular_multiplicity': 1,
              'name': 'dimer',
              'provenance': {'creator': 'QCElemental',
                             'routine': 'qcelemental.molparse.from_string',
                             'version': '0.27.1'},
              'real': [True, True, False],
              'schema_name': 'qcschema_molecule',
              'schema_version': 2,
              'symbols': ['Li', 'F', 'F'],
              'validated': True},
 'protocols': {'stdout': True},
 'provenance': {'creator': 'QCElemental', 'routine': 'qcelemental.models.results', 'version': '0.27.1'},
 'schema_name': 'qcschema_input',
 'schema_version': 1}
--------------------------------------------------------------------------

Scratch directory: /scratch/
   => Libint2 <=

    Primary   basis highest AM E, G, H:  5, 4, 3
    Auxiliary basis highest AM E, G, H:  6, 5, 4
    Onebody   basis highest AM E, G, H:  6, 5, 4
    Solid Harmonics ordering:            gaussian

*** tstart() called on moses-razer
*** at Wed Jan  3 19:45:27 2024

   => Loading Basis Set <=

    Name: AUG-CC-PVTZ
    Role: ORBITAL
    Keyword: BASIS
    atoms 1   entry LI         line    85 file /home/kchung25/anaconda3/envs/p415env/share/psi4/basis/aug-cc-pvtz.gbs 
    atoms 2-3 entry F          line   377 file /home/kchung25/anaconda3/envs/p415env/share/psi4/basis/aug-cc-pvtz.gbs 


         ---------------------------------------------------------
                                   SCF
               by Justin Turney, Rob Parrish, Andy Simmonett
                          and Daniel G. A. Smith
                              RHF Reference
                        6 Threads,  57220 MiB Core
         ---------------------------------------------------------

  ==> Geometry <==

    Molecular point group: c1
    Full point group: Cs

    Geometry (in Bohr), charge = 0, multiplicity = 1:

       Center              X                  Y                   Z               Mass       
    ------------   -----------------  -----------------  -----------------  -----------------
         LI           0.000000000000     0.000000000000     0.000000000000     7.016003436600
         F            0.000000000000     2.993619090275     0.000000000000    18.998403162730
      Gh(F)           4.490427690549     0.000000000000     0.000000000000    18.998403162730

  Running in c1 symmetry.

  Rotational constants: A =      0.35358  B =      0.15715  C =      0.10879 [cm^-1]
  Rotational constants: A =  10599.97290  B =   4711.10105  C =   3261.53107 [MHz]
  Nuclear repulsion =    9.019183531971304

  Charge       = 0
  Multiplicity = 1
  Electrons    = 12
  Nalpha       = 6
  Nbeta        = 6

  ==> Algorithm <==

  SCF Algorithm Type is DF.
  DIIS enabled.
  MOM disabled.
  Fractional occupation disabled.
  Guess Type is SAD.
  Energy threshold   = 1.00e-08
  Density threshold  = 1.00e-08
  Integral threshold = 1.00e-12

  ==> Primary Basis <==

  Basis Set: AUG-CC-PVTZ
    Blend: AUG-CC-PVTZ
    Number of shells: 42
    Number of basis functions: 138
    Number of Cartesian functions: 165
    Spherical Harmonics?: true
    Max angular momentum: 3

   => Loading Basis Set <=

    Name: (AUG-CC-PVTZ AUX)
    Role: JKFIT
    Keyword: DF_BASIS_SCF
    atoms 1   entry LI         line    54 file /home/kchung25/anaconda3/envs/p415env/share/psi4/basis/def2-universal-jkfit.gbs 
    atoms 2-3 entry F          line   348 file /home/kchung25/anaconda3/envs/p415env/share/psi4/basis/aug-cc-pvtz-jkfit.gbs 

  ==> Integral Setup <==

  DFHelper Memory: AOs need 0.041 GiB; user supplied 41.910 GiB. 
  Using in-core AOs.

  ==> MemDFJK: Density-Fitted J/K Matrices <==

    J tasked:                   Yes
    K tasked:                   Yes
    wK tasked:                   No
    OpenMP threads:               6
    Memory [MiB]:             42915
    Algorithm:                 Core
    Schwarz Cutoff:           1E-12
    Mask sparsity (%):       1.6068
    Fitting Condition:        1E-10

   => Auxiliary Basis Set <=

  Basis Set: (AUG-CC-PVTZ AUX)
    Blend: AUG-CC-PVTZ-JKFIT + DEF2-UNIVERSAL-JKFIT
    Number of shells: 77
    Number of basis functions: 259
    Number of Cartesian functions: 322
    Spherical Harmonics?: true
    Max angular momentum: 4

  Minimum eigenvalue in the overlap matrix is 4.5327360154E-04.
  Reciprocal condition number of the overlap matrix is 8.0282299876E-05.
    Using symmetric orthogonalization.

  ==> Pre-Iterations <==

  SCF Guess: Superposition of Atomic Densities via on-the-fly atomic UHF (no occupation information).

   -------------------------
    Irrep   Nso     Nmo    
   -------------------------
     A        138     138 
   -------------------------
    Total     138     138
   -------------------------

  ==> Iterations <==

                           Total Energy        Delta E     RMS |[F,P]|

   @DF-RHF iter SAD:  -106.21045297483197   -1.06210e+02   0.00000e+00 
   @DF-RHF iter   1:  -106.87984704334174   -6.69394e-01   3.93046e-03 DIIS/ADIIS
   @DF-RHF iter   2:  -106.92870465089756   -4.88576e-02   3.32521e-03 DIIS/ADIIS
   @DF-RHF iter   3:  -106.98265974242425   -5.39551e-02   1.09821e-04 DIIS/ADIIS
   @DF-RHF iter   4:  -106.98272953519340   -6.97928e-05   2.36444e-05 DIIS
   @DF-RHF iter   5:  -106.98273430322143   -4.76803e-06   3.69538e-06 DIIS
   @DF-RHF iter   6:  -106.98273461186147   -3.08640e-07   8.25572e-07 DIIS
   @DF-RHF iter   7:  -106.98273463009170   -1.82302e-08   1.74500e-07 DIIS
   @DF-RHF iter   8:  -106.98273463074378   -6.52079e-10   2.86079e-08 DIIS
   @DF-RHF iter   9:  -106.98273463076075   -1.69678e-11   5.81411e-09 DIIS
  Energy and wave function converged.


  ==> Post-Iterations <==

    Orbital Energies [Eh]
    ---------------------

    Doubly Occupied:                                                      

       1A    -26.113800     2A     -2.437734     3A     -1.377067  
       4A     -0.497200     5A     -0.473951     6A     -0.473911  

    Virtual:                                                              

       7A     -0.010692     8A      0.016457     9A      0.016612  
      10A      0.022136    11A      0.029376    12A      0.054305  
      13A      0.055093    14A      0.074417    15A      0.108151  
      16A      0.111014    17A      0.116717    18A      0.121926  
      19A      0.123644    20A      0.142366    21A      0.157861  
      22A      0.163972    23A      0.204409    24A      0.234105  
      25A      0.241207    26A      0.242097    27A      0.292635  
      28A      0.294050    29A      0.294489    30A      0.295489  
      31A      0.307926    32A      0.326966    33A      0.327095  
      34A      0.341212    35A      0.359419    36A      0.361271  
      37A      0.367956    38A      0.368427    39A      0.394156  
      40A      0.414942    41A      0.437085    42A      0.449525  
      43A      0.488669    44A      0.489813    45A      0.540376  
      46A      0.719569    47A      0.734716    48A      0.736265  
      49A      0.744142    50A      0.747778    51A      0.748595  
      52A      0.750822    53A      0.774098    54A      0.790485  
      55A      0.813537    56A      0.892366    57A      0.919588  
      58A      0.933082    59A      0.946649    60A      0.972894  
      61A      1.018341    62A      1.019044    63A      1.040259  
      64A      1.167805    65A      1.181261    66A      1.212095  
      67A      1.229891    68A      1.251481    69A      1.255729  
      70A      1.268804    71A      1.318021    72A      1.364275  
      73A      1.732630    74A      1.737568    75A      1.798669  
      76A      2.399213    77A      2.908273    78A      2.991713  
      79A      3.014715    80A      3.031942    81A      3.033596  
      82A      3.046487    83A      3.053708    84A      3.058047  
      85A      3.068037    86A      3.068810    87A      3.079818  
      88A      3.088875    89A      3.110628    90A      3.114857  
      91A      3.164268    92A      3.201949    93A      3.229976  
      94A      3.245878    95A      3.257152    96A      3.321567  
      97A      3.372901    98A      3.394353    99A      3.413661  
     100A      3.571987   101A      3.598196   102A      3.701470  
     103A      3.749902   104A      3.798438   105A      4.325783  
     106A      5.671595   107A      5.718713   108A      5.881450  
     109A      9.003536   110A      9.010162   111A      9.049725  
     112A      9.056428   113A      9.081221   114A      9.095464  
     115A      9.174408   116A      9.560030   117A      9.574142  
     118A      9.608751   119A      9.626058   120A      9.638891  
     121A      9.696753   122A     10.129931   123A     10.131042  
     124A     10.148916   125A     10.158082   126A     10.182026  
     127A     10.189063   128A     10.212812   129A     12.434181  
     130A     12.941382   131A     12.952993   132A     13.014967  
     133A     13.031567   134A     13.042394   135A     14.267039  
     136A     14.293248   137A     14.444312   138A     67.972239  

    Final Occupation by Irrep:
              A 
    DOCC [     6 ]
    NA   [     6 ]
    NB   [     6 ]

  @DF-RHF Final Energy:  -106.98273463076075

   => Energetics <=

    Nuclear Repulsion Energy =              9.0191835319713043
    One-Electron Energy =                -169.2565096900045774
    Two-Electron Energy =                  53.2545915272725452
    Total Energy =                       -106.9827346307607456

Computation Completed


Properties will be evaluated at   0.000000,   0.000000,   0.000000 [a0]

Properties computed using the SCF density matrix


 Multipole Moments:

 ------------------------------------------------------------------------------------
     Multipole            Electronic (a.u.)      Nuclear  (a.u.)        Total (a.u.)
 ------------------------------------------------------------------------------------

 L = 1.  Multiply by 2.5417464519 to convert [e a0] to [Debye]
 Dipole X            :         -0.0000286            0.0000000           -0.0000286
 Dipole Y            :        -29.5193248           26.9425718           -2.5767530
 Dipole Z            :         -0.0000000            0.0000000           -0.0000000
 Magnitude           :                                                    2.5767530

 ------------------------------------------------------------------------------------

*** tstop() called on moses-razer at Wed Jan  3 19:45:28 2024
Module time:
	user time   =       2.94 seconds =       0.05 minutes
	system time =       0.06 seconds =       0.00 minutes
	total time  =          1 seconds =       0.02 minutes
Total time:
	user time   =       7.30 seconds =       0.12 minutes
	system time =       0.23 seconds =       0.00 minutes
	total time  =          2 seconds =       0.03 minutes

*** tstart() called on moses-razer
*** at Wed Jan  3 19:45:28 2024


  //>>>>>>>>>>>>>>>>>>>>>>>>>>>>>>>>>>>//
  //               DFMP2               //
  //<<<<<<<<<<<<<<<<<<<<<<<<<<<<<<<<<<<//

   => Loading Basis Set <=

    Name: (AUG-CC-PVTZ AUX)
    Role: RIFIT
    Keyword: DF_BASIS_MP2
    atoms 1   entry LI         line    90 file /home/kchung25/anaconda3/envs/p415env/share/psi4/basis/def2-qzvpp-ri.gbs 
    atoms 2-3 entry F          line   322 file /home/kchung25/anaconda3/envs/p415env/share/psi4/basis/aug-cc-pvtz-ri.gbs 

	 --------------------------------------------------------
	                          DF-MP2                         
	      2nd-Order Density-Fitted Moller-Plesset Theory     
	              RMP2 Wavefunction,   6 Threads             
	                                                         
	        Rob Parrish, Justin Turney, Andy Simmonett,      
	           Ed Hohenstein, and C. David Sherrill          
	 --------------------------------------------------------

   => Auxiliary Basis Set <=

  Basis Set: (AUG-CC-PVTZ AUX)
    Blend: AUG-CC-PVTZ-RI + DEF2-QZVPP-RI
    Number of shells: 83
    Number of basis functions: 313
    Number of Cartesian functions: 402
    Spherical Harmonics?: true
    Max angular momentum: 4

	 --------------------------------------------------------
	                 NBF =   138, NAUX =   313
	 --------------------------------------------------------
	   CLASS    FOCC     OCC    AOCC    AVIR     VIR    FVIR
	   PAIRS       0       6       6     132     132       0
	 --------------------------------------------------------

	-----------------------------------------------------------
	 ==================> DF-MP2 Energies <==================== 
	-----------------------------------------------------------
	 Reference Energy          =    -106.9827346307607456 [Eh]
	 Singles Energy            =      -0.0000000000000000 [Eh]
	 Same-Spin Energy          =      -0.0795902764515905 [Eh]
	 Opposite-Spin Energy      =      -0.2355641208136360 [Eh]
	 Correlation Energy        =      -0.3151543972652265 [Eh]
	 Total Energy              =    -107.2978890280259776 [Eh]
	-----------------------------------------------------------
	 ================> DF-SCS-MP2 Energies <================== 
	-----------------------------------------------------------
	 SCS Same-Spin Scale       =       0.3333333333333333 [-]
	 SCS Opposite-Spin Scale   =       1.2000000000000000 [-]
	 SCS Same-Spin Energy      =      -0.0265300921505302 [Eh]
	 SCS Opposite-Spin Energy  =      -0.2826769449763632 [Eh]
	 SCS Correlation Energy    =      -0.3092070371268933 [Eh]
	 SCS Total Energy          =    -107.2919416678876416 [Eh]
	-----------------------------------------------------------


*** tstop() called on moses-razer at Wed Jan  3 19:45:28 2024
Module time:
	user time   =       1.25 seconds =       0.02 minutes
	system time =       0.02 seconds =       0.00 minutes
	total time  =          0 seconds =       0.00 minutes
Total time:
	user time   =       8.56 seconds =       0.14 minutes
	system time =       0.25 seconds =       0.00 minutes
	total time  =          2 seconds =       0.03 minutes

    Psi4 stopped on: Wednesday, 03 January 2024 07:45PM
    Psi4 wall time for execution: 0:00:00.74


    -----------------------------------------------------------------------
          Psi4: An Open-Source Ab Initio Electronic Structure Package
                               Psi4 1.9 release

                         Git: Rev {} zzzzzzz 


    D. G. A. Smith, L. A. Burns, A. C. Simmonett, R. M. Parrish,
    M. C. Schieber, R. Galvelis, P. Kraus, H. Kruse, R. Di Remigio,
    A. Alenaizan, A. M. James, S. Lehtola, J. P. Misiewicz, M. Scheurer,
    R. A. Shaw, J. B. Schriber, Y. Xie, Z. L. Glick, D. A. Sirianni,
    J. S. O'Brien, J. M. Waldrop, A. Kumar, E. G. Hohenstein,
    B. P. Pritchard, B. R. Brooks, H. F. Schaefer III, A. Yu. Sokolov,
    K. Patkowski, A. E. DePrince III, U. Bozkaya, R. A. King,
    F. A. Evangelista, J. M. Turney, T. D. Crawford, C. D. Sherrill,
    J. Chem. Phys. 152(18) 184108 (2020). https://doi.org/10.1063/5.0006002

                            Additional Code Authors
    E. T. Seidl, C. L. Janssen, E. F. Valeev, M. L. Leininger,
    J. F. Gonthier, R. M. Richard, H. R. McAlexander, M. Saitow, X. Wang,
    P. Verma, M. H. Lechner, A. Jiang, S. Behnle, A. G. Heide,
    M. F. Herbst, and D. L. Poole

             Previous Authors, Complete List of Code Contributors,
                       and Citations for Specific Modules
    https://github.com/psi4/psi4/blob/master/codemeta.json
    https://github.com/psi4/psi4/graphs/contributors
    http://psicode.org/psi4manual/master/introduction.html#citing-psifour

    -----------------------------------------------------------------------


    Psi4 started on: Wednesday, 03 January 2024 07:45PM

    Process ID: 433874
    Host:       moses-razer
    PSIDATADIR: /home/kchung25/anaconda3/envs/psi4_19/share/psi4
    Memory:     55.9 GiB
    Threads:    6
    
  ==> Input QCSchema <==

--------------------------------------------------------------------------
{'driver': 'energy',
 'extras': {'psiapi': True, 'wfn_qcvars_only': True},
 'id': None,
 'keywords': {'SCF_TYPE': 'DF', 'function_kwargs': {}},
 'model': {'basis': 'aug-cc-pvtz', 'method': 'mp2'},
 'molecule': {'atom_labels': ['', '', ''],
              'atomic_numbers': [3, 9, 9],
              'extras': {},
              'fix_com': True,
              'fix_orientation': True,
              'fix_symmetry': 'c1',
              'fragment_charges': [0.0, -1.0],
              'fragment_multiplicities': [1, 1],
              'fragments': [[0, 1], [2]],
              'geometry': [0.0, 0.0, 0.0, 0.0, 2.993619090274646, 0.0, 4.490427690548906, 0.0, 0.0],
              'mass_numbers': [7, 19, 19],
              'masses': [7.0160034366, 18.99840316273, 18.99840316273],
              'molecular_charge': -1.0,
              'molecular_multiplicity': 1,
              'name': 'dimer',
              'provenance': {'creator': 'QCElemental',
                             'routine': 'qcelemental.molparse.from_string',
                             'version': '0.27.1'},
              'real': [True, True, True],
              'schema_name': 'qcschema_molecule',
              'schema_version': 2,
              'symbols': ['Li', 'F', 'F'],
              'validated': True},
 'protocols': {'stdout': True},
 'provenance': {'creator': 'QCElemental', 'routine': 'qcelemental.models.results', 'version': '0.27.1'},
 'schema_name': 'qcschema_input',
 'schema_version': 1}
--------------------------------------------------------------------------

Scratch directory: /scratch/
   => Libint2 <=

    Primary   basis highest AM E, G, H:  5, 4, 3
    Auxiliary basis highest AM E, G, H:  6, 5, 4
    Onebody   basis highest AM E, G, H:  6, 5, 4
    Solid Harmonics ordering:            gaussian

*** tstart() called on moses-razer
*** at Wed Jan  3 19:45:28 2024

   => Loading Basis Set <=

    Name: AUG-CC-PVTZ
    Role: ORBITAL
    Keyword: BASIS
    atoms 1   entry LI         line    85 file /home/kchung25/anaconda3/envs/p415env/share/psi4/basis/aug-cc-pvtz.gbs 
    atoms 2-3 entry F          line   377 file /home/kchung25/anaconda3/envs/p415env/share/psi4/basis/aug-cc-pvtz.gbs 


         ---------------------------------------------------------
                                   SCF
               by Justin Turney, Rob Parrish, Andy Simmonett
                          and Daniel G. A. Smith
                              RHF Reference
                        6 Threads,  57220 MiB Core
         ---------------------------------------------------------

  ==> Geometry <==

    Molecular point group: c1
    Full point group: Cs

    Geometry (in Bohr), charge = -1, multiplicity = 1:

       Center              X                  Y                   Z               Mass       
    ------------   -----------------  -----------------  -----------------  -----------------
         LI           0.000000000000     0.000000000000     0.000000000000     7.016003436600
         F            0.000000000000     2.993619090275     0.000000000000    18.998403162730
         F            4.490427690549     0.000000000000     0.000000000000    18.998403162730

  Running in c1 symmetry.

  Rotational constants: A =      0.35358  B =      0.15715  C =      0.10879 [cm^-1]
  Rotational constants: A =  10599.97290  B =   4711.10105  C =   3261.53107 [MHz]
  Nuclear repulsion =   30.040804629794245

  Charge       = -1
  Multiplicity = 1
  Electrons    = 22
  Nalpha       = 11
  Nbeta        = 11

  ==> Algorithm <==

  SCF Algorithm Type is DF.
  DIIS enabled.
  MOM disabled.
  Fractional occupation disabled.
  Guess Type is SAD.
  Energy threshold   = 1.00e-08
  Density threshold  = 1.00e-08
  Integral threshold = 1.00e-12

  ==> Primary Basis <==

  Basis Set: AUG-CC-PVTZ
    Blend: AUG-CC-PVTZ
    Number of shells: 42
    Number of basis functions: 138
    Number of Cartesian functions: 165
    Spherical Harmonics?: true
    Max angular momentum: 3

   => Loading Basis Set <=

    Name: (AUG-CC-PVTZ AUX)
    Role: JKFIT
    Keyword: DF_BASIS_SCF
    atoms 1   entry LI         line    54 file /home/kchung25/anaconda3/envs/p415env/share/psi4/basis/def2-universal-jkfit.gbs 
    atoms 2-3 entry F          line   348 file /home/kchung25/anaconda3/envs/p415env/share/psi4/basis/aug-cc-pvtz-jkfit.gbs 

  ==> Integral Setup <==

  DFHelper Memory: AOs need 0.041 GiB; user supplied 41.910 GiB. 
  Using in-core AOs.

  ==> MemDFJK: Density-Fitted J/K Matrices <==

    J tasked:                   Yes
    K tasked:                   Yes
    wK tasked:                   No
    OpenMP threads:               6
    Memory [MiB]:             42915
    Algorithm:                 Core
    Schwarz Cutoff:           1E-12
    Mask sparsity (%):       1.6068
    Fitting Condition:        1E-10

   => Auxiliary Basis Set <=

  Basis Set: (AUG-CC-PVTZ AUX)
    Blend: AUG-CC-PVTZ-JKFIT + DEF2-UNIVERSAL-JKFIT
    Number of shells: 77
    Number of basis functions: 259
    Number of Cartesian functions: 322
    Spherical Harmonics?: true
    Max angular momentum: 4

  Minimum eigenvalue in the overlap matrix is 4.5327360154E-04.
  Reciprocal condition number of the overlap matrix is 8.0282299876E-05.
    Using symmetric orthogonalization.

  ==> Pre-Iterations <==

  SCF Guess: Superposition of Atomic Densities via on-the-fly atomic UHF (no occupation information).

   -------------------------
    Irrep   Nso     Nmo    
   -------------------------
     A        138     138 
   -------------------------
    Total     138     138
   -------------------------

  ==> Iterations <==

                           Total Energy        Delta E     RMS |[F,P]|

   @DF-RHF iter SAD:  -205.06648419502966   -2.05066e+02   0.00000e+00 
   @DF-RHF iter   1:  -206.25674026868253   -1.19026e+00   5.50604e-03 DIIS/ADIIS
   @DF-RHF iter   2:  -206.34493255620632   -8.81923e-02   4.92801e-03 DIIS/ADIIS
   @DF-RHF iter   3:  -206.46671149225031   -1.21779e-01   1.88070e-04 DIIS/ADIIS
   @DF-RHF iter   4:  -206.46689545718971   -1.83965e-04   1.13240e-04 DIIS/ADIIS
   @DF-RHF iter   5:  -206.46696297266141   -6.75155e-05   2.51416e-05 DIIS
   @DF-RHF iter   6:  -206.46696970697636   -6.73431e-06   4.92691e-06 DIIS
   @DF-RHF iter   7:  -206.46697043818295   -7.31207e-07   1.20273e-06 DIIS
   @DF-RHF iter   8:  -206.46697048614377   -4.79608e-08   2.81637e-07 DIIS
   @DF-RHF iter   9:  -206.46697048902516   -2.88139e-09   7.20991e-08 DIIS
   @DF-RHF iter  10:  -206.46697048923210   -2.06938e-10   1.69153e-08 DIIS
   @DF-RHF iter  11:  -206.46697048924065   -8.55493e-12   2.63364e-09 DIIS
  Energy and wave function converged.


  ==> Post-Iterations <==

    Orbital Energies [Eh]
    ---------------------

    Doubly Occupied:                                                      

       1A    -25.928312     2A    -25.868808     3A     -2.219286  
       4A     -1.192012     5A     -1.112762     6A     -0.313047  
       7A     -0.291478     8A     -0.290030     9A     -0.218227  
      10A     -0.216786    11A     -0.214986  

    Virtual:                                                              

      12A      0.079177    13A      0.093194    14A      0.094088  
      15A      0.113127    16A      0.140332    17A      0.169668  
      18A      0.174259    19A      0.208809    20A      0.238323  
      21A      0.242509    22A      0.249110    23A      0.252888  
      24A      0.255065    25A      0.297018    26A      0.323336  
      27A      0.334953    28A      0.404125    29A      0.427191  
      30A      0.437128    31A      0.437497    32A      0.444653  
      33A      0.450007    34A      0.461735    35A      0.471791  
      36A      0.477359    37A      0.484995    38A      0.496037  
      39A      0.504344    40A      0.510670    41A      0.518040  
      42A      0.547283    43A      0.553464    44A      0.572091  
      45A      0.627340    46A      0.650232    47A      0.672994  
      48A      0.677208    49A      0.696000    50A      0.783736  
      51A      0.915633    52A      0.923321    53A      0.932450  
      54A      0.943007    55A      0.950246    56A      0.957863  
      57A      0.968447    58A      0.975632    59A      1.043134  
      60A      1.098753    61A      1.117328    62A      1.154268  
      63A      1.254466    64A      1.272189    65A      1.356548  
      66A      1.358900    67A      1.365052    68A      1.391076  
      69A      1.425099    70A      1.431086    71A      1.436635  
      72A      1.462734    73A      1.478762    74A      1.659952  
      75A      1.693304    76A      1.831916    77A      1.917959  
      78A      1.923792    79A      2.018431    80A      2.414722  
      81A      2.610520    82A      3.109882    83A      3.210214  
      84A      3.211936    85A      3.219914    86A      3.233709  
      87A      3.238983    88A      3.241265    89A      3.290146  
      90A      3.290174    91A      3.296372    92A      3.300740  
      93A      3.305753    94A      3.327770    95A      3.330628  
      96A      3.359645    97A      3.384773    98A      3.412788  
      99A      3.414695   100A      3.453686   101A      3.492700  
     102A      3.527465   103A      3.573439   104A      3.580136  
     105A      3.651807   106A      4.518510   107A      5.728318  
     108A      5.749343   109A      5.805291   110A      5.855443  
     111A      5.987127   112A      6.074004   113A      9.185678  
     114A      9.189217   115A      9.218269   116A      9.228543  
     117A      9.244655   118A      9.245337   119A      9.246251  
     120A      9.257816   121A      9.266381   122A      9.269390  
     123A      9.302399   124A      9.309874   125A      9.342807  
     126A      9.364184   127A      9.735040   128A      9.744589  
     129A      9.753956   130A      9.786498   131A      9.794988  
     132A      9.807060   133A      9.815728   134A      9.839160  
     135A      9.858540   136A      9.922209   137A     11.817957  
     138A     12.655049  

    Final Occupation by Irrep:
              A 
    DOCC [    11 ]
    NA   [    11 ]
    NB   [    11 ]

  @DF-RHF Final Energy:  -206.46697048924065

   => Energetics <=

    Nuclear Repulsion Energy =             30.0408046297942448
    One-Electron Energy =                -357.2840816992733153
    Two-Electron Energy =                 120.7763065802384119
    Total Energy =                       -206.4669704892406514

Computation Completed


Properties will be evaluated at   0.000000,   0.000000,   0.000000 [a0]

Properties computed using the SCF density matrix


 Multipole Moments:

 ------------------------------------------------------------------------------------
     Multipole            Electronic (a.u.)      Nuclear  (a.u.)        Total (a.u.)
 ------------------------------------------------------------------------------------

 L = 1.  Multiply by 2.5417464519 to convert [e a0] to [Debye]
 Dipole X            :        -44.5524895           40.4138492           -4.1386402
 Dipole Y            :        -29.4902055           26.9425718           -2.5476337
 Dipole Z            :          0.0000000            0.0000000            0.0000000
 Magnitude           :                                                    4.8599157

 ------------------------------------------------------------------------------------

*** tstop() called on moses-razer at Wed Jan  3 19:45:28 2024
Module time:
	user time   =       3.15 seconds =       0.05 minutes
	system time =       0.04 seconds =       0.00 minutes
	total time  =          0 seconds =       0.00 minutes
Total time:
	user time   =      11.97 seconds =       0.20 minutes
	system time =       0.29 seconds =       0.00 minutes
	total time  =          2 seconds =       0.03 minutes

*** tstart() called on moses-razer
*** at Wed Jan  3 19:45:28 2024


  //>>>>>>>>>>>>>>>>>>>>>>>>>>>>>>>>>>>//
  //               DFMP2               //
  //<<<<<<<<<<<<<<<<<<<<<<<<<<<<<<<<<<<//

   => Loading Basis Set <=

    Name: (AUG-CC-PVTZ AUX)
    Role: RIFIT
    Keyword: DF_BASIS_MP2
    atoms 1   entry LI         line    90 file /home/kchung25/anaconda3/envs/p415env/share/psi4/basis/def2-qzvpp-ri.gbs 
    atoms 2-3 entry F          line   322 file /home/kchung25/anaconda3/envs/p415env/share/psi4/basis/aug-cc-pvtz-ri.gbs 

	 --------------------------------------------------------
	                          DF-MP2                         
	      2nd-Order Density-Fitted Moller-Plesset Theory     
	              RMP2 Wavefunction,   6 Threads             
	                                                         
	        Rob Parrish, Justin Turney, Andy Simmonett,      
	           Ed Hohenstein, and C. David Sherrill          
	 --------------------------------------------------------

   => Auxiliary Basis Set <=

  Basis Set: (AUG-CC-PVTZ AUX)
    Blend: AUG-CC-PVTZ-RI + DEF2-QZVPP-RI
    Number of shells: 83
    Number of basis functions: 313
    Number of Cartesian functions: 402
    Spherical Harmonics?: true
    Max angular momentum: 4

	 --------------------------------------------------------
	                 NBF =   138, NAUX =   313
	 --------------------------------------------------------
	   CLASS    FOCC     OCC    AOCC    AVIR     VIR    FVIR
	   PAIRS       0      11      11     127     127       0
	 --------------------------------------------------------

	-----------------------------------------------------------
	 ==================> DF-MP2 Energies <==================== 
	-----------------------------------------------------------
	 Reference Energy          =    -206.4669704892406514 [Eh]
	 Singles Energy            =      -0.0000000000000000 [Eh]
	 Same-Spin Energy          =      -0.1616661590769963 [Eh]
	 Opposite-Spin Energy      =      -0.4627044652131737 [Eh]
	 Correlation Energy        =      -0.6243706242901701 [Eh]
	 Total Energy              =    -207.0913411135308309 [Eh]
	-----------------------------------------------------------
	 ================> DF-SCS-MP2 Energies <================== 
	-----------------------------------------------------------
	 SCS Same-Spin Scale       =       0.3333333333333333 [-]
	 SCS Opposite-Spin Scale   =       1.2000000000000000 [-]
	 SCS Same-Spin Energy      =      -0.0538887196923321 [Eh]
	 SCS Opposite-Spin Energy  =      -0.5552453582558085 [Eh]
	 SCS Correlation Energy    =      -0.6091340779481406 [Eh]
	 SCS Total Energy          =    -207.0761045671887928 [Eh]
	-----------------------------------------------------------


*** tstop() called on moses-razer at Wed Jan  3 19:45:29 2024
Module time:
	user time   =       1.28 seconds =       0.02 minutes
	system time =       0.04 seconds =       0.00 minutes
	total time  =          1 seconds =       0.02 minutes
Total time:
	user time   =      13.26 seconds =       0.22 minutes
	system time =       0.33 seconds =       0.01 minutes
	total time  =          3 seconds =       0.05 minutes

    Psi4 stopped on: Wednesday, 03 January 2024 07:45PM
    Psi4 wall time for execution: 0:00:00.78


  //>>>>>>>>>>>>>>>>>>>>>>>>>>>>>>>>>>>//
  //          ManyBody Results         //
  //<<<<<<<<<<<<<<<<<<<<<<<<<<<<<<<<<<<//


   ==> N-Body: Counterpoise Corrected (CP) energies <==

        n-Body     Total Energy            Interaction Energy                          N-body Contribution to Interaction Energy
                   [Eh]                    [Eh]                  [kcal/mol]            [Eh]                  [kcal/mol]
             1  N/A                         0.000000000000        0.000000000000        0.000000000000        0.000000000000
  FULL/RTN   2  N/A                        -0.034022314554      -21.349324702720       -0.034022314554      -21.349324702720


    Psi4 stopped on: Wednesday, 03 January 2024 07:45PM
    Psi4 wall time for execution: 0:00:03.83

*** Psi4 exiting successfully. Buy a developer a beer!
