
    -----------------------------------------------------------------------
          Psi4: An Open-Source Ab Initio Electronic Structure Package
                               Psi4 1.8.2 release

                         Git: Rev {} zzzzzzz 


    D. G. A. Smith, L. A. Burns, A. C. Simmonett, R. M. Parrish,
    M. C. Schieber, R. Galvelis, P. Kraus, H. Kruse, R. Di Remigio,
    A. Alenaizan, A. M. James, S. Lehtola, J. P. Misiewicz, M. Scheurer,
    R. A. Shaw, J. B. Schriber, Y. Xie, Z. L. Glick, D. A. Sirianni,
    J. S. O'Brien, J. M. Waldrop, A. Kumar, E. G. Hohenstein,
    B. P. Pritchard, B. R. Brooks, H. F. Schaefer III, A. Yu. Sokolov,
    K. Patkowski, A. E. DePrince III, U. Bozkaya, R. A. King,
    F. A. Evangelista, J. M. Turney, T. D. Crawford, C. D. Sherrill,
    J. Chem. Phys. 152(18) 184108 (2020). https://doi.org/10.1063/5.0006002

                            Additional Code Authors
    E. T. Seidl, C. L. Janssen, E. F. Valeev, M. L. Leininger,
    J. F. Gonthier, R. M. Richard, H. R. McAlexander, M. Saitow, X. Wang,
    P. Verma, M. H. Lechner, A. Jiang, S. Behnle, A. G. Heide,
    M. F. Herbst, and D. L. Poole

             Previous Authors, Complete List of Code Contributors,
                       and Citations for Specific Modules
    https://github.com/psi4/psi4/blob/master/codemeta.json
    https://github.com/psi4/psi4/graphs/contributors
    http://psicode.org/psi4manual/master/introduction.html#citing-psifour

    -----------------------------------------------------------------------


    Psi4 started on: Monday, 22 January 2024 11:32AM

    Process ID: 42296
    Host:       ddmfs1
    PSIDATADIR: /ddmfs1b/softs/psi4conda/share/psi4
    Memory:     500.0 MiB
    Threads:    20
    
  ==> Input File <==

--------------------------------------------------------------------------
MEMORY 60 GB

molecule dimer {
-1 1
Cl         0.000000     0.000000     0.000000
Gh(Li)     0.000000     2.029797     0.000000
Gh(Li)     4.059594     0.000000     0.000000

units ang
no_reorient
no_com
symmetry c1
}

set {
basis        aug-cc-pVTZ
scf_type     df
}

energy("mp2")
--------------------------------------------------------------------------

  Memory set to  55.879 GiB by Python driver.

Scratch directory: /ddmfs1a/scratch/
   => Libint2 <=

    Primary   basis highest AM E, G, H:  5, 4, 3
    Auxiliary basis highest AM E, G, H:  6, 5, 4
    Onebody   basis highest AM E, G, H:  6, 5, 4
    Solid Harmonics ordering:            gaussian

*** tstart() called on ddmfs1
*** at Mon Jan 22 11:32:48 2024

   => Loading Basis Set <=

    Name: AUG-CC-PVTZ
    Role: ORBITAL
    Keyword: BASIS
    atoms 1   entry CL         line   988 file /ddmfs1b/softs/psi4conda/share/psi4/basis/aug-cc-pvtz.gbs 
    atoms 2-3 entry LI         line    85 file /ddmfs1b/softs/psi4conda/share/psi4/basis/aug-cc-pvtz.gbs 


         ---------------------------------------------------------
                                   SCF
               by Justin Turney, Rob Parrish, Andy Simmonett
                          and Daniel G. A. Smith
                              RHF Reference
                       20 Threads,  57220 MiB Core
         ---------------------------------------------------------

  ==> Geometry <==

    Molecular point group: c1
    Full point group: Cs

    Geometry (in Angstrom), charge = -1, multiplicity = 1:

       Center              X                  Y                   Z               Mass       
    ------------   -----------------  -----------------  -----------------  -----------------
         CL           0.000000000000     0.000000000000     0.000000000000    34.968852682000
      Gh(LI)          0.000000000000     2.029797000000     0.000000000000     7.016003436600
      Gh(LI)          4.059594000000     0.000000000000     0.000000000000     7.016003436600

  Running in c1 symmetry.

  Rotational constants: A =      0.58318  B =      0.14579  C =      0.11664 [cm^-1]
  Rotational constants: A =  17483.25104  B =   4370.81276  C =   3496.65021 [MHz]
  Nuclear repulsion =    0.000000000000000

  Charge       = -1
  Multiplicity = 1
  Electrons    = 18
  Nalpha       = 9
  Nbeta        = 9

  ==> Algorithm <==

  SCF Algorithm Type is DF.
  DIIS enabled.
  MOM disabled.
  Fractional occupation disabled.
  Guess Type is SAD.
  Energy threshold   = 1.00e-08
  Density threshold  = 1.00e-08
  Integral threshold = 1.00e-12

  ==> Primary Basis <==

  Basis Set: AUG-CC-PVTZ
    Blend: AUG-CC-PVTZ
    Number of shells: 44
    Number of basis functions: 142
    Number of Cartesian functions: 169
    Spherical Harmonics?: true
    Max angular momentum: 3

   => Loading Basis Set <=

    Name: (AUG-CC-PVTZ AUX)
    Role: JKFIT
    Keyword: DF_BASIS_SCF
    atoms 1   entry CL         line   816 file /ddmfs1b/softs/psi4conda/share/psi4/basis/aug-cc-pvtz-jkfit.gbs 
    atoms 2-3 entry LI         line    54 file /ddmfs1b/softs/psi4conda/share/psi4/basis/def2-universal-jkfit.gbs 

  ==> Integral Setup <==

  DFHelper Memory: AOs need 0.045 GiB; user supplied 41.910 GiB. 
  Using in-core AOs.

  ==> MemDFJK: Density-Fitted J/K Matrices <==

    J tasked:                   Yes
    K tasked:                   Yes
    wK tasked:                   No
    OpenMP threads:              20
    Memory [MiB]:             42915
    Algorithm:                 Core
    Schwarz Cutoff:           1E-12
    Mask sparsity (%):       0.0000
    Fitting Condition:        1E-10

   => Auxiliary Basis Set <=

  Basis Set: (AUG-CC-PVTZ AUX)
    Blend: AUG-CC-PVTZ-JKFIT + DEF2-UNIVERSAL-JKFIT
    Number of shells: 76
    Number of basis functions: 248
    Number of Cartesian functions: 300
    Spherical Harmonics?: true
    Max angular momentum: 4

  Minimum eigenvalue in the overlap matrix is 4.5119847625E-04.
  Reciprocal condition number of the overlap matrix is 6.1302145281E-05.
    Using symmetric orthogonalization.

  ==> Pre-Iterations <==

  SCF Guess: Superposition of Atomic Densities via on-the-fly atomic UHF (no occupation information).

   -------------------------
    Irrep   Nso     Nmo    
   -------------------------
     A        142     142 
   -------------------------
    Total     142     142
   -------------------------

  ==> Iterations <==

                           Total Energy        Delta E     RMS |[F,P]|

   @DF-RHF iter SAD:  -459.11248997906205   -4.59112e+02   0.00000e+00 
   @DF-RHF iter   1:  -459.51384912939528   -4.01359e-01   2.10151e-03 ADIIS/DIIS
   @DF-RHF iter   2:  -459.56475867061909   -5.09095e-02   1.07584e-03 ADIIS/DIIS
   @DF-RHF iter   3:  -459.57346375354666   -8.70508e-03   7.14904e-05 DIIS
   @DF-RHF iter   4:  -459.57351830689453   -5.45533e-05   1.46569e-05 DIIS
   @DF-RHF iter   5:  -459.57352192395666   -3.61706e-06   1.48279e-06 DIIS
   @DF-RHF iter   6:  -459.57352200377829   -7.98216e-08   1.28145e-07 DIIS
   @DF-RHF iter   7:  -459.57352200464823   -8.69932e-10   1.53439e-08 DIIS
   @DF-RHF iter   8:  -459.57352200466721   -1.89857e-11   2.30293e-09 DIIS
  Energy and wave function converged.


  ==> Post-Iterations <==

    Orbital Energies [Eh]
    ---------------------

    Doubly Occupied:                                                      

       1A   -104.506611     2A    -10.229899     3A     -7.695958  
       4A     -7.695951     5A     -7.695928     6A     -0.733489  
       7A     -0.150325     8A     -0.150320     9A     -0.150319  

    Virtual:                                                              

      10A      0.070606    11A      0.082675    12A      0.084896  
      13A      0.085590    14A      0.094420    15A      0.095237  
      16A      0.100065    17A      0.109554    18A      0.130456  
      19A      0.155972    20A      0.159884    21A      0.163589  
      22A      0.180722    23A      0.182923    24A      0.193455  
      25A      0.221345    26A      0.221601    27A      0.223135  
      28A      0.242891    29A      0.245046    30A      0.246030  
      31A      0.254590    32A      0.257248    33A      0.278448  
      34A      0.280698    35A      0.285041    36A      0.291211  
      37A      0.311772    38A      0.319889    39A      0.324366  
      40A      0.325632    41A      0.350714    42A      0.352605  
      43A      0.370951    44A      0.371512    45A      0.414547  
      46A      0.414887    47A      0.416878    48A      0.438602  
      49A      0.445131    50A      0.451331    51A      0.466288  
      52A      0.467645    53A      0.475219    54A      0.483226  
      55A      0.485490    56A      0.485722    57A      0.490542  
      58A      0.493771    59A      0.512057    60A      0.513835  
      61A      0.525091    62A      0.528319    63A      0.532540  
      64A      0.543487    65A      0.549342    66A      0.557182  
      67A      0.564252    68A      0.581970    69A      0.602462  
      70A      0.635632    71A      0.653761    72A      0.685962  
      73A      0.709646    74A      0.722612    75A      0.725440  
      76A      0.755023    77A      0.876501    78A      0.879877  
      79A      0.932275    80A      0.932919    81A      0.935139  
      82A      0.947746    83A      0.951679    84A      0.957003  
      85A      0.964766    86A      0.967872    87A      0.982817  
      88A      0.991342    89A      1.001307    90A      1.042460  
      91A      1.052003    92A      1.058743    93A      1.070004  
      94A      1.073361    95A      1.078549    96A      1.088445  
      97A      1.096710    98A      1.100018    99A      1.104279  
     100A      1.114042   101A      1.121133   102A      1.163334  
     103A      1.163444   104A      1.177602   105A      1.234437  
     106A      1.266052   107A      1.266906   108A      1.313705  
     109A      1.333959   110A      1.341004   111A      1.378774  
     112A      1.448776   113A      1.452033   114A      1.462184  
     115A      1.478323   116A      1.524386   117A      1.580937  
     118A      1.626277   119A      1.668280   120A      1.683883  
     121A      1.979682   122A      1.991675   123A      2.000501  
     124A      2.398092   125A      2.916819   126A      2.936183  
     127A      2.948047   128A      2.993283   129A      3.097795  
     130A      3.206653   131A      3.245906   132A      3.404176  
     133A      3.405487   134A      3.419410   135A      3.487051  
     136A      3.492010   137A      3.581872   138A      3.601473  
     139A      3.615611   140A      6.349219   141A     10.163645  
     142A     11.175914  

    Final Occupation by Irrep:
              A 
    DOCC [     9 ]
    NA   [     9 ]
    NB   [     9 ]

  @DF-RHF Final Energy:  -459.57352200466721

   => Energetics <=

    Nuclear Repulsion Energy =              0.0000000000000000
    One-Electron Energy =                -641.1294428613447280
    Two-Electron Energy =                 181.5559208566775169
    Total Energy =                       -459.5735220046672111

Computation Completed


Properties will be evaluated at   0.000000,   0.000000,   0.000000 [a0]

Properties computed using the SCF density matrix


 Multipole Moments:

 ------------------------------------------------------------------------------------
     Multipole            Electronic (a.u.)      Nuclear  (a.u.)        Total (a.u.)
 ------------------------------------------------------------------------------------

 L = 1.  Multiply by 2.5417464519 to convert [e a0] to [Debye]
 Dipole X            :          0.0002337            0.0000000            0.0002337
 Dipole Y            :          0.0007538            0.0000000            0.0007538
 Dipole Z            :          0.0000000            0.0000000            0.0000000
 Magnitude           :                                                    0.0007892

 ------------------------------------------------------------------------------------

*** tstop() called on ddmfs1 at Mon Jan 22 11:32:49 2024
Module time:
	user time   =      19.55 seconds =       0.33 minutes
	system time =       1.96 seconds =       0.03 minutes
	total time  =          1 seconds =       0.02 minutes
Total time:
	user time   =      19.55 seconds =       0.33 minutes
	system time =       1.96 seconds =       0.03 minutes
	total time  =          1 seconds =       0.02 minutes

*** tstart() called on ddmfs1
*** at Mon Jan 22 11:32:49 2024


  //>>>>>>>>>>>>>>>>>>>>>>>>>>>>>>>>>>>//
  //               DFMP2               //
  //<<<<<<<<<<<<<<<<<<<<<<<<<<<<<<<<<<<//

   => Loading Basis Set <=

    Name: (AUG-CC-PVTZ AUX)
    Role: RIFIT
    Keyword: DF_BASIS_MP2
    atoms 1   entry CL         line   742 file /ddmfs1b/softs/psi4conda/share/psi4/basis/aug-cc-pvtz-ri.gbs 
    atoms 2-3 entry LI         line    90 file /ddmfs1b/softs/psi4conda/share/psi4/basis/def2-qzvpp-ri.gbs 

	 --------------------------------------------------------
	                          DF-MP2                         
	      2nd-Order Density-Fitted Moller-Plesset Theory     
	              RMP2 Wavefunction,  20 Threads             
	                                                         
	        Rob Parrish, Justin Turney, Andy Simmonett,      
	           Ed Hohenstein, and C. David Sherrill          
	 --------------------------------------------------------

   => Auxiliary Basis Set <=

  Basis Set: (AUG-CC-PVTZ AUX)
    Blend: AUG-CC-PVTZ-RI + DEF2-QZVPP-RI
    Number of shells: 91
    Number of basis functions: 349
    Number of Cartesian functions: 451
    Spherical Harmonics?: true
    Max angular momentum: 4

	 --------------------------------------------------------
	                 NBF =   142, NAUX =   349
	 --------------------------------------------------------
	   CLASS    FOCC     OCC    AOCC    AVIR     VIR    FVIR
	   PAIRS       0       9       9     133     133       0
	 --------------------------------------------------------

	-----------------------------------------------------------
	 ==================> DF-MP2 Energies <==================== 
	-----------------------------------------------------------
	 Reference Energy          =    -459.5735220046672111 [Eh]
	 Singles Energy            =      -0.0000000000000000 [Eh]
	 Same-Spin Energy          =      -0.0628228288112136 [Eh]
	 Opposite-Spin Energy      =      -0.1806376353425171 [Eh]
	 Correlation Energy        =      -0.2434604641537307 [Eh]
	 Total Energy              =    -459.8169824688209246 [Eh]
	-----------------------------------------------------------
	 ================> DF-SCS-MP2 Energies <================== 
	-----------------------------------------------------------
	 SCS Same-Spin Scale       =       0.3333333333333333 [-]
	 SCS Opposite-Spin Scale   =       1.2000000000000000 [-]
	 SCS Same-Spin Energy      =      -0.0209409429370712 [Eh]
	 SCS Opposite-Spin Energy  =      -0.2167651624110205 [Eh]
	 SCS Correlation Energy    =      -0.2377061053480917 [Eh]
	 SCS Total Energy          =    -459.8112281100152927 [Eh]
	-----------------------------------------------------------


*** tstop() called on ddmfs1 at Mon Jan 22 11:32:51 2024
Module time:
	user time   =       7.73 seconds =       0.13 minutes
	system time =       0.58 seconds =       0.01 minutes
	total time  =          2 seconds =       0.03 minutes
Total time:
	user time   =      27.30 seconds =       0.45 minutes
	system time =       2.55 seconds =       0.04 minutes
	total time  =          3 seconds =       0.05 minutes

    Psi4 stopped on: Monday, 22 January 2024 11:32AM
    Psi4 wall time for execution: 0:00:02.98

*** Psi4 exiting successfully. Buy a developer a beer!
