
    -----------------------------------------------------------------------
          Psi4: An Open-Source Ab Initio Electronic Structure Package
                               Psi4 1.8.2 release

                         Git: Rev {} zzzzzzz 


    D. G. A. Smith, L. A. Burns, A. C. Simmonett, R. M. Parrish,
    M. C. Schieber, R. Galvelis, P. Kraus, H. Kruse, R. Di Remigio,
    A. Alenaizan, A. M. James, S. Lehtola, J. P. Misiewicz, M. Scheurer,
    R. A. Shaw, J. B. Schriber, Y. Xie, Z. L. Glick, D. A. Sirianni,
    J. S. O'Brien, J. M. Waldrop, A. Kumar, E. G. Hohenstein,
    B. P. Pritchard, B. R. Brooks, H. F. Schaefer III, A. Yu. Sokolov,
    K. Patkowski, A. E. DePrince III, U. Bozkaya, R. A. King,
    F. A. Evangelista, J. M. Turney, T. D. Crawford, C. D. Sherrill,
    J. Chem. Phys. 152(18) 184108 (2020). https://doi.org/10.1063/5.0006002

                            Additional Code Authors
    E. T. Seidl, C. L. Janssen, E. F. Valeev, M. L. Leininger,
    J. F. Gonthier, R. M. Richard, H. R. McAlexander, M. Saitow, X. Wang,
    P. Verma, M. H. Lechner, A. Jiang, S. Behnle, A. G. Heide,
    M. F. Herbst, and D. L. Poole

             Previous Authors, Complete List of Code Contributors,
                       and Citations for Specific Modules
    https://github.com/psi4/psi4/blob/master/codemeta.json
    https://github.com/psi4/psi4/graphs/contributors
    http://psicode.org/psi4manual/master/introduction.html#citing-psifour

    -----------------------------------------------------------------------


    Psi4 started on: Monday, 22 January 2024 11:32AM

    Process ID: 42253
    Host:       ddmfs1
    PSIDATADIR: /ddmfs1b/softs/psi4conda/share/psi4
    Memory:     500.0 MiB
    Threads:    20
    
  ==> Input File <==

--------------------------------------------------------------------------
MEMORY 60 GB

molecule dimer {
1 1
Gh(Cl)     0.000000     0.000000     0.000000
Gh(Li)     0.000000     2.029797     0.000000
Li         3.044695     0.000000     0.000000

units ang
no_reorient
no_com
symmetry c1
}

set {
basis        aug-cc-pVTZ
scf_type     df
}

energy("mp2")
--------------------------------------------------------------------------

  Memory set to  55.879 GiB by Python driver.

Scratch directory: /ddmfs1a/scratch/
   => Libint2 <=

    Primary   basis highest AM E, G, H:  5, 4, 3
    Auxiliary basis highest AM E, G, H:  6, 5, 4
    Onebody   basis highest AM E, G, H:  6, 5, 4
    Solid Harmonics ordering:            gaussian

*** tstart() called on ddmfs1
*** at Mon Jan 22 11:32:41 2024

   => Loading Basis Set <=

    Name: AUG-CC-PVTZ
    Role: ORBITAL
    Keyword: BASIS
    atoms 1   entry CL         line   988 file /ddmfs1b/softs/psi4conda/share/psi4/basis/aug-cc-pvtz.gbs 
    atoms 2-3 entry LI         line    85 file /ddmfs1b/softs/psi4conda/share/psi4/basis/aug-cc-pvtz.gbs 


         ---------------------------------------------------------
                                   SCF
               by Justin Turney, Rob Parrish, Andy Simmonett
                          and Daniel G. A. Smith
                              RHF Reference
                       20 Threads,  57220 MiB Core
         ---------------------------------------------------------

  ==> Geometry <==

    Molecular point group: c1
    Full point group: Cs

    Geometry (in Angstrom), charge = 1, multiplicity = 1:

       Center              X                  Y                   Z               Mass       
    ------------   -----------------  -----------------  -----------------  -----------------
      Gh(CL)          0.000000000000     0.000000000000     0.000000000000    34.968852682000
      Gh(LI)          0.000000000000     2.029797000000     0.000000000000     7.016003436600
         LI           3.044695000000     0.000000000000     0.000000000000     7.016003436600

  Running in c1 symmetry.

  Rotational constants: A =      0.58318  B =      0.25919  C =      0.17944 [cm^-1]
  Rotational constants: A =  17483.25104  B =   7770.33635  C =   5379.46308 [MHz]
  Nuclear repulsion =    0.000000000000000

  Charge       = 1
  Multiplicity = 1
  Electrons    = 2
  Nalpha       = 1
  Nbeta        = 1

  ==> Algorithm <==

  SCF Algorithm Type is DF.
  DIIS enabled.
  MOM disabled.
  Fractional occupation disabled.
  Guess Type is SAD.
  Energy threshold   = 1.00e-08
  Density threshold  = 1.00e-08
  Integral threshold = 1.00e-12

  ==> Primary Basis <==

  Basis Set: AUG-CC-PVTZ
    Blend: AUG-CC-PVTZ
    Number of shells: 44
    Number of basis functions: 142
    Number of Cartesian functions: 169
    Spherical Harmonics?: true
    Max angular momentum: 3

   => Loading Basis Set <=

    Name: (AUG-CC-PVTZ AUX)
    Role: JKFIT
    Keyword: DF_BASIS_SCF
    atoms 1   entry CL         line   816 file /ddmfs1b/softs/psi4conda/share/psi4/basis/aug-cc-pvtz-jkfit.gbs 
    atoms 2-3 entry LI         line    54 file /ddmfs1b/softs/psi4conda/share/psi4/basis/def2-universal-jkfit.gbs 

  ==> Integral Setup <==

  DFHelper Memory: AOs need 0.045 GiB; user supplied 41.910 GiB. 
  Using in-core AOs.

  ==> MemDFJK: Density-Fitted J/K Matrices <==

    J tasked:                   Yes
    K tasked:                   Yes
    wK tasked:                   No
    OpenMP threads:              20
    Memory [MiB]:             42915
    Algorithm:                 Core
    Schwarz Cutoff:           1E-12
    Mask sparsity (%):       0.0000
    Fitting Condition:        1E-10

   => Auxiliary Basis Set <=

  Basis Set: (AUG-CC-PVTZ AUX)
    Blend: AUG-CC-PVTZ-JKFIT + DEF2-UNIVERSAL-JKFIT
    Number of shells: 76
    Number of basis functions: 248
    Number of Cartesian functions: 300
    Spherical Harmonics?: true
    Max angular momentum: 4

  Minimum eigenvalue in the overlap matrix is 1.9815081936E-04.
  Reciprocal condition number of the overlap matrix is 2.5062008202E-05.
    Using symmetric orthogonalization.

  ==> Pre-Iterations <==

  SCF Guess: Superposition of Atomic Densities via on-the-fly atomic UHF (no occupation information).

   -------------------------
    Irrep   Nso     Nmo    
   -------------------------
     A        142     142 
   -------------------------
    Total     142     142
   -------------------------

  ==> Iterations <==

                           Total Energy        Delta E     RMS |[F,P]|

   @DF-RHF iter SAD:    -7.31441019897307   -7.31441e+00   0.00000e+00 
   @DF-RHF iter   1:    -7.23638126513573    7.80289e-02   1.59384e-05 DIIS
   @DF-RHF iter   2:    -7.23638311431845   -1.84918e-06   1.77710e-06 DIIS
   @DF-RHF iter   3:    -7.23638314122460   -2.69061e-08   8.25223e-08 DIIS
   @DF-RHF iter   4:    -7.23638314127194   -4.73426e-11   4.01967e-10 DIIS
  Energy and wave function converged.


  ==> Post-Iterations <==

    Orbital Energies [Eh]
    ---------------------

    Doubly Occupied:                                                      

       1A     -2.792372  

    Virtual:                                                              

       2A     -0.196298     3A     -0.128600     4A     -0.128596  
       5A     -0.128595     6A     -0.073714     7A     -0.056586  
       8A     -0.056377     9A     -0.056373    10A     -0.053037  
      11A     -0.051830    12A     -0.051599    13A     -0.034057  
      14A     -0.033179    15A     -0.028953    16A     -0.026434  
      17A     -0.022116    18A     -0.021391    19A     -0.007966  
      20A     -0.004894    21A     -0.004434    22A     -0.003105  
      23A      0.008569    24A      0.011236    25A      0.011751  
      26A      0.023703    27A      0.024427    28A      0.044637  
      29A      0.054834    30A      0.058775    31A      0.069171  
      32A      0.074062    33A      0.075694    34A      0.079850  
      35A      0.087296    36A      0.090899    37A      0.098942  
      38A      0.128062    39A      0.131364    40A      0.137530  
      41A      0.140756    42A      0.151056    43A      0.153645  
      44A      0.155737    45A      0.160329    46A      0.169412  
      47A      0.184590    48A      0.201101    49A      0.208831  
      50A      0.210132    51A      0.217983    52A      0.224198  
      53A      0.237344    54A      0.243563    55A      0.245883  
      56A      0.250725    57A      0.270410    58A      0.276923  
      59A      0.283775    60A      0.289302    61A      0.290222  
      62A      0.304685    63A      0.312829    64A      0.363529  
      65A      0.370125    66A      0.377878    67A      0.388122  
      68A      0.396646    69A      0.419271    70A      0.448224  
      71A      0.450526    72A      0.482624    73A      0.487904  
      74A      0.516751    75A      0.531972    76A      0.540733  
      77A      0.550381    78A      0.554996    79A      0.558558  
      80A      0.577062    81A      0.584855    82A      0.590268  
      83A      0.593955    84A      0.620053    85A      0.627168  
      86A      0.661041    87A      0.679885    88A      0.681457  
      89A      0.708575    90A      0.716984    91A      0.736892  
      92A      0.786939    93A      0.796395    94A      0.803121  
      95A      0.816654    96A      0.816764    97A      0.842493  
      98A      0.859434    99A      0.871835   100A      0.944243  
     101A      0.992215   102A      1.152966   103A      1.242430  
     104A      1.248355   105A      1.300418   106A      1.301760  
     107A      1.352504   108A      1.356456   109A      1.382208  
     110A      1.419874   111A      1.470175   112A      1.489590  
     113A      1.536477   114A      1.544242   115A      1.619880  
     116A      1.698906   117A      1.722434   118A      1.827804  
     119A      2.254031   120A      2.950064   121A      3.822147  
     122A      3.842014   123A      3.879652   124A      3.885956  
     125A      3.907618   126A      3.941228   127A      3.991487  
     128A      4.036717   129A      4.040882   130A      4.117203  
     131A      4.387748   132A      4.593714   133A      4.610649  
     134A      4.639337   135A      4.690319   136A      4.780124  
     137A     10.800580   138A     14.540185   139A     27.742543  
     140A     27.888900   141A     28.019930   142A    160.698643  

    Final Occupation by Irrep:
              A 
    DOCC [     1 ]
    NA   [     1 ]
    NB   [     1 ]

  @DF-RHF Final Energy:    -7.23638314127194

   => Energetics <=

    Nuclear Repulsion Energy =              0.0000000000000000
    One-Electron Energy =                  -8.8880219764770221
    Two-Electron Energy =                   1.6516388352050835
    Total Energy =                         -7.2363831412719382

Computation Completed


Properties will be evaluated at   0.000000,   0.000000,   0.000000 [a0]

Properties computed using the SCF density matrix


 Multipole Moments:

 ------------------------------------------------------------------------------------
     Multipole            Electronic (a.u.)      Nuclear  (a.u.)        Total (a.u.)
 ------------------------------------------------------------------------------------

 L = 1.  Multiply by 2.5417464519 to convert [e a0] to [Debye]
 Dipole X            :        -11.5073465           17.2609191            5.7535725
 Dipole Y            :          0.0000205            0.0000000            0.0000205
 Dipole Z            :         -0.0000000            0.0000000           -0.0000000
 Magnitude           :                                                    5.7535725

 ------------------------------------------------------------------------------------

*** tstop() called on ddmfs1 at Mon Jan 22 11:32:42 2024
Module time:
	user time   =      14.55 seconds =       0.24 minutes
	system time =       1.46 seconds =       0.02 minutes
	total time  =          1 seconds =       0.02 minutes
Total time:
	user time   =      14.55 seconds =       0.24 minutes
	system time =       1.46 seconds =       0.02 minutes
	total time  =          1 seconds =       0.02 minutes

*** tstart() called on ddmfs1
*** at Mon Jan 22 11:32:42 2024


  //>>>>>>>>>>>>>>>>>>>>>>>>>>>>>>>>>>>//
  //               DFMP2               //
  //<<<<<<<<<<<<<<<<<<<<<<<<<<<<<<<<<<<//

   => Loading Basis Set <=

    Name: (AUG-CC-PVTZ AUX)
    Role: RIFIT
    Keyword: DF_BASIS_MP2
    atoms 1   entry CL         line   742 file /ddmfs1b/softs/psi4conda/share/psi4/basis/aug-cc-pvtz-ri.gbs 
    atoms 2-3 entry LI         line    90 file /ddmfs1b/softs/psi4conda/share/psi4/basis/def2-qzvpp-ri.gbs 

	 --------------------------------------------------------
	                          DF-MP2                         
	      2nd-Order Density-Fitted Moller-Plesset Theory     
	              RMP2 Wavefunction,  20 Threads             
	                                                         
	        Rob Parrish, Justin Turney, Andy Simmonett,      
	           Ed Hohenstein, and C. David Sherrill          
	 --------------------------------------------------------

   => Auxiliary Basis Set <=

  Basis Set: (AUG-CC-PVTZ AUX)
    Blend: AUG-CC-PVTZ-RI + DEF2-QZVPP-RI
    Number of shells: 91
    Number of basis functions: 349
    Number of Cartesian functions: 451
    Spherical Harmonics?: true
    Max angular momentum: 4

	 --------------------------------------------------------
	                 NBF =   142, NAUX =   349
	 --------------------------------------------------------
	   CLASS    FOCC     OCC    AOCC    AVIR     VIR    FVIR
	   PAIRS       0       1       1     141     141       0
	 --------------------------------------------------------

	-----------------------------------------------------------
	 ==================> DF-MP2 Energies <==================== 
	-----------------------------------------------------------
	 Reference Energy          =      -7.2363831412719382 [Eh]
	 Singles Energy            =      -0.0000000000000000 [Eh]
	 Same-Spin Energy          =       0.0000000000000000 [Eh]
	 Opposite-Spin Energy      =      -0.0115341281666077 [Eh]
	 Correlation Energy        =      -0.0115341281666077 [Eh]
	 Total Energy              =      -7.2479172694385454 [Eh]
	-----------------------------------------------------------
	 ================> DF-SCS-MP2 Energies <================== 
	-----------------------------------------------------------
	 SCS Same-Spin Scale       =       0.3333333333333333 [-]
	 SCS Opposite-Spin Scale   =       1.2000000000000000 [-]
	 SCS Same-Spin Energy      =       0.0000000000000000 [Eh]
	 SCS Opposite-Spin Energy  =      -0.0138409537999292 [Eh]
	 SCS Correlation Energy    =      -0.0138409537999292 [Eh]
	 SCS Total Energy          =      -7.2502240950718670 [Eh]
	-----------------------------------------------------------


*** tstop() called on ddmfs1 at Mon Jan 22 11:32:43 2024
Module time:
	user time   =       6.97 seconds =       0.12 minutes
	system time =       0.58 seconds =       0.01 minutes
	total time  =          1 seconds =       0.02 minutes
Total time:
	user time   =      21.54 seconds =       0.36 minutes
	system time =       2.04 seconds =       0.03 minutes
	total time  =          2 seconds =       0.03 minutes

    Psi4 stopped on: Monday, 22 January 2024 11:32AM
    Psi4 wall time for execution: 0:00:02.70

*** Psi4 exiting successfully. Buy a developer a beer!
