
    -----------------------------------------------------------------------
          Psi4: An Open-Source Ab Initio Electronic Structure Package
                               Psi4 1.8.2 release

                         Git: Rev {} zzzzzzz 


    D. G. A. Smith, L. A. Burns, A. C. Simmonett, R. M. Parrish,
    M. C. Schieber, R. Galvelis, P. Kraus, H. Kruse, R. Di Remigio,
    A. Alenaizan, A. M. James, S. Lehtola, J. P. Misiewicz, M. Scheurer,
    R. A. Shaw, J. B. Schriber, Y. Xie, Z. L. Glick, D. A. Sirianni,
    J. S. O'Brien, J. M. Waldrop, A. Kumar, E. G. Hohenstein,
    B. P. Pritchard, B. R. Brooks, H. F. Schaefer III, A. Yu. Sokolov,
    K. Patkowski, A. E. DePrince III, U. Bozkaya, R. A. King,
    F. A. Evangelista, J. M. Turney, T. D. Crawford, C. D. Sherrill,
    J. Chem. Phys. 152(18) 184108 (2020). https://doi.org/10.1063/5.0006002

                            Additional Code Authors
    E. T. Seidl, C. L. Janssen, E. F. Valeev, M. L. Leininger,
    J. F. Gonthier, R. M. Richard, H. R. McAlexander, M. Saitow, X. Wang,
    P. Verma, M. H. Lechner, A. Jiang, S. Behnle, A. G. Heide,
    M. F. Herbst, and D. L. Poole

             Previous Authors, Complete List of Code Contributors,
                       and Citations for Specific Modules
    https://github.com/psi4/psi4/blob/master/codemeta.json
    https://github.com/psi4/psi4/graphs/contributors
    http://psicode.org/psi4manual/master/introduction.html#citing-psifour

    -----------------------------------------------------------------------


    Psi4 started on: Monday, 22 January 2024 11:32AM

    Process ID: 42146
    Host:       ddmfs1
    PSIDATADIR: /ddmfs1b/softs/psi4conda/share/psi4
    Memory:     500.0 MiB
    Threads:    20
    
  ==> Input File <==

--------------------------------------------------------------------------
MEMORY 60 GB

molecule dimer {
1 1
Gh(Cl)     0.000000     0.000000     0.000000
Li         0.000000     2.029797     0.000000
Gh(Li)     2.841716     0.000000     0.000000

units ang
no_reorient
no_com
symmetry c1
}

set {
basis        aug-cc-pVTZ
scf_type     df
}

energy("mp2")
--------------------------------------------------------------------------

  Memory set to  55.879 GiB by Python driver.

Scratch directory: /ddmfs1a/scratch/
   => Libint2 <=

    Primary   basis highest AM E, G, H:  5, 4, 3
    Auxiliary basis highest AM E, G, H:  6, 5, 4
    Onebody   basis highest AM E, G, H:  6, 5, 4
    Solid Harmonics ordering:            gaussian

*** tstart() called on ddmfs1
*** at Mon Jan 22 11:32:23 2024

   => Loading Basis Set <=

    Name: AUG-CC-PVTZ
    Role: ORBITAL
    Keyword: BASIS
    atoms 1   entry CL         line   988 file /ddmfs1b/softs/psi4conda/share/psi4/basis/aug-cc-pvtz.gbs 
    atoms 2-3 entry LI         line    85 file /ddmfs1b/softs/psi4conda/share/psi4/basis/aug-cc-pvtz.gbs 


         ---------------------------------------------------------
                                   SCF
               by Justin Turney, Rob Parrish, Andy Simmonett
                          and Daniel G. A. Smith
                              RHF Reference
                       20 Threads,  57220 MiB Core
         ---------------------------------------------------------

  ==> Geometry <==

    Molecular point group: c1
    Full point group: Cs

    Geometry (in Angstrom), charge = 1, multiplicity = 1:

       Center              X                  Y                   Z               Mass       
    ------------   -----------------  -----------------  -----------------  -----------------
      Gh(CL)          0.000000000000     0.000000000000     0.000000000000    34.968852682000
         LI           0.000000000000     2.029797000000     0.000000000000     7.016003436600
      Gh(LI)          2.841716000000     0.000000000000     0.000000000000     7.016003436600

  Running in c1 symmetry.

  Rotational constants: A =      0.58318  B =      0.29754  C =      0.19702 [cm^-1]
  Rotational constants: A =  17483.25104  B =   8920.02479  C =   5906.50318 [MHz]
  Nuclear repulsion =    0.000000000000000

  Charge       = 1
  Multiplicity = 1
  Electrons    = 2
  Nalpha       = 1
  Nbeta        = 1

  ==> Algorithm <==

  SCF Algorithm Type is DF.
  DIIS enabled.
  MOM disabled.
  Fractional occupation disabled.
  Guess Type is SAD.
  Energy threshold   = 1.00e-08
  Density threshold  = 1.00e-08
  Integral threshold = 1.00e-12

  ==> Primary Basis <==

  Basis Set: AUG-CC-PVTZ
    Blend: AUG-CC-PVTZ
    Number of shells: 44
    Number of basis functions: 142
    Number of Cartesian functions: 169
    Spherical Harmonics?: true
    Max angular momentum: 3

   => Loading Basis Set <=

    Name: (AUG-CC-PVTZ AUX)
    Role: JKFIT
    Keyword: DF_BASIS_SCF
    atoms 1   entry CL         line   816 file /ddmfs1b/softs/psi4conda/share/psi4/basis/aug-cc-pvtz-jkfit.gbs 
    atoms 2-3 entry LI         line    54 file /ddmfs1b/softs/psi4conda/share/psi4/basis/def2-universal-jkfit.gbs 

  ==> Integral Setup <==

  DFHelper Memory: AOs need 0.045 GiB; user supplied 41.910 GiB. 
  Using in-core AOs.

  ==> MemDFJK: Density-Fitted J/K Matrices <==

    J tasked:                   Yes
    K tasked:                   Yes
    wK tasked:                   No
    OpenMP threads:              20
    Memory [MiB]:             42915
    Algorithm:                 Core
    Schwarz Cutoff:           1E-12
    Mask sparsity (%):       0.0000
    Fitting Condition:        1E-10

   => Auxiliary Basis Set <=

  Basis Set: (AUG-CC-PVTZ AUX)
    Blend: AUG-CC-PVTZ-JKFIT + DEF2-UNIVERSAL-JKFIT
    Number of shells: 76
    Number of basis functions: 248
    Number of Cartesian functions: 300
    Spherical Harmonics?: true
    Max angular momentum: 4

  Minimum eigenvalue in the overlap matrix is 1.5649994814E-04.
  Reciprocal condition number of the overlap matrix is 1.9574662660E-05.
    Using symmetric orthogonalization.

  ==> Pre-Iterations <==

  SCF Guess: Superposition of Atomic Densities via on-the-fly atomic UHF (no occupation information).

   -------------------------
    Irrep   Nso     Nmo    
   -------------------------
     A        142     142 
   -------------------------
    Total     142     142
   -------------------------

  ==> Iterations <==

                           Total Energy        Delta E     RMS |[F,P]|

   @DF-RHF iter SAD:    -7.31443018729282   -7.31443e+00   0.00000e+00 
   @DF-RHF iter   1:    -7.23638146441424    7.80487e-02   1.59554e-05 DIIS
   @DF-RHF iter   2:    -7.23638332450933   -1.86010e-06   1.80774e-06 DIIS
   @DF-RHF iter   3:    -7.23638335227435   -2.77650e-08   8.89817e-08 DIIS
   @DF-RHF iter   4:    -7.23638335232759   -5.32330e-11   5.50921e-10 DIIS
  Energy and wave function converged.


  ==> Post-Iterations <==

    Orbital Energies [Eh]
    ---------------------

    Doubly Occupied:                                                      

       1A     -2.792370  

    Virtual:                                                              

       2A     -0.196298     3A     -0.128600     4A     -0.128597  
       5A     -0.128595     6A     -0.073733     7A     -0.056597  
       8A     -0.056383     9A     -0.056376    10A     -0.052689  
      11A     -0.052179    12A     -0.051921    13A     -0.034950  
      14A     -0.033643    15A     -0.028881    16A     -0.026518  
      17A     -0.022085    18A     -0.021225    19A     -0.008631  
      20A     -0.006205    21A     -0.005310    22A     -0.003345  
      23A      0.009935    24A      0.012410    25A      0.012506  
      26A      0.025128    27A      0.025208    28A      0.046596  
      29A      0.049498    30A      0.055709    31A      0.065190  
      32A      0.068696    33A      0.074831    34A      0.075610  
      35A      0.087615    36A      0.095443    37A      0.109896  
      38A      0.120907    39A      0.124792    40A      0.144214  
      41A      0.145331    42A      0.147467    43A      0.154789  
      44A      0.156044    45A      0.163453    46A      0.180875  
      47A      0.181723    48A      0.200260    49A      0.208796  
      50A      0.216306    51A      0.219608    52A      0.226079  
      53A      0.232477    54A      0.241941    55A      0.242368  
      56A      0.257648    57A      0.265387    58A      0.273305  
      59A      0.274904    60A      0.278684    61A      0.289422  
      62A      0.291944    63A      0.315065    64A      0.348536  
      65A      0.359552    66A      0.370293    67A      0.373604  
      68A      0.397925    69A      0.420072    70A      0.435713  
      71A      0.462598    72A      0.490600    73A      0.492782  
      74A      0.545287    75A      0.546376    76A      0.556616  
      77A      0.564531    78A      0.574611    79A      0.584191  
      80A      0.588849    81A      0.604725    82A      0.613926  
      83A      0.620418    84A      0.634545    85A      0.676445  
      86A      0.682854    87A      0.696731    88A      0.701410  
      89A      0.725017    90A      0.729209    91A      0.736428  
      92A      0.780028    93A      0.793185    94A      0.815870  
      95A      0.821124    96A      0.826361    97A      0.834676  
      98A      0.839346    99A      0.860110   100A      0.888714  
     101A      0.922785   102A      0.949268   103A      1.210047  
     104A      1.240137   105A      1.258574   106A      1.281139  
     107A      1.311477   108A      1.323534   109A      1.325811  
     110A      1.383288   111A      1.424629   112A      1.450620  
     113A      1.459417   114A      1.470440   115A      1.485881  
     116A      1.537630   117A      1.575665   118A      1.709679  
     119A      1.728675   120A      3.190622   121A      3.767477  
     122A      3.785647   123A      3.803924   124A      3.816009  
     125A      3.853180   126A      3.887417   127A      3.912887  
     128A      3.950914   129A      3.970337   130A      4.075262  
     131A      4.327946   132A      4.521974   133A      4.537635  
     134A      4.553219   135A      4.617031   136A      4.667402  
     137A     10.478351   138A     14.481465   139A     27.662358  
     140A     27.819421   141A     27.953622   142A    160.616669  

    Final Occupation by Irrep:
              A 
    DOCC [     1 ]
    NA   [     1 ]
    NB   [     1 ]

  @DF-RHF Final Energy:    -7.23638335232759

   => Energetics <=

    Nuclear Repulsion Energy =              0.0000000000000000
    One-Electron Energy =                  -8.8880263043661714
    Two-Electron Energy =                   1.6516429520385854
    Total Energy =                         -7.2363833523275858

Computation Completed


Properties will be evaluated at   0.000000,   0.000000,   0.000000 [a0]

Properties computed using the SCF density matrix


 Multipole Moments:

 ------------------------------------------------------------------------------------
     Multipole            Electronic (a.u.)      Nuclear  (a.u.)        Total (a.u.)
 ------------------------------------------------------------------------------------

 L = 1.  Multiply by 2.5417464519 to convert [e a0] to [Debye]
 Dipole X            :          0.0000188            0.0000000            0.0000188
 Dipole Y            :         -7.6715400           11.5072813            3.8357412
 Dipole Z            :          0.0000000            0.0000000            0.0000000
 Magnitude           :                                                    3.8357412

 ------------------------------------------------------------------------------------

*** tstop() called on ddmfs1 at Mon Jan 22 11:32:24 2024
Module time:
	user time   =      13.80 seconds =       0.23 minutes
	system time =       1.62 seconds =       0.03 minutes
	total time  =          1 seconds =       0.02 minutes
Total time:
	user time   =      13.80 seconds =       0.23 minutes
	system time =       1.62 seconds =       0.03 minutes
	total time  =          1 seconds =       0.02 minutes

*** tstart() called on ddmfs1
*** at Mon Jan 22 11:32:24 2024


  //>>>>>>>>>>>>>>>>>>>>>>>>>>>>>>>>>>>//
  //               DFMP2               //
  //<<<<<<<<<<<<<<<<<<<<<<<<<<<<<<<<<<<//

   => Loading Basis Set <=

    Name: (AUG-CC-PVTZ AUX)
    Role: RIFIT
    Keyword: DF_BASIS_MP2
    atoms 1   entry CL         line   742 file /ddmfs1b/softs/psi4conda/share/psi4/basis/aug-cc-pvtz-ri.gbs 
    atoms 2-3 entry LI         line    90 file /ddmfs1b/softs/psi4conda/share/psi4/basis/def2-qzvpp-ri.gbs 

	 --------------------------------------------------------
	                          DF-MP2                         
	      2nd-Order Density-Fitted Moller-Plesset Theory     
	              RMP2 Wavefunction,  20 Threads             
	                                                         
	        Rob Parrish, Justin Turney, Andy Simmonett,      
	           Ed Hohenstein, and C. David Sherrill          
	 --------------------------------------------------------

   => Auxiliary Basis Set <=

  Basis Set: (AUG-CC-PVTZ AUX)
    Blend: AUG-CC-PVTZ-RI + DEF2-QZVPP-RI
    Number of shells: 91
    Number of basis functions: 349
    Number of Cartesian functions: 451
    Spherical Harmonics?: true
    Max angular momentum: 4

	 --------------------------------------------------------
	                 NBF =   142, NAUX =   349
	 --------------------------------------------------------
	   CLASS    FOCC     OCC    AOCC    AVIR     VIR    FVIR
	   PAIRS       0       1       1     141     141       0
	 --------------------------------------------------------

	-----------------------------------------------------------
	 ==================> DF-MP2 Energies <==================== 
	-----------------------------------------------------------
	 Reference Energy          =      -7.2363833523275858 [Eh]
	 Singles Energy            =      -0.0000000000000000 [Eh]
	 Same-Spin Energy          =       0.0000000000000000 [Eh]
	 Opposite-Spin Energy      =      -0.0128940904141451 [Eh]
	 Correlation Energy        =      -0.0128940904141451 [Eh]
	 Total Energy              =      -7.2492774427417306 [Eh]
	-----------------------------------------------------------
	 ================> DF-SCS-MP2 Energies <================== 
	-----------------------------------------------------------
	 SCS Same-Spin Scale       =       0.3333333333333333 [-]
	 SCS Opposite-Spin Scale   =       1.2000000000000000 [-]
	 SCS Same-Spin Energy      =       0.0000000000000000 [Eh]
	 SCS Opposite-Spin Energy  =      -0.0154729084969741 [Eh]
	 SCS Correlation Energy    =      -0.0154729084969741 [Eh]
	 SCS Total Energy          =      -7.2518562608245603 [Eh]
	-----------------------------------------------------------


*** tstop() called on ddmfs1 at Mon Jan 22 11:32:26 2024
Module time:
	user time   =       7.01 seconds =       0.12 minutes
	system time =       0.53 seconds =       0.01 minutes
	total time  =          2 seconds =       0.03 minutes
Total time:
	user time   =      20.82 seconds =       0.35 minutes
	system time =       2.15 seconds =       0.04 minutes
	total time  =          3 seconds =       0.05 minutes

    Psi4 stopped on: Monday, 22 January 2024 11:32AM
    Psi4 wall time for execution: 0:00:02.66

*** Psi4 exiting successfully. Buy a developer a beer!
