
    -----------------------------------------------------------------------
          Psi4: An Open-Source Ab Initio Electronic Structure Package
                               Psi4 1.8.2 release

                         Git: Rev {} zzzzzzz 


    D. G. A. Smith, L. A. Burns, A. C. Simmonett, R. M. Parrish,
    M. C. Schieber, R. Galvelis, P. Kraus, H. Kruse, R. Di Remigio,
    A. Alenaizan, A. M. James, S. Lehtola, J. P. Misiewicz, M. Scheurer,
    R. A. Shaw, J. B. Schriber, Y. Xie, Z. L. Glick, D. A. Sirianni,
    J. S. O'Brien, J. M. Waldrop, A. Kumar, E. G. Hohenstein,
    B. P. Pritchard, B. R. Brooks, H. F. Schaefer III, A. Yu. Sokolov,
    K. Patkowski, A. E. DePrince III, U. Bozkaya, R. A. King,
    F. A. Evangelista, J. M. Turney, T. D. Crawford, C. D. Sherrill,
    J. Chem. Phys. 152(18) 184108 (2020). https://doi.org/10.1063/5.0006002

                            Additional Code Authors
    E. T. Seidl, C. L. Janssen, E. F. Valeev, M. L. Leininger,
    J. F. Gonthier, R. M. Richard, H. R. McAlexander, M. Saitow, X. Wang,
    P. Verma, M. H. Lechner, A. Jiang, S. Behnle, A. G. Heide,
    M. F. Herbst, and D. L. Poole

             Previous Authors, Complete List of Code Contributors,
                       and Citations for Specific Modules
    https://github.com/psi4/psi4/blob/master/codemeta.json
    https://github.com/psi4/psi4/graphs/contributors
    http://psicode.org/psi4manual/master/introduction.html#citing-psifour

    -----------------------------------------------------------------------


    Psi4 started on: Monday, 22 January 2024 11:31AM

    Process ID: 41952
    Host:       ddmfs1
    PSIDATADIR: /ddmfs1b/softs/psi4conda/share/psi4
    Memory:     500.0 MiB
    Threads:    20
    
  ==> Input File <==

--------------------------------------------------------------------------
MEMORY 60 GB

molecule dimer {
-1 1
Cl         0.000000     0.000000     0.000000
Gh(Li)     0.000000     2.029797     0.000000
Gh(Li)     2.435756     0.000000     0.000000

units ang
no_reorient
no_com
symmetry c1
}

set {
basis        aug-cc-pVTZ
scf_type     df
}

energy("mp2")
--------------------------------------------------------------------------

  Memory set to  55.879 GiB by Python driver.

Scratch directory: /ddmfs1a/scratch/
   => Libint2 <=

    Primary   basis highest AM E, G, H:  5, 4, 3
    Auxiliary basis highest AM E, G, H:  6, 5, 4
    Onebody   basis highest AM E, G, H:  6, 5, 4
    Solid Harmonics ordering:            gaussian

*** tstart() called on ddmfs1
*** at Mon Jan 22 11:31:51 2024

   => Loading Basis Set <=

    Name: AUG-CC-PVTZ
    Role: ORBITAL
    Keyword: BASIS
    atoms 1   entry CL         line   988 file /ddmfs1b/softs/psi4conda/share/psi4/basis/aug-cc-pvtz.gbs 
    atoms 2-3 entry LI         line    85 file /ddmfs1b/softs/psi4conda/share/psi4/basis/aug-cc-pvtz.gbs 


         ---------------------------------------------------------
                                   SCF
               by Justin Turney, Rob Parrish, Andy Simmonett
                          and Daniel G. A. Smith
                              RHF Reference
                       20 Threads,  57220 MiB Core
         ---------------------------------------------------------

  ==> Geometry <==

    Molecular point group: c1
    Full point group: Cs

    Geometry (in Angstrom), charge = -1, multiplicity = 1:

       Center              X                  Y                   Z               Mass       
    ------------   -----------------  -----------------  -----------------  -----------------
         CL           0.000000000000     0.000000000000     0.000000000000    34.968852682000
      Gh(LI)          0.000000000000     2.029797000000     0.000000000000     7.016003436600
      Gh(LI)          2.435756000000     0.000000000000     0.000000000000     7.016003436600

  Running in c1 symmetry.

  Rotational constants: A =      0.58318  B =      0.40499  C =      0.23901 [cm^-1]
  Rotational constants: A =  17483.25104  B =  12141.15054  C =   7165.26821 [MHz]
  Nuclear repulsion =    0.000000000000000

  Charge       = -1
  Multiplicity = 1
  Electrons    = 18
  Nalpha       = 9
  Nbeta        = 9

  ==> Algorithm <==

  SCF Algorithm Type is DF.
  DIIS enabled.
  MOM disabled.
  Fractional occupation disabled.
  Guess Type is SAD.
  Energy threshold   = 1.00e-08
  Density threshold  = 1.00e-08
  Integral threshold = 1.00e-12

  ==> Primary Basis <==

  Basis Set: AUG-CC-PVTZ
    Blend: AUG-CC-PVTZ
    Number of shells: 44
    Number of basis functions: 142
    Number of Cartesian functions: 169
    Spherical Harmonics?: true
    Max angular momentum: 3

   => Loading Basis Set <=

    Name: (AUG-CC-PVTZ AUX)
    Role: JKFIT
    Keyword: DF_BASIS_SCF
    atoms 1   entry CL         line   816 file /ddmfs1b/softs/psi4conda/share/psi4/basis/aug-cc-pvtz-jkfit.gbs 
    atoms 2-3 entry LI         line    54 file /ddmfs1b/softs/psi4conda/share/psi4/basis/def2-universal-jkfit.gbs 

  ==> Integral Setup <==

  DFHelper Memory: AOs need 0.045 GiB; user supplied 41.910 GiB. 
  Using in-core AOs.

  ==> MemDFJK: Density-Fitted J/K Matrices <==

    J tasked:                   Yes
    K tasked:                   Yes
    wK tasked:                   No
    OpenMP threads:              20
    Memory [MiB]:             42915
    Algorithm:                 Core
    Schwarz Cutoff:           1E-12
    Mask sparsity (%):       0.0000
    Fitting Condition:        1E-10

   => Auxiliary Basis Set <=

  Basis Set: (AUG-CC-PVTZ AUX)
    Blend: AUG-CC-PVTZ-JKFIT + DEF2-UNIVERSAL-JKFIT
    Number of shells: 76
    Number of basis functions: 248
    Number of Cartesian functions: 300
    Spherical Harmonics?: true
    Max angular momentum: 4

  Minimum eigenvalue in the overlap matrix is 9.8204116308E-05.
  Reciprocal condition number of the overlap matrix is 1.2058017478E-05.
    Using symmetric orthogonalization.

  ==> Pre-Iterations <==

  SCF Guess: Superposition of Atomic Densities via on-the-fly atomic UHF (no occupation information).

   -------------------------
    Irrep   Nso     Nmo    
   -------------------------
     A        142     142 
   -------------------------
    Total     142     142
   -------------------------

  ==> Iterations <==

                           Total Energy        Delta E     RMS |[F,P]|

   @DF-RHF iter SAD:  -459.11248998536507   -4.59112e+02   0.00000e+00 
   @DF-RHF iter   1:  -459.51385851036486   -4.01369e-01   2.10219e-03 DIIS/ADIIS
   @DF-RHF iter   2:  -459.56477390409611   -5.09154e-02   1.07674e-03 DIIS/ADIIS
   @DF-RHF iter   3:  -459.57347717634741   -8.70327e-03   7.17995e-05 DIIS
   @DF-RHF iter   4:  -459.57353194794246   -5.47716e-05   1.47005e-05 DIIS
   @DF-RHF iter   5:  -459.57353555145653   -3.60351e-06   1.48076e-06 DIIS
   @DF-RHF iter   6:  -459.57353563136894   -7.99124e-08   1.33404e-07 DIIS
   @DF-RHF iter   7:  -459.57353563232579   -9.56845e-10   1.54862e-08 DIIS
   @DF-RHF iter   8:  -459.57353563234523   -1.94404e-11   2.23532e-09 DIIS
  Energy and wave function converged.


  ==> Post-Iterations <==

    Orbital Energies [Eh]
    ---------------------

    Doubly Occupied:                                                      

       1A   -104.506785     2A    -10.229936     3A     -7.696003  
       4A     -7.695985     5A     -7.695965     6A     -0.733477  
       7A     -0.150318     8A     -0.150312     9A     -0.150307  

    Virtual:                                                              

      10A      0.072576    11A      0.078451    12A      0.090179  
      13A      0.090775    14A      0.091225    15A      0.092451  
      16A      0.098163    17A      0.109981    18A      0.148074  
      19A      0.155198    20A      0.173723    21A      0.174922  
      22A      0.176452    23A      0.180971    24A      0.212362  
      25A      0.226327    26A      0.239540    27A      0.239845  
      28A      0.256341    29A      0.260344    30A      0.262483  
      31A      0.262513    32A      0.264946    33A      0.276648  
      34A      0.282135    35A      0.287071    36A      0.289820  
      37A      0.315105    38A      0.334624    39A      0.341023  
      40A      0.361096    41A      0.364087    42A      0.368123  
      43A      0.390937    44A      0.414579    45A      0.445676  
      46A      0.451228    47A      0.459736    48A      0.477791  
      49A      0.493106    50A      0.495712    51A      0.498034  
      52A      0.501688    53A      0.506610    54A      0.509794  
      55A      0.516367    56A      0.519496    57A      0.520867  
      58A      0.535069    59A      0.536479    60A      0.538891  
      61A      0.542936    62A      0.547295    63A      0.552851  
      64A      0.560245    65A      0.588036    66A      0.602557  
      67A      0.606954    68A      0.637185    69A      0.662805  
      70A      0.693071    71A      0.706991    72A      0.708132  
      73A      0.722097    74A      0.774556    75A      0.791336  
      76A      0.827069    77A      0.898342    78A      0.902410  
      79A      0.921689    80A      0.959194    81A      0.966437  
      82A      0.975877    83A      0.989797    84A      1.011260  
      85A      1.015050    86A      1.033327    87A      1.035788  
      88A      1.048886    89A      1.074557    90A      1.075558  
      91A      1.084451    92A      1.097973    93A      1.104771  
      94A      1.108767    95A      1.115915    96A      1.128006  
      97A      1.136602    98A      1.160293    99A      1.169191  
     100A      1.193238   101A      1.206591   102A      1.239384  
     103A      1.270904   104A      1.289690   105A      1.298870  
     106A      1.306394   107A      1.400336   108A      1.402344  
     109A      1.414733   110A      1.449729   111A      1.488926  
     112A      1.491627   113A      1.506738   114A      1.587351  
     115A      1.627597   116A      1.702500   117A      1.809913  
     118A      1.834553   119A      1.863236   120A      1.987227  
     121A      1.995751   122A      2.031767   123A      2.229147  
     124A      2.454048   125A      2.941615   126A      2.974435  
     127A      3.020306   128A      3.075497   129A      3.157563  
     130A      3.224981   131A      3.356087   132A      3.481362  
     133A      3.508885   134A      3.539120   135A      3.541042  
     136A      3.578680   137A      3.610154   138A      3.692667  
     139A      3.738003   140A      6.558059   141A     10.817777  
     142A     11.248361  

    Final Occupation by Irrep:
              A 
    DOCC [     9 ]
    NA   [     9 ]
    NB   [     9 ]

  @DF-RHF Final Energy:  -459.57353563234523

   => Energetics <=

    Nuclear Repulsion Energy =              0.0000000000000000
    One-Electron Energy =                -641.1288905342453290
    Two-Electron Energy =                 181.5553549019001025
    Total Energy =                       -459.5735356323452265

Computation Completed


Properties will be evaluated at   0.000000,   0.000000,   0.000000 [a0]

Properties computed using the SCF density matrix


 Multipole Moments:

 ------------------------------------------------------------------------------------
     Multipole            Electronic (a.u.)      Nuclear  (a.u.)        Total (a.u.)
 ------------------------------------------------------------------------------------

 L = 1.  Multiply by 2.5417464519 to convert [e a0] to [Debye]
 Dipole X            :          0.0003728            0.0000000            0.0003728
 Dipole Y            :          0.0005759            0.0000000            0.0005759
 Dipole Z            :          0.0000000            0.0000000            0.0000000
 Magnitude           :                                                    0.0006860

 ------------------------------------------------------------------------------------

*** tstop() called on ddmfs1 at Mon Jan 22 11:31:53 2024
Module time:
	user time   =      19.63 seconds =       0.33 minutes
	system time =       2.22 seconds =       0.04 minutes
	total time  =          2 seconds =       0.03 minutes
Total time:
	user time   =      19.63 seconds =       0.33 minutes
	system time =       2.22 seconds =       0.04 minutes
	total time  =          2 seconds =       0.03 minutes

*** tstart() called on ddmfs1
*** at Mon Jan 22 11:31:53 2024


  //>>>>>>>>>>>>>>>>>>>>>>>>>>>>>>>>>>>//
  //               DFMP2               //
  //<<<<<<<<<<<<<<<<<<<<<<<<<<<<<<<<<<<//

   => Loading Basis Set <=

    Name: (AUG-CC-PVTZ AUX)
    Role: RIFIT
    Keyword: DF_BASIS_MP2
    atoms 1   entry CL         line   742 file /ddmfs1b/softs/psi4conda/share/psi4/basis/aug-cc-pvtz-ri.gbs 
    atoms 2-3 entry LI         line    90 file /ddmfs1b/softs/psi4conda/share/psi4/basis/def2-qzvpp-ri.gbs 

	 --------------------------------------------------------
	                          DF-MP2                         
	      2nd-Order Density-Fitted Moller-Plesset Theory     
	              RMP2 Wavefunction,  20 Threads             
	                                                         
	        Rob Parrish, Justin Turney, Andy Simmonett,      
	           Ed Hohenstein, and C. David Sherrill          
	 --------------------------------------------------------

   => Auxiliary Basis Set <=

  Basis Set: (AUG-CC-PVTZ AUX)
    Blend: AUG-CC-PVTZ-RI + DEF2-QZVPP-RI
    Number of shells: 91
    Number of basis functions: 349
    Number of Cartesian functions: 451
    Spherical Harmonics?: true
    Max angular momentum: 4

	 --------------------------------------------------------
	                 NBF =   142, NAUX =   349
	 --------------------------------------------------------
	   CLASS    FOCC     OCC    AOCC    AVIR     VIR    FVIR
	   PAIRS       0       9       9     133     133       0
	 --------------------------------------------------------

	-----------------------------------------------------------
	 ==================> DF-MP2 Energies <==================== 
	-----------------------------------------------------------
	 Reference Energy          =    -459.5735356323452265 [Eh]
	 Singles Energy            =      -0.0000000000000000 [Eh]
	 Same-Spin Energy          =      -0.0630005387722745 [Eh]
	 Opposite-Spin Energy      =      -0.1813387235529635 [Eh]
	 Correlation Energy        =      -0.2443392623252381 [Eh]
	 Total Energy              =    -459.8178748946704673 [Eh]
	-----------------------------------------------------------
	 ================> DF-SCS-MP2 Energies <================== 
	-----------------------------------------------------------
	 SCS Same-Spin Scale       =       0.3333333333333333 [-]
	 SCS Opposite-Spin Scale   =       1.2000000000000000 [-]
	 SCS Same-Spin Energy      =      -0.0210001795907582 [Eh]
	 SCS Opposite-Spin Energy  =      -0.2176064682635563 [Eh]
	 SCS Correlation Energy    =      -0.2386066478543144 [Eh]
	 SCS Total Energy          =    -459.8121422801995664 [Eh]
	-----------------------------------------------------------


*** tstop() called on ddmfs1 at Mon Jan 22 11:31:54 2024
Module time:
	user time   =       7.76 seconds =       0.13 minutes
	system time =       0.65 seconds =       0.01 minutes
	total time  =          1 seconds =       0.02 minutes
Total time:
	user time   =      27.41 seconds =       0.46 minutes
	system time =       2.87 seconds =       0.05 minutes
	total time  =          3 seconds =       0.05 minutes

    Psi4 stopped on: Monday, 22 January 2024 11:31AM
    Psi4 wall time for execution: 0:00:03.02

*** Psi4 exiting successfully. Buy a developer a beer!
