
    -----------------------------------------------------------------------
          Psi4: An Open-Source Ab Initio Electronic Structure Package
                               Psi4 1.8.2 release

                         Git: Rev {} zzzzzzz 


    D. G. A. Smith, L. A. Burns, A. C. Simmonett, R. M. Parrish,
    M. C. Schieber, R. Galvelis, P. Kraus, H. Kruse, R. Di Remigio,
    A. Alenaizan, A. M. James, S. Lehtola, J. P. Misiewicz, M. Scheurer,
    R. A. Shaw, J. B. Schriber, Y. Xie, Z. L. Glick, D. A. Sirianni,
    J. S. O'Brien, J. M. Waldrop, A. Kumar, E. G. Hohenstein,
    B. P. Pritchard, B. R. Brooks, H. F. Schaefer III, A. Yu. Sokolov,
    K. Patkowski, A. E. DePrince III, U. Bozkaya, R. A. King,
    F. A. Evangelista, J. M. Turney, T. D. Crawford, C. D. Sherrill,
    J. Chem. Phys. 152(18) 184108 (2020). https://doi.org/10.1063/5.0006002

                            Additional Code Authors
    E. T. Seidl, C. L. Janssen, E. F. Valeev, M. L. Leininger,
    J. F. Gonthier, R. M. Richard, H. R. McAlexander, M. Saitow, X. Wang,
    P. Verma, M. H. Lechner, A. Jiang, S. Behnle, A. G. Heide,
    M. F. Herbst, and D. L. Poole

             Previous Authors, Complete List of Code Contributors,
                       and Citations for Specific Modules
    https://github.com/psi4/psi4/blob/master/codemeta.json
    https://github.com/psi4/psi4/graphs/contributors
    http://psicode.org/psi4manual/master/introduction.html#citing-psifour

    -----------------------------------------------------------------------


    Psi4 started on: Monday, 22 January 2024 11:34AM

    Process ID: 42712
    Host:       ddmfs1
    PSIDATADIR: /ddmfs1b/softs/psi4conda/share/psi4
    Memory:     500.0 MiB
    Threads:    20
    
  ==> Input File <==

--------------------------------------------------------------------------
MEMORY 60 GB

molecule dimer {
-1 1
Li         0.000000     0.000000     0.000000
Cl         0.000000     2.029797     0.000000
Cl         2.638736     0.000000     0.000000

units ang
no_reorient
no_com
symmetry c1
}

set {
basis        aug-cc-pVTZ
scf_type     df
}

energy("mp2")
--------------------------------------------------------------------------

  Memory set to  55.879 GiB by Python driver.

Scratch directory: /ddmfs1a/scratch/
   => Libint2 <=

    Primary   basis highest AM E, G, H:  5, 4, 3
    Auxiliary basis highest AM E, G, H:  6, 5, 4
    Onebody   basis highest AM E, G, H:  6, 5, 4
    Solid Harmonics ordering:            gaussian

*** tstart() called on ddmfs1
*** at Mon Jan 22 11:34:08 2024

   => Loading Basis Set <=

    Name: AUG-CC-PVTZ
    Role: ORBITAL
    Keyword: BASIS
    atoms 1   entry LI         line    85 file /ddmfs1b/softs/psi4conda/share/psi4/basis/aug-cc-pvtz.gbs 
    atoms 2-3 entry CL         line   988 file /ddmfs1b/softs/psi4conda/share/psi4/basis/aug-cc-pvtz.gbs 


         ---------------------------------------------------------
                                   SCF
               by Justin Turney, Rob Parrish, Andy Simmonett
                          and Daniel G. A. Smith
                              RHF Reference
                       20 Threads,  57220 MiB Core
         ---------------------------------------------------------

  ==> Geometry <==

    Molecular point group: c1
    Full point group: Cs

    Geometry (in Angstrom), charge = -1, multiplicity = 1:

       Center              X                  Y                   Z               Mass       
    ------------   -----------------  -----------------  -----------------  -----------------
         LI           0.000000000000     0.000000000000     0.000000000000     7.016003436600
         CL           0.000000000000     2.029797000000     0.000000000000    34.968852682000
         CL           2.638736000000     0.000000000000     0.000000000000    34.968852682000

  Running in c1 symmetry.

  Rotational constants: A =      0.11701  B =      0.06923  C =      0.04350 [cm^-1]
  Rotational constants: A =   3507.76591  B =   2075.60129  C =   1304.00226 [MHz]
  Nuclear repulsion =   69.461372871448162

  Charge       = -1
  Multiplicity = 1
  Electrons    = 38
  Nalpha       = 19
  Nbeta        = 19

  ==> Algorithm <==

  SCF Algorithm Type is DF.
  DIIS enabled.
  MOM disabled.
  Fractional occupation disabled.
  Guess Type is SAD.
  Energy threshold   = 1.00e-08
  Density threshold  = 1.00e-08
  Integral threshold = 1.00e-12

  ==> Primary Basis <==

  Basis Set: AUG-CC-PVTZ
    Blend: AUG-CC-PVTZ
    Number of shells: 46
    Number of basis functions: 146
    Number of Cartesian functions: 173
    Spherical Harmonics?: true
    Max angular momentum: 3

   => Loading Basis Set <=

    Name: (AUG-CC-PVTZ AUX)
    Role: JKFIT
    Keyword: DF_BASIS_SCF
    atoms 1   entry LI         line    54 file /ddmfs1b/softs/psi4conda/share/psi4/basis/def2-universal-jkfit.gbs 
    atoms 2-3 entry CL         line   816 file /ddmfs1b/softs/psi4conda/share/psi4/basis/aug-cc-pvtz-jkfit.gbs 

  ==> Integral Setup <==

  DFHelper Memory: AOs need 0.063 GiB; user supplied 41.910 GiB. 
  Using in-core AOs.

  ==> MemDFJK: Density-Fitted J/K Matrices <==

    J tasked:                   Yes
    K tasked:                   Yes
    wK tasked:                   No
    OpenMP threads:              20
    Memory [MiB]:             42915
    Algorithm:                 Core
    Schwarz Cutoff:           1E-12
    Mask sparsity (%):       0.0000
    Fitting Condition:        1E-10

   => Auxiliary Basis Set <=

  Basis Set: (AUG-CC-PVTZ AUX)
    Blend: AUG-CC-PVTZ-JKFIT + DEF2-UNIVERSAL-JKFIT
    Number of shells: 101
    Number of basis functions: 343
    Number of Cartesian functions: 420
    Spherical Harmonics?: true
    Max angular momentum: 4

  Minimum eigenvalue in the overlap matrix is 5.2662825472E-04.
  Reciprocal condition number of the overlap matrix is 8.2910053848E-05.
    Using symmetric orthogonalization.

  ==> Pre-Iterations <==

  SCF Guess: Superposition of Atomic Densities via on-the-fly atomic UHF (no occupation information).

   -------------------------
    Irrep   Nso     Nmo    
   -------------------------
     A        146     146 
   -------------------------
    Total     146     146
   -------------------------

  ==> Iterations <==

                           Total Energy        Delta E     RMS |[F,P]|

   @DF-RHF iter SAD:  -925.71078581697452   -9.25711e+02   0.00000e+00 
   @DF-RHF iter   1:  -926.54887479372337   -8.38089e-01   2.81312e-03 DIIS/ADIIS
   @DF-RHF iter   2:  -926.64171197003441   -9.28372e-02   1.33550e-03 DIIS/ADIIS
   @DF-RHF iter   3:  -926.65588516080220   -1.41732e-02   8.68645e-05 DIIS
   @DF-RHF iter   4:  -926.65600833519420   -1.23174e-04   2.33886e-05 DIIS
   @DF-RHF iter   5:  -926.65602298219437   -1.46470e-05   7.32939e-06 DIIS
   @DF-RHF iter   6:  -926.65602449599930   -1.51380e-06   1.82152e-06 DIIS
   @DF-RHF iter   7:  -926.65602466384064   -1.67841e-07   3.84984e-07 DIIS
   @DF-RHF iter   8:  -926.65602467000747   -6.16683e-09   1.37378e-07 DIIS
   @DF-RHF iter   9:  -926.65602467085932   -8.51855e-10   3.05295e-08 DIIS
   @DF-RHF iter  10:  -926.65602467090844   -4.91127e-11   5.76945e-09 DIIS
  Energy and wave function converged.


  ==> Post-Iterations <==

    Orbital Energies [Eh]
    ---------------------

    Doubly Occupied:                                                      

       1A   -104.568388     2A   -104.541835     3A    -10.294544  
       4A    -10.265809     5A     -7.760708     6A     -7.760483  
       7A     -7.760415     8A     -7.731937     9A     -7.731802  
      10A     -7.731737    11A     -2.286297    12A     -0.814125  
      13A     -0.772546    14A     -0.253090    15A     -0.231266  
      16A     -0.224146    17A     -0.193412    18A     -0.185810  
      19A     -0.172236  

    Virtual:                                                              

      20A      0.077380    21A      0.091948    22A      0.092804  
      23A      0.106172    24A      0.130100    25A      0.161358  
      26A      0.170892    27A      0.196672    28A      0.223443  
      29A      0.232340    30A      0.235755    31A      0.237777  
      32A      0.248168    33A      0.257009    34A      0.265902  
      35A      0.282793    36A      0.282985    37A      0.293355  
      38A      0.306042    39A      0.308216    40A      0.310116  
      41A      0.349184    42A      0.396231    43A      0.427220  
      44A      0.450780    45A      0.458204    46A      0.461519  
      47A      0.466359    48A      0.469913    49A      0.476233  
      50A      0.482056    51A      0.488326    52A      0.500863  
      53A      0.525702    54A      0.547188    55A      0.551199  
      56A      0.566132    57A      0.574623    58A      0.606799  
      59A      0.622796    60A      0.639211    61A      0.644537  
      62A      0.662870    63A      0.668589    64A      0.692932  
      65A      0.699299    66A      0.712180    67A      0.732268  
      68A      0.760724    69A      0.828828    70A      0.885202  
      71A      0.904176    72A      0.912746    73A      0.918420  
      74A      0.925658    75A      0.937042    76A      0.938226  
      77A      0.975404    78A      0.991025    79A      1.001702  
      80A      1.018101    81A      1.024587    82A      1.045538  
      83A      1.092647    84A      1.096845    85A      1.112522  
      86A      1.195227    87A      1.199161    88A      1.215441  
      89A      1.231270    90A      1.248072    91A      1.259285  
      92A      1.297414    93A      1.316288    94A      1.317828  
      95A      1.348434    96A      1.397396    97A      1.404337  
      98A      1.439083    99A      1.453838   100A      1.460447  
     101A      1.481473   102A      1.490130   103A      1.537824  
     104A      1.569968   105A      1.605463   106A      1.632851  
     107A      1.679661   108A      1.688990   109A      1.762551  
     110A      1.782411   111A      1.801240   112A      1.899808  
     113A      1.921478   114A      2.820044   115A      2.828102  
     116A      2.848799   117A      2.856815   118A      2.870799  
     119A      2.873882   120A      2.882196   121A      2.891631  
     122A      2.892430   123A      2.933730   124A      3.054933  
     125A      3.073738   126A      3.134191   127A      3.203248  
     128A      3.274467   129A      3.298753   130A      3.307796  
     131A      3.345157   132A      3.348459   133A      3.366061  
     134A      3.378415   135A      3.403714   136A      3.406742  
     137A      3.455448   138A      3.462338   139A      3.489307  
     140A      3.504944   141A      3.534850   142A      3.569855  
     143A      3.723765   144A      3.986685   145A      6.015695  
     146A      6.284958  

    Final Occupation by Irrep:
              A 
    DOCC [    19 ]
    NA   [    19 ]
    NB   [    19 ]

  @DF-RHF Final Energy:  -926.65602467090844

   => Energetics <=

    Nuclear Repulsion Energy =             69.4613728714481624
    One-Electron Energy =               -1429.6736206434004544
    Two-Electron Energy =                 433.5562231010437131
    Total Energy =                       -926.6560246709084367

Computation Completed


Properties will be evaluated at   0.000000,   0.000000,   0.000000 [a0]

Properties computed using the SCF density matrix


 Multipole Moments:

 ------------------------------------------------------------------------------------
     Multipole            Electronic (a.u.)      Nuclear  (a.u.)        Total (a.u.)
 ------------------------------------------------------------------------------------

 L = 1.  Multiply by 2.5417464519 to convert [e a0] to [Debye]
 Dipole X            :        -88.9466215           84.7703021           -4.1763194
 Dipole Y            :        -68.1091943           65.2079271           -2.9012672
 Dipole Z            :         -0.0000000            0.0000000           -0.0000000
 Magnitude           :                                                    5.0851740

 ------------------------------------------------------------------------------------

*** tstop() called on ddmfs1 at Mon Jan 22 11:34:10 2024
Module time:
	user time   =      24.65 seconds =       0.41 minutes
	system time =       2.71 seconds =       0.05 minutes
	total time  =          2 seconds =       0.03 minutes
Total time:
	user time   =      24.65 seconds =       0.41 minutes
	system time =       2.71 seconds =       0.05 minutes
	total time  =          2 seconds =       0.03 minutes

*** tstart() called on ddmfs1
*** at Mon Jan 22 11:34:10 2024


  //>>>>>>>>>>>>>>>>>>>>>>>>>>>>>>>>>>>//
  //               DFMP2               //
  //<<<<<<<<<<<<<<<<<<<<<<<<<<<<<<<<<<<//

   => Loading Basis Set <=

    Name: (AUG-CC-PVTZ AUX)
    Role: RIFIT
    Keyword: DF_BASIS_MP2
    atoms 1   entry LI         line    90 file /ddmfs1b/softs/psi4conda/share/psi4/basis/def2-qzvpp-ri.gbs 
    atoms 2-3 entry CL         line   742 file /ddmfs1b/softs/psi4conda/share/psi4/basis/aug-cc-pvtz-ri.gbs 

	 --------------------------------------------------------
	                          DF-MP2                         
	      2nd-Order Density-Fitted Moller-Plesset Theory     
	              RMP2 Wavefunction,  20 Threads             
	                                                         
	        Rob Parrish, Justin Turney, Andy Simmonett,      
	           Ed Hohenstein, and C. David Sherrill          
	 --------------------------------------------------------

   => Auxiliary Basis Set <=

  Basis Set: (AUG-CC-PVTZ AUX)
    Blend: AUG-CC-PVTZ-RI + DEF2-QZVPP-RI
    Number of shells: 101
    Number of basis functions: 395
    Number of Cartesian functions: 512
    Spherical Harmonics?: true
    Max angular momentum: 4

	 --------------------------------------------------------
	                 NBF =   146, NAUX =   395
	 --------------------------------------------------------
	   CLASS    FOCC     OCC    AOCC    AVIR     VIR    FVIR
	   PAIRS       0      19      19     127     127       0
	 --------------------------------------------------------

	-----------------------------------------------------------
	 ==================> DF-MP2 Energies <==================== 
	-----------------------------------------------------------
	 Reference Energy          =    -926.6560246709084367 [Eh]
	 Singles Energy            =      -0.0000000000000000 [Eh]
	 Same-Spin Energy          =      -0.1278399823176791 [Eh]
	 Opposite-Spin Energy      =      -0.3755589321375904 [Eh]
	 Correlation Energy        =      -0.5033989144552695 [Eh]
	 Total Energy              =    -927.1594235853636974 [Eh]
	-----------------------------------------------------------
	 ================> DF-SCS-MP2 Energies <================== 
	-----------------------------------------------------------
	 SCS Same-Spin Scale       =       0.3333333333333333 [-]
	 SCS Opposite-Spin Scale   =       1.2000000000000000 [-]
	 SCS Same-Spin Energy      =      -0.0426133274392264 [Eh]
	 SCS Opposite-Spin Energy  =      -0.4506707185651084 [Eh]
	 SCS Correlation Energy    =      -0.4932840460043348 [Eh]
	 SCS Total Energy          =    -927.1493087169127421 [Eh]
	-----------------------------------------------------------


*** tstop() called on ddmfs1 at Mon Jan 22 11:34:12 2024
Module time:
	user time   =       8.61 seconds =       0.14 minutes
	system time =       0.60 seconds =       0.01 minutes
	total time  =          2 seconds =       0.03 minutes
Total time:
	user time   =      33.27 seconds =       0.55 minutes
	system time =       3.31 seconds =       0.06 minutes
	total time  =          4 seconds =       0.07 minutes

    Psi4 stopped on: Monday, 22 January 2024 11:34AM
    Psi4 wall time for execution: 0:00:04.02

*** Psi4 exiting successfully. Buy a developer a beer!
