
    -----------------------------------------------------------------------
          Psi4: An Open-Source Ab Initio Electronic Structure Package
                               Psi4 1.9 release

                         Git: Rev {} zzzzzzz 


    D. G. A. Smith, L. A. Burns, A. C. Simmonett, R. M. Parrish,
    M. C. Schieber, R. Galvelis, P. Kraus, H. Kruse, R. Di Remigio,
    A. Alenaizan, A. M. James, S. Lehtola, J. P. Misiewicz, M. Scheurer,
    R. A. Shaw, J. B. Schriber, Y. Xie, Z. L. Glick, D. A. Sirianni,
    J. S. O'Brien, J. M. Waldrop, A. Kumar, E. G. Hohenstein,
    B. P. Pritchard, B. R. Brooks, H. F. Schaefer III, A. Yu. Sokolov,
    K. Patkowski, A. E. DePrince III, U. Bozkaya, R. A. King,
    F. A. Evangelista, J. M. Turney, T. D. Crawford, C. D. Sherrill,
    J. Chem. Phys. 152(18) 184108 (2020). https://doi.org/10.1063/5.0006002

                            Additional Code Authors
    E. T. Seidl, C. L. Janssen, E. F. Valeev, M. L. Leininger,
    J. F. Gonthier, R. M. Richard, H. R. McAlexander, M. Saitow, X. Wang,
    P. Verma, M. H. Lechner, A. Jiang, S. Behnle, A. G. Heide,
    M. F. Herbst, and D. L. Poole

             Previous Authors, Complete List of Code Contributors,
                       and Citations for Specific Modules
    https://github.com/psi4/psi4/blob/master/codemeta.json
    https://github.com/psi4/psi4/graphs/contributors
    http://psicode.org/psi4manual/master/introduction.html#citing-psifour

    -----------------------------------------------------------------------


    Psi4 started on: Wednesday, 03 January 2024 07:46PM

    Process ID: 434149
    Host:       moses-razer
    PSIDATADIR: /home/kchung25/anaconda3/envs/psi4_19/share/psi4
    Memory:     500.0 MiB
    Threads:    6
    
  ==> Input File <==

--------------------------------------------------------------------------
MEMORY 60 GB

molecule dimer {
0 1
Li     0.000000     0.000000     0.000000
Cl     0.000000     2.029797     0.000000
--
-1 1
Cl     2.435756     0.000000     0.000000

units ang
no_reorient
no_com
symmetry c1
}

set {
basis        aug-cc-pVTZ
scf_type     df
}

energy("mp2", bsse_type="cp")
--------------------------------------------------------------------------

  Memory set to  55.879 GiB by Python driver.

Scratch directory: /scratch/

  //>>>>>>>>>>>>>>>>>>>>>>>>>>>>>>>>>>>>>//
  // ManyBody Setup: N-Body Levels [1, 2]//
  //<<<<<<<<<<<<<<<<<<<<<<<<<<<<<<<<<<<<<//

        Number of 1-body computations:     2
        Number of 2-body computations:     1

    -----------------------------------------------------------------------
          Psi4: An Open-Source Ab Initio Electronic Structure Package
                               Psi4 1.9 release

                         Git: Rev {} zzzzzzz 


    D. G. A. Smith, L. A. Burns, A. C. Simmonett, R. M. Parrish,
    M. C. Schieber, R. Galvelis, P. Kraus, H. Kruse, R. Di Remigio,
    A. Alenaizan, A. M. James, S. Lehtola, J. P. Misiewicz, M. Scheurer,
    R. A. Shaw, J. B. Schriber, Y. Xie, Z. L. Glick, D. A. Sirianni,
    J. S. O'Brien, J. M. Waldrop, A. Kumar, E. G. Hohenstein,
    B. P. Pritchard, B. R. Brooks, H. F. Schaefer III, A. Yu. Sokolov,
    K. Patkowski, A. E. DePrince III, U. Bozkaya, R. A. King,
    F. A. Evangelista, J. M. Turney, T. D. Crawford, C. D. Sherrill,
    J. Chem. Phys. 152(18) 184108 (2020). https://doi.org/10.1063/5.0006002

                            Additional Code Authors
    E. T. Seidl, C. L. Janssen, E. F. Valeev, M. L. Leininger,
    J. F. Gonthier, R. M. Richard, H. R. McAlexander, M. Saitow, X. Wang,
    P. Verma, M. H. Lechner, A. Jiang, S. Behnle, A. G. Heide,
    M. F. Herbst, and D. L. Poole

             Previous Authors, Complete List of Code Contributors,
                       and Citations for Specific Modules
    https://github.com/psi4/psi4/blob/master/codemeta.json
    https://github.com/psi4/psi4/graphs/contributors
    http://psicode.org/psi4manual/master/introduction.html#citing-psifour

    -----------------------------------------------------------------------


    Psi4 started on: Wednesday, 03 January 2024 07:46PM

    Process ID: 434149
    Host:       moses-razer
    PSIDATADIR: /home/kchung25/anaconda3/envs/psi4_19/share/psi4
    Memory:     55.9 GiB
    Threads:    6
    
  ==> Input QCSchema <==

--------------------------------------------------------------------------
{'driver': 'energy',
 'extras': {'psiapi': True, 'wfn_qcvars_only': True},
 'id': None,
 'keywords': {'SCF_TYPE': 'DF', 'function_kwargs': {}},
 'model': {'basis': 'aug-cc-pvtz', 'method': 'mp2'},
 'molecule': {'atom_labels': ['', '', ''],
              'atomic_numbers': [3, 17, 17],
              'extras': {},
              'fix_com': True,
              'fix_orientation': True,
              'fix_symmetry': 'c1',
              'fragment_charges': [0.0, -1.0],
              'fragment_multiplicities': [1, 1],
              'fragments': [[0, 1], [2]],
              'geometry': [0.0, 0.0, 0.0, 0.0, 3.835760420275923, 0.0, 4.602911748440658, 0.0, 0.0],
              'mass_numbers': [7, 35, 35],
              'masses': [7.0160034366, 34.968852682, 34.968852682],
              'molecular_charge': -1.0,
              'molecular_multiplicity': 1,
              'name': 'dimer',
              'provenance': {'creator': 'QCElemental',
                             'routine': 'qcelemental.molparse.from_string',
                             'version': '0.27.1'},
              'real': [False, False, True],
              'schema_name': 'qcschema_molecule',
              'schema_version': 2,
              'symbols': ['Li', 'Cl', 'Cl'],
              'validated': True},
 'protocols': {'stdout': True},
 'provenance': {'creator': 'QCElemental', 'routine': 'qcelemental.models.results', 'version': '0.27.1'},
 'schema_name': 'qcschema_input',
 'schema_version': 1}
--------------------------------------------------------------------------

Scratch directory: /scratch/
   => Libint2 <=

    Primary   basis highest AM E, G, H:  5, 4, 3
    Auxiliary basis highest AM E, G, H:  6, 5, 4
    Onebody   basis highest AM E, G, H:  6, 5, 4
    Solid Harmonics ordering:            gaussian

*** tstart() called on moses-razer
*** at Wed Jan  3 19:46:33 2024

   => Loading Basis Set <=

    Name: AUG-CC-PVTZ
    Role: ORBITAL
    Keyword: BASIS
    atoms 1   entry LI         line    85 file /home/kchung25/anaconda3/envs/p415env/share/psi4/basis/aug-cc-pvtz.gbs 
    atoms 2-3 entry CL         line   988 file /home/kchung25/anaconda3/envs/p415env/share/psi4/basis/aug-cc-pvtz.gbs 


         ---------------------------------------------------------
                                   SCF
               by Justin Turney, Rob Parrish, Andy Simmonett
                          and Daniel G. A. Smith
                              RHF Reference
                        6 Threads,  57220 MiB Core
         ---------------------------------------------------------

  ==> Geometry <==

    Molecular point group: c1
    Full point group: Cs

    Geometry (in Bohr), charge = -1, multiplicity = 1:

       Center              X                  Y                   Z               Mass       
    ------------   -----------------  -----------------  -----------------  -----------------
      Gh(LI)          0.000000000000     0.000000000000     0.000000000000     7.016003436600
      Gh(CL)          0.000000000000     3.835760420276     0.000000000000    34.968852682000
         CL           4.602911748441     0.000000000000     0.000000000000    34.968852682000

  Running in c1 symmetry.

  Rotational constants: A =      0.11701  B =      0.08125  C =      0.04795 [cm^-1]
  Rotational constants: A =   3507.76591  B =   2435.94935  C =   1437.60926 [MHz]
  Nuclear repulsion =    0.000000000000000

  Charge       = -1
  Multiplicity = 1
  Electrons    = 18
  Nalpha       = 9
  Nbeta        = 9

  ==> Algorithm <==

  SCF Algorithm Type is DF.
  DIIS enabled.
  MOM disabled.
  Fractional occupation disabled.
  Guess Type is SAD.
  Energy threshold   = 1.00e-08
  Density threshold  = 1.00e-08
  Integral threshold = 1.00e-12

  ==> Primary Basis <==

  Basis Set: AUG-CC-PVTZ
    Blend: AUG-CC-PVTZ
    Number of shells: 46
    Number of basis functions: 146
    Number of Cartesian functions: 173
    Spherical Harmonics?: true
    Max angular momentum: 3

   => Loading Basis Set <=

    Name: (AUG-CC-PVTZ AUX)
    Role: JKFIT
    Keyword: DF_BASIS_SCF
    atoms 1   entry LI         line    54 file /home/kchung25/anaconda3/envs/p415env/share/psi4/basis/def2-universal-jkfit.gbs 
    atoms 2-3 entry CL         line   816 file /home/kchung25/anaconda3/envs/p415env/share/psi4/basis/aug-cc-pvtz-jkfit.gbs 

  ==> Integral Setup <==

  DFHelper Memory: AOs need 0.061 GiB; user supplied 41.910 GiB. 
  Using in-core AOs.

  ==> MemDFJK: Density-Fitted J/K Matrices <==

    J tasked:                   Yes
    K tasked:                   Yes
    wK tasked:                   No
    OpenMP threads:               6
    Memory [MiB]:             42915
    Algorithm:                 Core
    Schwarz Cutoff:           1E-12
    Mask sparsity (%):       0.0000
    Fitting Condition:        1E-10

   => Auxiliary Basis Set <=

  Basis Set: (AUG-CC-PVTZ AUX)
    Blend: AUG-CC-PVTZ-JKFIT + DEF2-UNIVERSAL-JKFIT
    Number of shells: 101
    Number of basis functions: 343
    Number of Cartesian functions: 420
    Spherical Harmonics?: true
    Max angular momentum: 4

  Minimum eigenvalue in the overlap matrix is 4.4281129161E-04.
  Reciprocal condition number of the overlap matrix is 6.8582814258E-05.
    Using symmetric orthogonalization.

  ==> Pre-Iterations <==

  SCF Guess: Superposition of Atomic Densities via on-the-fly atomic UHF (no occupation information).

   -------------------------
    Irrep   Nso     Nmo    
   -------------------------
     A        146     146 
   -------------------------
    Total     146     146
   -------------------------

  ==> Iterations <==

                           Total Energy        Delta E     RMS |[F,P]|

   @DF-RHF iter SAD:  -459.11248997395370   -4.59112e+02   0.00000e+00 
   @DF-RHF iter   1:  -459.51385401799320   -4.01364e-01   2.04353e-03 DIIS/ADIIS
   @DF-RHF iter   2:  -459.56475158891573   -5.08976e-02   1.04568e-03 DIIS/ADIIS
   @DF-RHF iter   3:  -459.57345657501770   -8.70499e-03   6.93784e-05 DIIS
   @DF-RHF iter   4:  -459.57351108664295   -5.45116e-05   1.42264e-05 DIIS
   @DF-RHF iter   5:  -459.57351472584736   -3.63920e-06   1.44788e-06 DIIS
   @DF-RHF iter   6:  -459.57351480473403   -7.88867e-08   1.16273e-07 DIIS
   @DF-RHF iter   7:  -459.57351480545401   -7.19979e-10   1.41822e-08 DIIS
   @DF-RHF iter   8:  -459.57351480547118   -1.71667e-11   2.17725e-09 DIIS
  Energy and wave function converged.


  ==> Post-Iterations <==

    Orbital Energies [Eh]
    ---------------------

    Doubly Occupied:                                                      

       1A   -104.506506     2A    -10.229878     3A     -7.695935  
       4A     -7.695928     5A     -7.695904     6A     -0.733498  
       7A     -0.150336     8A     -0.150323     9A     -0.150322  

    Virtual:                                                              

      10A      0.080716    11A      0.092012    12A      0.092954  
      13A      0.105437    14A      0.153146    15A      0.168093  
      16A      0.172957    17A      0.189165    18A      0.217624  
      19A      0.226372    20A      0.239078    21A      0.243921  
      22A      0.258720    23A      0.271229    24A      0.272571  
      25A      0.275145    26A      0.282287    27A      0.294399  
      28A      0.307366    29A      0.314682    30A      0.351754  
      31A      0.357087    32A      0.399860    33A      0.420508  
      34A      0.446003    35A      0.471361    36A      0.477049  
      37A      0.489261    38A      0.498457    39A      0.498681  
      40A      0.501616    41A      0.517399    42A      0.518960  
      43A      0.530554    44A      0.538027    45A      0.552287  
      46A      0.632336    47A      0.635511    48A      0.639560  
      49A      0.664078    50A      0.668743    51A      0.675359  
      52A      0.682188    53A      0.696433    54A      0.701094  
      55A      0.704074    56A      0.743026    57A      0.751355  
      58A      0.760616    59A      0.786454    60A      0.871726  
      61A      0.935705    62A      0.961800    63A      0.973281  
      64A      0.992563    65A      1.011349    66A      1.011787  
      67A      1.031965    68A      1.041187    69A      1.050804  
      70A      1.081840    71A      1.105895    72A      1.115585  
      73A      1.150258    74A      1.191628    75A      1.214600  
      76A      1.253887    77A      1.281058    78A      1.285630  
      79A      1.314152    80A      1.381481    81A      1.381726  
      82A      1.386558    83A      1.400821    84A      1.425737  
      85A      1.489026    86A      1.503443    87A      1.538543  
      88A      1.569530    89A      1.570096    90A      1.597420  
      91A      1.630304    92A      1.630544    93A      1.651788  
      94A      1.728843    95A      1.732492    96A      1.739157  
      97A      1.762814    98A      1.782590    99A      1.809009  
     100A      1.809376   101A      1.866201   102A      1.903473  
     103A      2.026644   104A      2.027936   105A      2.083920  
     106A      2.156781   107A      2.233932   108A      2.586935  
     109A      2.876706   110A      2.885673   111A      2.928478  
     112A      2.947044   113A      2.997059   114A      3.129562  
     115A      3.171555   116A      3.332113   117A      3.394851  
     118A      3.401950   119A      3.450601   120A      3.500007  
     121A      3.562197   122A      3.622998   123A      3.655050  
     124A      4.132053   125A      4.141540   126A      4.221312  
     127A      4.229136   128A      4.229436   129A      4.245054  
     130A      4.311284   131A      4.329482   132A      4.400836  
     133A      4.471263   134A      4.721715   135A      4.893818  
     136A      4.906763   137A      4.966446   138A      4.998234  
     139A      5.117385   140A      6.220340   141A     11.270248  
     142A     14.795864   143A     28.072053   144A     28.165481  
     145A     28.341379   146A    161.029400  

    Final Occupation by Irrep:
              A 
    DOCC [     9 ]
    NA   [     9 ]
    NB   [     9 ]

  @DF-RHF Final Energy:  -459.57351480547118

   => Energetics <=

    Nuclear Repulsion Energy =              0.0000000000000000
    One-Electron Energy =                -641.1297653319156780
    Two-Electron Energy =                 181.5562505264444439
    Total Energy =                       -459.5735148054712340

Computation Completed


Properties will be evaluated at   0.000000,   0.000000,   0.000000 [a0]

Properties computed using the SCF density matrix


 Multipole Moments:

 ------------------------------------------------------------------------------------
     Multipole            Electronic (a.u.)      Nuclear  (a.u.)        Total (a.u.)
 ------------------------------------------------------------------------------------

 L = 1.  Multiply by 2.5417464519 to convert [e a0] to [Debye]
 Dipole X            :        -82.8531574           78.2494997           -4.6036576
 Dipole Y            :          0.0001398            0.0000000            0.0001398
 Dipole Z            :          0.0000000            0.0000000            0.0000000
 Magnitude           :                                                    4.6036576

 ------------------------------------------------------------------------------------

*** tstop() called on moses-razer at Wed Jan  3 19:46:34 2024
Module time:
	user time   =       5.05 seconds =       0.08 minutes
	system time =       0.42 seconds =       0.01 minutes
	total time  =          1 seconds =       0.02 minutes
Total time:
	user time   =       5.05 seconds =       0.08 minutes
	system time =       0.42 seconds =       0.01 minutes
	total time  =          1 seconds =       0.02 minutes

*** tstart() called on moses-razer
*** at Wed Jan  3 19:46:34 2024


  //>>>>>>>>>>>>>>>>>>>>>>>>>>>>>>>>>>>//
  //               DFMP2               //
  //<<<<<<<<<<<<<<<<<<<<<<<<<<<<<<<<<<<//

   => Loading Basis Set <=

    Name: (AUG-CC-PVTZ AUX)
    Role: RIFIT
    Keyword: DF_BASIS_MP2
    atoms 1   entry LI         line    90 file /home/kchung25/anaconda3/envs/p415env/share/psi4/basis/def2-qzvpp-ri.gbs 
    atoms 2-3 entry CL         line   742 file /home/kchung25/anaconda3/envs/p415env/share/psi4/basis/aug-cc-pvtz-ri.gbs 

	 --------------------------------------------------------
	                          DF-MP2                         
	      2nd-Order Density-Fitted Moller-Plesset Theory     
	              RMP2 Wavefunction,   6 Threads             
	                                                         
	        Rob Parrish, Justin Turney, Andy Simmonett,      
	           Ed Hohenstein, and C. David Sherrill          
	 --------------------------------------------------------

   => Auxiliary Basis Set <=

  Basis Set: (AUG-CC-PVTZ AUX)
    Blend: AUG-CC-PVTZ-RI + DEF2-QZVPP-RI
    Number of shells: 101
    Number of basis functions: 395
    Number of Cartesian functions: 512
    Spherical Harmonics?: true
    Max angular momentum: 4

	 --------------------------------------------------------
	                 NBF =   146, NAUX =   395
	 --------------------------------------------------------
	   CLASS    FOCC     OCC    AOCC    AVIR     VIR    FVIR
	   PAIRS       0       9       9     137     137       0
	 --------------------------------------------------------

	-----------------------------------------------------------
	 ==================> DF-MP2 Energies <==================== 
	-----------------------------------------------------------
	 Reference Energy          =    -459.5735148054711772 [Eh]
	 Singles Energy            =      -0.0000000000000000 [Eh]
	 Same-Spin Energy          =      -0.0627169476949834 [Eh]
	 Opposite-Spin Energy      =      -0.1802589945151341 [Eh]
	 Correlation Energy        =      -0.2429759422101175 [Eh]
	 Total Energy              =    -459.8164907476813141 [Eh]
	-----------------------------------------------------------
	 ================> DF-SCS-MP2 Energies <================== 
	-----------------------------------------------------------
	 SCS Same-Spin Scale       =       0.3333333333333333 [-]
	 SCS Opposite-Spin Scale   =       1.2000000000000000 [-]
	 SCS Same-Spin Energy      =      -0.0209056492316611 [Eh]
	 SCS Opposite-Spin Energy  =      -0.2163107934181609 [Eh]
	 SCS Correlation Energy    =      -0.2372164426498221 [Eh]
	 SCS Total Energy          =    -459.8107312481209874 [Eh]
	-----------------------------------------------------------


*** tstop() called on moses-razer at Wed Jan  3 19:46:35 2024
Module time:
	user time   =       2.23 seconds =       0.04 minutes
	system time =       0.13 seconds =       0.00 minutes
	total time  =          1 seconds =       0.02 minutes
Total time:
	user time   =       7.28 seconds =       0.12 minutes
	system time =       0.55 seconds =       0.01 minutes
	total time  =          2 seconds =       0.03 minutes

    Psi4 stopped on: Wednesday, 03 January 2024 07:46PM
    Psi4 wall time for execution: 0:00:01.80


    -----------------------------------------------------------------------
          Psi4: An Open-Source Ab Initio Electronic Structure Package
                               Psi4 1.9 release

                         Git: Rev {} zzzzzzz 


    D. G. A. Smith, L. A. Burns, A. C. Simmonett, R. M. Parrish,
    M. C. Schieber, R. Galvelis, P. Kraus, H. Kruse, R. Di Remigio,
    A. Alenaizan, A. M. James, S. Lehtola, J. P. Misiewicz, M. Scheurer,
    R. A. Shaw, J. B. Schriber, Y. Xie, Z. L. Glick, D. A. Sirianni,
    J. S. O'Brien, J. M. Waldrop, A. Kumar, E. G. Hohenstein,
    B. P. Pritchard, B. R. Brooks, H. F. Schaefer III, A. Yu. Sokolov,
    K. Patkowski, A. E. DePrince III, U. Bozkaya, R. A. King,
    F. A. Evangelista, J. M. Turney, T. D. Crawford, C. D. Sherrill,
    J. Chem. Phys. 152(18) 184108 (2020). https://doi.org/10.1063/5.0006002

                            Additional Code Authors
    E. T. Seidl, C. L. Janssen, E. F. Valeev, M. L. Leininger,
    J. F. Gonthier, R. M. Richard, H. R. McAlexander, M. Saitow, X. Wang,
    P. Verma, M. H. Lechner, A. Jiang, S. Behnle, A. G. Heide,
    M. F. Herbst, and D. L. Poole

             Previous Authors, Complete List of Code Contributors,
                       and Citations for Specific Modules
    https://github.com/psi4/psi4/blob/master/codemeta.json
    https://github.com/psi4/psi4/graphs/contributors
    http://psicode.org/psi4manual/master/introduction.html#citing-psifour

    -----------------------------------------------------------------------


    Psi4 started on: Wednesday, 03 January 2024 07:46PM

    Process ID: 434149
    Host:       moses-razer
    PSIDATADIR: /home/kchung25/anaconda3/envs/psi4_19/share/psi4
    Memory:     55.9 GiB
    Threads:    6
    
  ==> Input QCSchema <==

--------------------------------------------------------------------------
{'driver': 'energy',
 'extras': {'psiapi': True, 'wfn_qcvars_only': True},
 'id': None,
 'keywords': {'SCF_TYPE': 'DF', 'function_kwargs': {}},
 'model': {'basis': 'aug-cc-pvtz', 'method': 'mp2'},
 'molecule': {'atom_labels': ['', '', ''],
              'atomic_numbers': [3, 17, 17],
              'extras': {},
              'fix_com': True,
              'fix_orientation': True,
              'fix_symmetry': 'c1',
              'fragment_charges': [0.0, 0.0],
              'fragment_multiplicities': [1, 1],
              'fragments': [[0, 1], [2]],
              'geometry': [0.0, 0.0, 0.0, 0.0, 3.835760420275923, 0.0, 4.602911748440658, 0.0, 0.0],
              'mass_numbers': [7, 35, 35],
              'masses': [7.0160034366, 34.968852682, 34.968852682],
              'molecular_charge': 0.0,
              'molecular_multiplicity': 1,
              'name': 'dimer',
              'provenance': {'creator': 'QCElemental',
                             'routine': 'qcelemental.molparse.from_string',
                             'version': '0.27.1'},
              'real': [True, True, False],
              'schema_name': 'qcschema_molecule',
              'schema_version': 2,
              'symbols': ['Li', 'Cl', 'Cl'],
              'validated': True},
 'protocols': {'stdout': True},
 'provenance': {'creator': 'QCElemental', 'routine': 'qcelemental.models.results', 'version': '0.27.1'},
 'schema_name': 'qcschema_input',
 'schema_version': 1}
--------------------------------------------------------------------------

Scratch directory: /scratch/
   => Libint2 <=

    Primary   basis highest AM E, G, H:  5, 4, 3
    Auxiliary basis highest AM E, G, H:  6, 5, 4
    Onebody   basis highest AM E, G, H:  6, 5, 4
    Solid Harmonics ordering:            gaussian

*** tstart() called on moses-razer
*** at Wed Jan  3 19:46:35 2024

   => Loading Basis Set <=

    Name: AUG-CC-PVTZ
    Role: ORBITAL
    Keyword: BASIS
    atoms 1   entry LI         line    85 file /home/kchung25/anaconda3/envs/p415env/share/psi4/basis/aug-cc-pvtz.gbs 
    atoms 2-3 entry CL         line   988 file /home/kchung25/anaconda3/envs/p415env/share/psi4/basis/aug-cc-pvtz.gbs 


         ---------------------------------------------------------
                                   SCF
               by Justin Turney, Rob Parrish, Andy Simmonett
                          and Daniel G. A. Smith
                              RHF Reference
                        6 Threads,  57220 MiB Core
         ---------------------------------------------------------

  ==> Geometry <==

    Molecular point group: c1
    Full point group: Cs

    Geometry (in Bohr), charge = 0, multiplicity = 1:

       Center              X                  Y                   Z               Mass       
    ------------   -----------------  -----------------  -----------------  -----------------
         LI           0.000000000000     0.000000000000     0.000000000000     7.016003436600
         CL           0.000000000000     3.835760420276     0.000000000000    34.968852682000
      Gh(CL)          4.602911748441     0.000000000000     0.000000000000    34.968852682000

  Running in c1 symmetry.

  Rotational constants: A =      0.11701  B =      0.08125  C =      0.04795 [cm^-1]
  Rotational constants: A =   3507.76591  B =   2435.94935  C =   1437.60926 [MHz]
  Nuclear repulsion =   13.295929466922063

  Charge       = 0
  Multiplicity = 1
  Electrons    = 20
  Nalpha       = 10
  Nbeta        = 10

  ==> Algorithm <==

  SCF Algorithm Type is DF.
  DIIS enabled.
  MOM disabled.
  Fractional occupation disabled.
  Guess Type is SAD.
  Energy threshold   = 1.00e-08
  Density threshold  = 1.00e-08
  Integral threshold = 1.00e-12

  ==> Primary Basis <==

  Basis Set: AUG-CC-PVTZ
    Blend: AUG-CC-PVTZ
    Number of shells: 46
    Number of basis functions: 146
    Number of Cartesian functions: 173
    Spherical Harmonics?: true
    Max angular momentum: 3

   => Loading Basis Set <=

    Name: (AUG-CC-PVTZ AUX)
    Role: JKFIT
    Keyword: DF_BASIS_SCF
    atoms 1   entry LI         line    54 file /home/kchung25/anaconda3/envs/p415env/share/psi4/basis/def2-universal-jkfit.gbs 
    atoms 2-3 entry CL         line   816 file /home/kchung25/anaconda3/envs/p415env/share/psi4/basis/aug-cc-pvtz-jkfit.gbs 

  ==> Integral Setup <==

  DFHelper Memory: AOs need 0.061 GiB; user supplied 41.910 GiB. 
  Using in-core AOs.

  ==> MemDFJK: Density-Fitted J/K Matrices <==

    J tasked:                   Yes
    K tasked:                   Yes
    wK tasked:                   No
    OpenMP threads:               6
    Memory [MiB]:             42915
    Algorithm:                 Core
    Schwarz Cutoff:           1E-12
    Mask sparsity (%):       0.0000
    Fitting Condition:        1E-10

   => Auxiliary Basis Set <=

  Basis Set: (AUG-CC-PVTZ AUX)
    Blend: AUG-CC-PVTZ-JKFIT + DEF2-UNIVERSAL-JKFIT
    Number of shells: 101
    Number of basis functions: 343
    Number of Cartesian functions: 420
    Spherical Harmonics?: true
    Max angular momentum: 4

  Minimum eigenvalue in the overlap matrix is 4.4281129161E-04.
  Reciprocal condition number of the overlap matrix is 6.8582814258E-05.
    Using symmetric orthogonalization.

  ==> Pre-Iterations <==

  SCF Guess: Superposition of Atomic Densities via on-the-fly atomic UHF (no occupation information).

   -------------------------
    Irrep   Nso     Nmo    
   -------------------------
     A        146     146 
   -------------------------
    Total     146     146
   -------------------------

  ==> Iterations <==

                           Total Energy        Delta E     RMS |[F,P]|

   @DF-RHF iter SAD:  -466.52814302299799   -4.66528e+02   0.00000e+00 
   @DF-RHF iter   1:  -467.00429959882456   -4.76157e-01   1.94633e-03 DIIS/ADIIS
   @DF-RHF iter   2:  -467.04625529090242   -4.19557e-02   8.76868e-04 DIIS/ADIIS
   @DF-RHF iter   3:  -467.05205044949241   -5.79516e-03   5.47828e-05 DIIS
   @DF-RHF iter   4:  -467.05209155248525   -4.11030e-05   1.17039e-05 DIIS
   @DF-RHF iter   5:  -467.05209467259419   -3.12011e-06   3.02343e-06 DIIS
   @DF-RHF iter   6:  -467.05209486665996   -1.94066e-07   6.69900e-07 DIIS
   @DF-RHF iter   7:  -467.05209488806059   -2.14006e-08   9.40759e-08 DIIS
   @DF-RHF iter   8:  -467.05209488855769   -4.97096e-10   1.47741e-08 DIIS
   @DF-RHF iter   9:  -467.05209488856997   -1.22782e-11   2.98612e-09 DIIS
  Energy and wave function converged.


  ==> Post-Iterations <==

    Orbital Energies [Eh]
    ---------------------

    Doubly Occupied:                                                      

       1A   -104.729697     2A    -10.455267     3A     -7.921445  
       4A     -7.921174     5A     -7.921167     6A     -2.481153  
       7A     -0.972351     8A     -0.407273     9A     -0.379544  
      10A     -0.379527  

    Virtual:                                                              

      11A     -0.015550    12A      0.015455    13A      0.015828  
      14A      0.018997    15A      0.027095    16A      0.048650  
      17A      0.050657    18A      0.070131    19A      0.086145  
      20A      0.100616    21A      0.108224    22A      0.114734  
      23A      0.120446    24A      0.120907    25A      0.130454  
      26A      0.142112    27A      0.149377    28A      0.153690  
      29A      0.159605    30A      0.178614    31A      0.182382  
      32A      0.188078    33A      0.218772    34A      0.247877  
      35A      0.282339    36A      0.300363    37A      0.301601  
      38A      0.318317    39A      0.324170    40A      0.324512  
      41A      0.330408    42A      0.337186    43A      0.343367  
      44A      0.354596    45A      0.378847    46A      0.383098  
      47A      0.403285    48A      0.410772    49A      0.429000  
      50A      0.458073    51A      0.472115    52A      0.490419  
      53A      0.496289    54A      0.506656    55A      0.511973  
      56A      0.520234    57A      0.528836    58A      0.555242  
      59A      0.557230    60A      0.591446    61A      0.638531  
      62A      0.672249    63A      0.683336    64A      0.721998  
      65A      0.741980    66A      0.752006    67A      0.761133  
      68A      0.767549    69A      0.780554    70A      0.795593  
      71A      0.803809    72A      0.832738    73A      0.855579  
      74A      0.876000    75A      0.924340    76A      0.936129  
      77A      0.942003    78A      0.979392    79A      1.048045  
      80A      1.094213    81A      1.114599    82A      1.183634  
      83A      1.186398    84A      1.220978    85A      1.229000  
      86A      1.295908    87A      1.303190    88A      1.329298  
      89A      1.344149    90A      1.352890    91A      1.396655  
      92A      1.401038    93A      1.431335    94A      1.460590  
      95A      1.479759    96A      1.507540    97A      1.540465  
      98A      1.542563    99A      1.566311   100A      1.583036  
     101A      1.618426   102A      1.622514   103A      1.651941  
     104A      1.668758   105A      1.691843   106A      1.782149  
     107A      1.820684   108A      1.908529   109A      2.685624  
     110A      2.696505   111A      2.717297   112A      2.743855  
     113A      2.758072   114A      2.978987   115A      3.034710  
     116A      3.133711   117A      3.183910   118A      3.205372  
     119A      3.224851   120A      3.264532   121A      3.324652  
     122A      3.332505   123A      3.431862   124A      3.780024  
     125A      3.923478   126A      3.924982   127A      3.975841  
     128A      3.986729   129A      4.000452   130A      4.030711  
     131A      4.068329   132A      4.107413   133A      4.174631  
     134A      4.225221   135A      4.454915   136A      4.674333  
     137A      4.683451   138A      4.743301   139A      4.765625  
     140A      4.803472   141A      6.146370   142A     14.427947  
     143A     27.802567   144A     27.862193   145A     28.076567  
     146A    160.806302  

    Final Occupation by Irrep:
              A 
    DOCC [    10 ]
    NA   [    10 ]
    NB   [    10 ]

  @DF-RHF Final Energy:  -467.05209488856997

   => Energetics <=

    Nuclear Repulsion Energy =             13.2959294669220629
    One-Electron Energy =                -673.5588518470193549
    Two-Electron Energy =                 193.2108274915273114
    Total Energy =                       -467.0520948885699681

Computation Completed


Properties will be evaluated at   0.000000,   0.000000,   0.000000 [a0]

Properties computed using the SCF density matrix


 Multipole Moments:

 ------------------------------------------------------------------------------------
     Multipole            Electronic (a.u.)      Nuclear  (a.u.)        Total (a.u.)
 ------------------------------------------------------------------------------------

 L = 1.  Multiply by 2.5417464519 to convert [e a0] to [Debye]
 Dipole X            :         -0.0000273            0.0000000           -0.0000273
 Dipole Y            :        -68.0890905           65.2079271           -2.8811634
 Dipole Z            :          0.0000000            0.0000000            0.0000000
 Magnitude           :                                                    2.8811634

 ------------------------------------------------------------------------------------

*** tstop() called on moses-razer at Wed Jan  3 19:46:36 2024
Module time:
	user time   =       5.17 seconds =       0.09 minutes
	system time =       0.39 seconds =       0.01 minutes
	total time  =          1 seconds =       0.02 minutes
Total time:
	user time   =      12.67 seconds =       0.21 minutes
	system time =       0.94 seconds =       0.02 minutes
	total time  =          3 seconds =       0.05 minutes

*** tstart() called on moses-razer
*** at Wed Jan  3 19:46:36 2024


  //>>>>>>>>>>>>>>>>>>>>>>>>>>>>>>>>>>>//
  //               DFMP2               //
  //<<<<<<<<<<<<<<<<<<<<<<<<<<<<<<<<<<<//

   => Loading Basis Set <=

    Name: (AUG-CC-PVTZ AUX)
    Role: RIFIT
    Keyword: DF_BASIS_MP2
    atoms 1   entry LI         line    90 file /home/kchung25/anaconda3/envs/p415env/share/psi4/basis/def2-qzvpp-ri.gbs 
    atoms 2-3 entry CL         line   742 file /home/kchung25/anaconda3/envs/p415env/share/psi4/basis/aug-cc-pvtz-ri.gbs 

	 --------------------------------------------------------
	                          DF-MP2                         
	      2nd-Order Density-Fitted Moller-Plesset Theory     
	              RMP2 Wavefunction,   6 Threads             
	                                                         
	        Rob Parrish, Justin Turney, Andy Simmonett,      
	           Ed Hohenstein, and C. David Sherrill          
	 --------------------------------------------------------

   => Auxiliary Basis Set <=

  Basis Set: (AUG-CC-PVTZ AUX)
    Blend: AUG-CC-PVTZ-RI + DEF2-QZVPP-RI
    Number of shells: 101
    Number of basis functions: 395
    Number of Cartesian functions: 512
    Spherical Harmonics?: true
    Max angular momentum: 4

	 --------------------------------------------------------
	                 NBF =   146, NAUX =   395
	 --------------------------------------------------------
	   CLASS    FOCC     OCC    AOCC    AVIR     VIR    FVIR
	   PAIRS       0      10      10     136     136       0
	 --------------------------------------------------------

	-----------------------------------------------------------
	 ==================> DF-MP2 Energies <==================== 
	-----------------------------------------------------------
	 Reference Energy          =    -467.0520948885699681 [Eh]
	 Singles Energy            =      -0.0000000000000000 [Eh]
	 Same-Spin Energy          =      -0.0628716465058351 [Eh]
	 Opposite-Spin Energy      =      -0.1934990889086760 [Eh]
	 Correlation Energy        =      -0.2563707354145111 [Eh]
	 Total Energy              =    -467.3084656239844890 [Eh]
	-----------------------------------------------------------
	 ================> DF-SCS-MP2 Energies <================== 
	-----------------------------------------------------------
	 SCS Same-Spin Scale       =       0.3333333333333333 [-]
	 SCS Opposite-Spin Scale   =       1.2000000000000000 [-]
	 SCS Same-Spin Energy      =      -0.0209572155019450 [Eh]
	 SCS Opposite-Spin Energy  =      -0.2321989066904112 [Eh]
	 SCS Correlation Energy    =      -0.2531561221923562 [Eh]
	 SCS Total Energy          =    -467.3052510107623334 [Eh]
	-----------------------------------------------------------


*** tstop() called on moses-razer at Wed Jan  3 19:46:37 2024
Module time:
	user time   =       2.21 seconds =       0.04 minutes
	system time =       0.13 seconds =       0.00 minutes
	total time  =          1 seconds =       0.02 minutes
Total time:
	user time   =      14.89 seconds =       0.25 minutes
	system time =       1.07 seconds =       0.02 minutes
	total time  =          4 seconds =       0.07 minutes

    Psi4 stopped on: Wednesday, 03 January 2024 07:46PM
    Psi4 wall time for execution: 0:00:01.82


    -----------------------------------------------------------------------
          Psi4: An Open-Source Ab Initio Electronic Structure Package
                               Psi4 1.9 release

                         Git: Rev {} zzzzzzz 


    D. G. A. Smith, L. A. Burns, A. C. Simmonett, R. M. Parrish,
    M. C. Schieber, R. Galvelis, P. Kraus, H. Kruse, R. Di Remigio,
    A. Alenaizan, A. M. James, S. Lehtola, J. P. Misiewicz, M. Scheurer,
    R. A. Shaw, J. B. Schriber, Y. Xie, Z. L. Glick, D. A. Sirianni,
    J. S. O'Brien, J. M. Waldrop, A. Kumar, E. G. Hohenstein,
    B. P. Pritchard, B. R. Brooks, H. F. Schaefer III, A. Yu. Sokolov,
    K. Patkowski, A. E. DePrince III, U. Bozkaya, R. A. King,
    F. A. Evangelista, J. M. Turney, T. D. Crawford, C. D. Sherrill,
    J. Chem. Phys. 152(18) 184108 (2020). https://doi.org/10.1063/5.0006002

                            Additional Code Authors
    E. T. Seidl, C. L. Janssen, E. F. Valeev, M. L. Leininger,
    J. F. Gonthier, R. M. Richard, H. R. McAlexander, M. Saitow, X. Wang,
    P. Verma, M. H. Lechner, A. Jiang, S. Behnle, A. G. Heide,
    M. F. Herbst, and D. L. Poole

             Previous Authors, Complete List of Code Contributors,
                       and Citations for Specific Modules
    https://github.com/psi4/psi4/blob/master/codemeta.json
    https://github.com/psi4/psi4/graphs/contributors
    http://psicode.org/psi4manual/master/introduction.html#citing-psifour

    -----------------------------------------------------------------------


    Psi4 started on: Wednesday, 03 January 2024 07:46PM

    Process ID: 434149
    Host:       moses-razer
    PSIDATADIR: /home/kchung25/anaconda3/envs/psi4_19/share/psi4
    Memory:     55.9 GiB
    Threads:    6
    
  ==> Input QCSchema <==

--------------------------------------------------------------------------
{'driver': 'energy',
 'extras': {'psiapi': True, 'wfn_qcvars_only': True},
 'id': None,
 'keywords': {'SCF_TYPE': 'DF', 'function_kwargs': {}},
 'model': {'basis': 'aug-cc-pvtz', 'method': 'mp2'},
 'molecule': {'atom_labels': ['', '', ''],
              'atomic_numbers': [3, 17, 17],
              'extras': {},
              'fix_com': True,
              'fix_orientation': True,
              'fix_symmetry': 'c1',
              'fragment_charges': [0.0, -1.0],
              'fragment_multiplicities': [1, 1],
              'fragments': [[0, 1], [2]],
              'geometry': [0.0, 0.0, 0.0, 0.0, 3.835760420275923, 0.0, 4.602911748440658, 0.0, 0.0],
              'mass_numbers': [7, 35, 35],
              'masses': [7.0160034366, 34.968852682, 34.968852682],
              'molecular_charge': -1.0,
              'molecular_multiplicity': 1,
              'name': 'dimer',
              'provenance': {'creator': 'QCElemental',
                             'routine': 'qcelemental.molparse.from_string',
                             'version': '0.27.1'},
              'real': [True, True, True],
              'schema_name': 'qcschema_molecule',
              'schema_version': 2,
              'symbols': ['Li', 'Cl', 'Cl'],
              'validated': True},
 'protocols': {'stdout': True},
 'provenance': {'creator': 'QCElemental', 'routine': 'qcelemental.models.results', 'version': '0.27.1'},
 'schema_name': 'qcschema_input',
 'schema_version': 1}
--------------------------------------------------------------------------

Scratch directory: /scratch/
   => Libint2 <=

    Primary   basis highest AM E, G, H:  5, 4, 3
    Auxiliary basis highest AM E, G, H:  6, 5, 4
    Onebody   basis highest AM E, G, H:  6, 5, 4
    Solid Harmonics ordering:            gaussian

*** tstart() called on moses-razer
*** at Wed Jan  3 19:46:37 2024

   => Loading Basis Set <=

    Name: AUG-CC-PVTZ
    Role: ORBITAL
    Keyword: BASIS
    atoms 1   entry LI         line    85 file /home/kchung25/anaconda3/envs/p415env/share/psi4/basis/aug-cc-pvtz.gbs 
    atoms 2-3 entry CL         line   988 file /home/kchung25/anaconda3/envs/p415env/share/psi4/basis/aug-cc-pvtz.gbs 


         ---------------------------------------------------------
                                   SCF
               by Justin Turney, Rob Parrish, Andy Simmonett
                          and Daniel G. A. Smith
                              RHF Reference
                        6 Threads,  57220 MiB Core
         ---------------------------------------------------------

  ==> Geometry <==

    Molecular point group: c1
    Full point group: Cs

    Geometry (in Bohr), charge = -1, multiplicity = 1:

       Center              X                  Y                   Z               Mass       
    ------------   -----------------  -----------------  -----------------  -----------------
         LI           0.000000000000     0.000000000000     0.000000000000     7.016003436600
         CL           0.000000000000     3.835760420276     0.000000000000    34.968852682000
         CL           4.602911748441     0.000000000000     0.000000000000    34.968852682000

  Running in c1 symmetry.

  Rotational constants: A =      0.11701  B =      0.08125  C =      0.04795 [cm^-1]
  Rotational constants: A =   3507.76591  B =   2435.94935  C =   1437.60926 [MHz]
  Nuclear repulsion =   72.609674718224227

  Charge       = -1
  Multiplicity = 1
  Electrons    = 38
  Nalpha       = 19
  Nbeta        = 19

  ==> Algorithm <==

  SCF Algorithm Type is DF.
  DIIS enabled.
  MOM disabled.
  Fractional occupation disabled.
  Guess Type is SAD.
  Energy threshold   = 1.00e-08
  Density threshold  = 1.00e-08
  Integral threshold = 1.00e-12

  ==> Primary Basis <==

  Basis Set: AUG-CC-PVTZ
    Blend: AUG-CC-PVTZ
    Number of shells: 46
    Number of basis functions: 146
    Number of Cartesian functions: 173
    Spherical Harmonics?: true
    Max angular momentum: 3

   => Loading Basis Set <=

    Name: (AUG-CC-PVTZ AUX)
    Role: JKFIT
    Keyword: DF_BASIS_SCF
    atoms 1   entry LI         line    54 file /home/kchung25/anaconda3/envs/p415env/share/psi4/basis/def2-universal-jkfit.gbs 
    atoms 2-3 entry CL         line   816 file /home/kchung25/anaconda3/envs/p415env/share/psi4/basis/aug-cc-pvtz-jkfit.gbs 

  ==> Integral Setup <==

  DFHelper Memory: AOs need 0.061 GiB; user supplied 41.910 GiB. 
  Using in-core AOs.

  ==> MemDFJK: Density-Fitted J/K Matrices <==

    J tasked:                   Yes
    K tasked:                   Yes
    wK tasked:                   No
    OpenMP threads:               6
    Memory [MiB]:             42915
    Algorithm:                 Core
    Schwarz Cutoff:           1E-12
    Mask sparsity (%):       0.0000
    Fitting Condition:        1E-10

   => Auxiliary Basis Set <=

  Basis Set: (AUG-CC-PVTZ AUX)
    Blend: AUG-CC-PVTZ-JKFIT + DEF2-UNIVERSAL-JKFIT
    Number of shells: 101
    Number of basis functions: 343
    Number of Cartesian functions: 420
    Spherical Harmonics?: true
    Max angular momentum: 4

  Minimum eigenvalue in the overlap matrix is 4.4281129161E-04.
  Reciprocal condition number of the overlap matrix is 6.8582814258E-05.
    Using symmetric orthogonalization.

  ==> Pre-Iterations <==

  SCF Guess: Superposition of Atomic Densities via on-the-fly atomic UHF (no occupation information).

   -------------------------
    Irrep   Nso     Nmo    
   -------------------------
     A        146     146 
   -------------------------
    Total     146     146
   -------------------------

  ==> Iterations <==

                           Total Energy        Delta E     RMS |[F,P]|

   @DF-RHF iter SAD:  -925.73051670400844   -9.25731e+02   0.00000e+00 
   @DF-RHF iter   1:  -926.54859616887575   -8.18079e-01   2.84113e-03 DIIS/ADIIS
   @DF-RHF iter   2:  -926.64282583988052   -9.42297e-02   1.34847e-03 DIIS/ADIIS
   @DF-RHF iter   3:  -926.65744115229973   -1.46153e-02   8.66953e-05 DIIS
   @DF-RHF iter   4:  -926.65756345128284   -1.22299e-04   2.31703e-05 DIIS
   @DF-RHF iter   5:  -926.65757785874234   -1.44075e-05   7.33234e-06 DIIS
   @DF-RHF iter   6:  -926.65757929864299   -1.43990e-06   1.65831e-06 DIIS
   @DF-RHF iter   7:  -926.65757943563312   -1.36990e-07   3.35840e-07 DIIS
   @DF-RHF iter   8:  -926.65757944074176   -5.10863e-09   1.19849e-07 DIIS
   @DF-RHF iter   9:  -926.65757944130246   -5.60703e-10   2.88710e-08 DIIS
   @DF-RHF iter  10:  -926.65757944134236   -3.99041e-11   5.12896e-09 DIIS
  Energy and wave function converged.


  ==> Post-Iterations <==

    Orbital Energies [Eh]
    ---------------------

    Doubly Occupied:                                                      

       1A   -104.560961     2A   -104.544667     3A    -10.287303  
       4A    -10.269122     5A     -7.753444     6A     -7.753220  
       7A     -7.753167     8A     -7.735243     9A     -7.735101  
      10A     -7.735047    11A     -2.271284    12A     -0.808713  
      13A     -0.777755    14A     -0.252121    15A     -0.228613  
      16A     -0.219636    17A     -0.200623    18A     -0.189019  
      19A     -0.167910  

    Virtual:                                                              

      20A      0.078570    21A      0.092264    22A      0.093125  
      23A      0.105790    24A      0.133575    25A      0.163808  
      26A      0.172855    27A      0.199173    28A      0.223512  
      29A      0.234618    30A      0.236355    31A      0.240504  
      32A      0.248316    33A      0.258816    34A      0.265828  
      35A      0.282791    36A      0.285569    37A      0.292611  
      38A      0.308482    39A      0.311958    40A      0.312708  
      41A      0.357959    42A      0.403801    43A      0.429445  
      44A      0.455813    45A      0.458118    46A      0.466790  
      47A      0.470730    48A      0.474564    49A      0.478258  
      50A      0.487485    51A      0.492753    52A      0.511494  
      53A      0.529288    54A      0.545069    55A      0.565544  
      56A      0.569732    57A      0.583105    58A      0.617535  
      59A      0.627264    60A      0.648950    61A      0.649605  
      62A      0.667179    63A      0.670478    64A      0.683492  
      65A      0.706677    66A      0.723008    67A      0.746015  
      68A      0.773475    69A      0.831853    70A      0.887050  
      71A      0.911618    72A      0.914744    73A      0.925994  
      74A      0.935056    75A      0.939862    76A      0.940263  
      77A      0.985233    78A      1.000029    79A      1.015158  
      80A      1.040042    81A      1.053511    82A      1.071007  
      83A      1.101021    84A      1.106419    85A      1.129835  
      86A      1.195648    87A      1.210957    88A      1.216141  
      89A      1.238187    90A      1.248761    91A      1.272312  
      92A      1.303473    93A      1.331927    94A      1.332701  
      95A      1.354006    96A      1.403656    97A      1.417370  
      98A      1.435753    99A      1.461047   100A      1.476731  
     101A      1.495095   102A      1.511461   103A      1.559849  
     104A      1.587692   105A      1.640480   106A      1.672234  
     107A      1.704504   108A      1.717611   109A      1.772692  
     110A      1.801383   111A      1.882920   112A      1.936953  
     113A      1.971597   114A      2.823433   115A      2.827317  
     116A      2.856417   117A      2.867603   118A      2.876484  
     119A      2.878664   120A      2.891635   121A      2.904474  
     122A      2.909171   123A      2.936628   124A      3.088956  
     125A      3.095495   126A      3.144407   127A      3.212406  
     128A      3.294551   129A      3.298826   130A      3.306752  
     131A      3.347229   132A      3.351645   133A      3.378031  
     134A      3.379688   135A      3.413553   136A      3.432255  
     137A      3.460504   138A      3.480589   139A      3.525239  
     140A      3.566342   141A      3.567704   142A      3.615867  
     143A      3.706909   144A      4.008784   145A      6.079736  
     146A      6.383996  

    Final Occupation by Irrep:
              A 
    DOCC [    19 ]
    NA   [    19 ]
    NB   [    19 ]

  @DF-RHF Final Energy:  -926.65757944134236

   => Energetics <=

    Nuclear Repulsion Energy =             72.6096747182242268
    One-Electron Energy =               -1436.0486092944383927
    Two-Electron Energy =                 436.7813551348718306
    Total Energy =                       -926.6575794413424774

Computation Completed


Properties will be evaluated at   0.000000,   0.000000,   0.000000 [a0]

Properties computed using the SCF density matrix


 Multipole Moments:

 ------------------------------------------------------------------------------------
     Multipole            Electronic (a.u.)      Nuclear  (a.u.)        Total (a.u.)
 ------------------------------------------------------------------------------------

 L = 1.  Multiply by 2.5417464519 to convert [e a0] to [Debye]
 Dipole X            :        -81.9979207           78.2494997           -3.7484210
 Dipole Y            :        -68.1220104           65.2079271           -2.9140833
 Dipole Z            :          0.0000000            0.0000000            0.0000000
 Magnitude           :                                                    4.7478986

 ------------------------------------------------------------------------------------

*** tstop() called on moses-razer at Wed Jan  3 19:46:38 2024
Module time:
	user time   =       5.35 seconds =       0.09 minutes
	system time =       0.35 seconds =       0.01 minutes
	total time  =          1 seconds =       0.02 minutes
Total time:
	user time   =      20.46 seconds =       0.34 minutes
	system time =       1.42 seconds =       0.02 minutes
	total time  =          5 seconds =       0.08 minutes

*** tstart() called on moses-razer
*** at Wed Jan  3 19:46:38 2024


  //>>>>>>>>>>>>>>>>>>>>>>>>>>>>>>>>>>>//
  //               DFMP2               //
  //<<<<<<<<<<<<<<<<<<<<<<<<<<<<<<<<<<<//

   => Loading Basis Set <=

    Name: (AUG-CC-PVTZ AUX)
    Role: RIFIT
    Keyword: DF_BASIS_MP2
    atoms 1   entry LI         line    90 file /home/kchung25/anaconda3/envs/p415env/share/psi4/basis/def2-qzvpp-ri.gbs 
    atoms 2-3 entry CL         line   742 file /home/kchung25/anaconda3/envs/p415env/share/psi4/basis/aug-cc-pvtz-ri.gbs 

	 --------------------------------------------------------
	                          DF-MP2                         
	      2nd-Order Density-Fitted Moller-Plesset Theory     
	              RMP2 Wavefunction,   6 Threads             
	                                                         
	        Rob Parrish, Justin Turney, Andy Simmonett,      
	           Ed Hohenstein, and C. David Sherrill          
	 --------------------------------------------------------

   => Auxiliary Basis Set <=

  Basis Set: (AUG-CC-PVTZ AUX)
    Blend: AUG-CC-PVTZ-RI + DEF2-QZVPP-RI
    Number of shells: 101
    Number of basis functions: 395
    Number of Cartesian functions: 512
    Spherical Harmonics?: true
    Max angular momentum: 4

	 --------------------------------------------------------
	                 NBF =   146, NAUX =   395
	 --------------------------------------------------------
	   CLASS    FOCC     OCC    AOCC    AVIR     VIR    FVIR
	   PAIRS       0      19      19     127     127       0
	 --------------------------------------------------------

	-----------------------------------------------------------
	 ==================> DF-MP2 Energies <==================== 
	-----------------------------------------------------------
	 Reference Energy          =    -926.6575794413423637 [Eh]
	 Singles Energy            =      -0.0000000000000000 [Eh]
	 Same-Spin Energy          =      -0.1284868930547221 [Eh]
	 Opposite-Spin Energy      =      -0.3765130178421812 [Eh]
	 Correlation Energy        =      -0.5049999108969033 [Eh]
	 Total Energy              =    -927.1625793522392769 [Eh]
	-----------------------------------------------------------
	 ================> DF-SCS-MP2 Energies <================== 
	-----------------------------------------------------------
	 SCS Same-Spin Scale       =       0.3333333333333333 [-]
	 SCS Opposite-Spin Scale   =       1.2000000000000000 [-]
	 SCS Same-Spin Energy      =      -0.0428289643515740 [Eh]
	 SCS Opposite-Spin Energy  =      -0.4518156214106174 [Eh]
	 SCS Correlation Energy    =      -0.4946445857621915 [Eh]
	 SCS Total Energy          =    -927.1522240271045803 [Eh]
	-----------------------------------------------------------


*** tstop() called on moses-razer at Wed Jan  3 19:46:39 2024
Module time:
	user time   =       2.43 seconds =       0.04 minutes
	system time =       0.13 seconds =       0.00 minutes
	total time  =          1 seconds =       0.02 minutes
Total time:
	user time   =      22.90 seconds =       0.38 minutes
	system time =       1.55 seconds =       0.03 minutes
	total time  =          6 seconds =       0.10 minutes

    Psi4 stopped on: Wednesday, 03 January 2024 07:46PM
    Psi4 wall time for execution: 0:00:01.87


  //>>>>>>>>>>>>>>>>>>>>>>>>>>>>>>>>>>>//
  //          ManyBody Results         //
  //<<<<<<<<<<<<<<<<<<<<<<<<<<<<<<<<<<<//


   ==> N-Body: Counterpoise Corrected (CP) energies <==

        n-Body     Total Energy            Interaction Energy                          N-body Contribution to Interaction Energy
                   [Eh]                    [Eh]                  [kcal/mol]            [Eh]                  [kcal/mol]
             1  N/A                         0.000000000000        0.000000000000        0.000000000000        0.000000000000
  FULL/RTN   2  N/A                        -0.037622980573      -23.608776741603       -0.037622980573      -23.608776741603


    Psi4 stopped on: Wednesday, 03 January 2024 07:46PM
    Psi4 wall time for execution: 0:00:07.02

*** Psi4 exiting successfully. Buy a developer a beer!
