
    -----------------------------------------------------------------------
          Psi4: An Open-Source Ab Initio Electronic Structure Package
                               Psi4 1.8.2 release

                         Git: Rev {} zzzzzzz 


    D. G. A. Smith, L. A. Burns, A. C. Simmonett, R. M. Parrish,
    M. C. Schieber, R. Galvelis, P. Kraus, H. Kruse, R. Di Remigio,
    A. Alenaizan, A. M. James, S. Lehtola, J. P. Misiewicz, M. Scheurer,
    R. A. Shaw, J. B. Schriber, Y. Xie, Z. L. Glick, D. A. Sirianni,
    J. S. O'Brien, J. M. Waldrop, A. Kumar, E. G. Hohenstein,
    B. P. Pritchard, B. R. Brooks, H. F. Schaefer III, A. Yu. Sokolov,
    K. Patkowski, A. E. DePrince III, U. Bozkaya, R. A. King,
    F. A. Evangelista, J. M. Turney, T. D. Crawford, C. D. Sherrill,
    J. Chem. Phys. 152(18) 184108 (2020). https://doi.org/10.1063/5.0006002

                            Additional Code Authors
    E. T. Seidl, C. L. Janssen, E. F. Valeev, M. L. Leininger,
    J. F. Gonthier, R. M. Richard, H. R. McAlexander, M. Saitow, X. Wang,
    P. Verma, M. H. Lechner, A. Jiang, S. Behnle, A. G. Heide,
    M. F. Herbst, and D. L. Poole

             Previous Authors, Complete List of Code Contributors,
                       and Citations for Specific Modules
    https://github.com/psi4/psi4/blob/master/codemeta.json
    https://github.com/psi4/psi4/graphs/contributors
    http://psicode.org/psi4manual/master/introduction.html#citing-psifour

    -----------------------------------------------------------------------


    Psi4 started on: Monday, 22 January 2024 11:33AM

    Process ID: 42515
    Host:       ddmfs1
    PSIDATADIR: /ddmfs1b/softs/psi4conda/share/psi4
    Memory:     500.0 MiB
    Threads:    20
    
  ==> Input File <==

--------------------------------------------------------------------------
MEMORY 60 GB

molecule dimer {
-1 1
Gh(Li)     0.000000     0.000000     0.000000
Gh(Cl)     0.000000     2.029797     0.000000
Cl         2.232777     0.000000     0.000000

units ang
no_reorient
no_com
symmetry c1
}

set {
basis        aug-cc-pVTZ
scf_type     df
}

energy("mp2")
--------------------------------------------------------------------------

  Memory set to  55.879 GiB by Python driver.

Scratch directory: /ddmfs1a/scratch/
   => Libint2 <=

    Primary   basis highest AM E, G, H:  5, 4, 3
    Auxiliary basis highest AM E, G, H:  6, 5, 4
    Onebody   basis highest AM E, G, H:  6, 5, 4
    Solid Harmonics ordering:            gaussian

*** tstart() called on ddmfs1
*** at Mon Jan 22 11:33:28 2024

   => Loading Basis Set <=

    Name: AUG-CC-PVTZ
    Role: ORBITAL
    Keyword: BASIS
    atoms 1   entry LI         line    85 file /ddmfs1b/softs/psi4conda/share/psi4/basis/aug-cc-pvtz.gbs 
    atoms 2-3 entry CL         line   988 file /ddmfs1b/softs/psi4conda/share/psi4/basis/aug-cc-pvtz.gbs 


         ---------------------------------------------------------
                                   SCF
               by Justin Turney, Rob Parrish, Andy Simmonett
                          and Daniel G. A. Smith
                              RHF Reference
                       20 Threads,  57220 MiB Core
         ---------------------------------------------------------

  ==> Geometry <==

    Molecular point group: c1
    Full point group: Cs

    Geometry (in Angstrom), charge = -1, multiplicity = 1:

       Center              X                  Y                   Z               Mass       
    ------------   -----------------  -----------------  -----------------  -----------------
      Gh(LI)          0.000000000000     0.000000000000     0.000000000000     7.016003436600
      Gh(CL)          0.000000000000     2.029797000000     0.000000000000    34.968852682000
         CL           2.232777000000     0.000000000000     0.000000000000    34.968852682000

  Running in c1 symmetry.

  Rotational constants: A =      0.11701  B =      0.09670  C =      0.05294 [cm^-1]
  Rotational constants: A =   3507.76591  B =   2898.97931  C =   1587.22416 [MHz]
  Nuclear repulsion =    0.000000000000000

  Charge       = -1
  Multiplicity = 1
  Electrons    = 18
  Nalpha       = 9
  Nbeta        = 9

  ==> Algorithm <==

  SCF Algorithm Type is DF.
  DIIS enabled.
  MOM disabled.
  Fractional occupation disabled.
  Guess Type is SAD.
  Energy threshold   = 1.00e-08
  Density threshold  = 1.00e-08
  Integral threshold = 1.00e-12

  ==> Primary Basis <==

  Basis Set: AUG-CC-PVTZ
    Blend: AUG-CC-PVTZ
    Number of shells: 46
    Number of basis functions: 146
    Number of Cartesian functions: 173
    Spherical Harmonics?: true
    Max angular momentum: 3

   => Loading Basis Set <=

    Name: (AUG-CC-PVTZ AUX)
    Role: JKFIT
    Keyword: DF_BASIS_SCF
    atoms 1   entry LI         line    54 file /ddmfs1b/softs/psi4conda/share/psi4/basis/def2-universal-jkfit.gbs 
    atoms 2-3 entry CL         line   816 file /ddmfs1b/softs/psi4conda/share/psi4/basis/aug-cc-pvtz-jkfit.gbs 

  ==> Integral Setup <==

  DFHelper Memory: AOs need 0.063 GiB; user supplied 41.910 GiB. 
  Using in-core AOs.

  ==> MemDFJK: Density-Fitted J/K Matrices <==

    J tasked:                   Yes
    K tasked:                   Yes
    wK tasked:                   No
    OpenMP threads:              20
    Memory [MiB]:             42915
    Algorithm:                 Core
    Schwarz Cutoff:           1E-12
    Mask sparsity (%):       0.0000
    Fitting Condition:        1E-10

   => Auxiliary Basis Set <=

  Basis Set: (AUG-CC-PVTZ AUX)
    Blend: AUG-CC-PVTZ-JKFIT + DEF2-UNIVERSAL-JKFIT
    Number of shells: 101
    Number of basis functions: 343
    Number of Cartesian functions: 420
    Spherical Harmonics?: true
    Max angular momentum: 4

  Minimum eigenvalue in the overlap matrix is 3.4951364495E-04.
  Reciprocal condition number of the overlap matrix is 5.3301560390E-05.
    Using symmetric orthogonalization.

  ==> Pre-Iterations <==

  SCF Guess: Superposition of Atomic Densities via on-the-fly atomic UHF (no occupation information).

   -------------------------
    Irrep   Nso     Nmo    
   -------------------------
     A        146     146 
   -------------------------
    Total     146     146
   -------------------------

  ==> Iterations <==

                           Total Energy        Delta E     RMS |[F,P]|

   @DF-RHF iter SAD:  -459.11248997843813   -4.59112e+02   0.00000e+00 
   @DF-RHF iter   1:  -459.51385238281227   -4.01362e-01   2.04386e-03 ADIIS/DIIS
   @DF-RHF iter   2:  -459.56475619677855   -5.09038e-02   1.04616e-03 ADIIS/DIIS
   @DF-RHF iter   3:  -459.57346167224023   -8.70548e-03   6.95388e-05 DIIS
   @DF-RHF iter   4:  -459.57351627714206   -5.46049e-05   1.42445e-05 DIIS
   @DF-RHF iter   5:  -459.57351990434904   -3.62721e-06   1.44590e-06 DIIS
   @DF-RHF iter   6:  -459.57351998340619   -7.90571e-08   1.19680e-07 DIIS
   @DF-RHF iter   7:  -459.57351998418005   -7.73866e-10   1.43543e-08 DIIS
   @DF-RHF iter   8:  -459.57351998419819   -1.81331e-11   2.20335e-09 DIIS
  Energy and wave function converged.


  ==> Post-Iterations <==

    Orbital Energies [Eh]
    ---------------------

    Doubly Occupied:                                                      

       1A   -104.506594     2A    -10.229900     3A     -7.695960  
       4A     -7.695952     5A     -7.695928     6A     -0.733496  
       7A     -0.150333     8A     -0.150323     9A     -0.150322  

    Virtual:                                                              

      10A      0.081853    11A      0.092219    12A      0.093177  
      13A      0.105033    14A      0.155503    15A      0.169639  
      16A      0.174894    17A      0.189714    18A      0.218063  
      19A      0.228460    20A      0.239368    21A      0.245703  
      22A      0.257812    23A      0.271814    24A      0.274822  
      25A      0.276829    26A      0.283792    27A      0.296856  
      28A      0.306521    29A      0.314956    30A      0.356380  
      31A      0.363269    32A      0.402343    33A      0.426693  
      34A      0.448439    35A      0.473970    36A      0.479966  
      37A      0.496304    38A      0.503189    39A      0.503412  
      40A      0.507910    41A      0.521279    42A      0.524073  
      43A      0.533139    44A      0.543167    45A      0.561257  
      46A      0.634107    47A      0.640777    48A      0.645033  
      49A      0.662116    50A      0.675196    51A      0.681086  
      52A      0.681728    53A      0.695061    54A      0.707455  
      55A      0.711098    56A      0.752510    57A      0.762957  
      58A      0.771061    59A      0.802246    60A      0.886405  
      61A      0.933874    62A      0.953581    63A      0.970475  
      64A      0.996174    65A      1.011987    66A      1.015161  
      67A      1.036096    68A      1.048481    69A      1.066220  
      70A      1.107140    71A      1.113171    72A      1.129635  
      73A      1.185475    74A      1.206623    75A      1.233318  
      76A      1.256445    77A      1.299970    78A      1.300361  
      79A      1.330896    80A      1.378022    81A      1.401048  
      82A      1.403856    83A      1.431639    84A      1.440151  
      85A      1.503217    86A      1.519985    87A      1.559276  
      88A      1.576044    89A      1.596106    90A      1.607593  
      91A      1.639641    92A      1.652732    93A      1.672797  
      94A      1.742847    95A      1.749491    96A      1.773835  
      97A      1.801338    98A      1.831205    99A      1.846982  
     100A      1.855683   101A      1.895777   102A      1.927144  
     103A      2.041100   104A      2.041619   105A      2.150451  
     106A      2.196305   107A      2.321504   108A      2.623518  
     109A      2.889304   110A      2.901364   111A      2.934728  
     112A      2.970365   113A      3.046523   114A      3.171934  
     115A      3.215275   116A      3.368272   117A      3.404464  
     118A      3.413022   119A      3.477480   120A      3.530576  
     121A      3.585216   122A      3.654931   123A      3.677884  
     124A      4.143643   125A      4.147590   126A      4.229181  
     127A      4.243017   128A      4.252290   129A      4.254912  
     130A      4.325572   131A      4.348928   132A      4.422420  
     133A      4.489971   134A      4.756976   135A      4.901097  
     136A      4.915032   137A      4.975212   138A      5.013290  
     139A      5.138766   140A      6.386146   141A     11.315727  
     142A     14.877095   143A     28.083678   144A     28.174081  
     145A     28.360572   146A    161.047811  

    Final Occupation by Irrep:
              A 
    DOCC [     9 ]
    NA   [     9 ]
    NB   [     9 ]

  @DF-RHF Final Energy:  -459.57351998419819

   => Energetics <=

    Nuclear Repulsion Energy =              0.0000000000000000
    One-Electron Energy =                -641.1294217870248531
    Two-Electron Energy =                 181.5559018028266678
    Total Energy =                       -459.5735199841981853

Computation Completed


Properties will be evaluated at   0.000000,   0.000000,   0.000000 [a0]

Properties computed using the SCF density matrix


 Multipole Moments:

 ------------------------------------------------------------------------------------
     Multipole            Electronic (a.u.)      Nuclear  (a.u.)        Total (a.u.)
 ------------------------------------------------------------------------------------

 L = 1.  Multiply by 2.5417464519 to convert [e a0] to [Debye]
 Dipole X            :        -75.9489336           71.7287295           -4.2202041
 Dipole Y            :          0.0001543            0.0000000            0.0001543
 Dipole Z            :          0.0000000            0.0000000            0.0000000
 Magnitude           :                                                    4.2202042

 ------------------------------------------------------------------------------------

*** tstop() called on ddmfs1 at Mon Jan 22 11:33:30 2024
Module time:
	user time   =      22.76 seconds =       0.38 minutes
	system time =       2.21 seconds =       0.04 minutes
	total time  =          2 seconds =       0.03 minutes
Total time:
	user time   =      22.76 seconds =       0.38 minutes
	system time =       2.21 seconds =       0.04 minutes
	total time  =          2 seconds =       0.03 minutes

*** tstart() called on ddmfs1
*** at Mon Jan 22 11:33:30 2024


  //>>>>>>>>>>>>>>>>>>>>>>>>>>>>>>>>>>>//
  //               DFMP2               //
  //<<<<<<<<<<<<<<<<<<<<<<<<<<<<<<<<<<<//

   => Loading Basis Set <=

    Name: (AUG-CC-PVTZ AUX)
    Role: RIFIT
    Keyword: DF_BASIS_MP2
    atoms 1   entry LI         line    90 file /ddmfs1b/softs/psi4conda/share/psi4/basis/def2-qzvpp-ri.gbs 
    atoms 2-3 entry CL         line   742 file /ddmfs1b/softs/psi4conda/share/psi4/basis/aug-cc-pvtz-ri.gbs 

	 --------------------------------------------------------
	                          DF-MP2                         
	      2nd-Order Density-Fitted Moller-Plesset Theory     
	              RMP2 Wavefunction,  20 Threads             
	                                                         
	        Rob Parrish, Justin Turney, Andy Simmonett,      
	           Ed Hohenstein, and C. David Sherrill          
	 --------------------------------------------------------

   => Auxiliary Basis Set <=

  Basis Set: (AUG-CC-PVTZ AUX)
    Blend: AUG-CC-PVTZ-RI + DEF2-QZVPP-RI
    Number of shells: 101
    Number of basis functions: 395
    Number of Cartesian functions: 512
    Spherical Harmonics?: true
    Max angular momentum: 4

	 --------------------------------------------------------
	                 NBF =   146, NAUX =   395
	 --------------------------------------------------------
	   CLASS    FOCC     OCC    AOCC    AVIR     VIR    FVIR
	   PAIRS       0       9       9     137     137       0
	 --------------------------------------------------------

	-----------------------------------------------------------
	 ==================> DF-MP2 Energies <==================== 
	-----------------------------------------------------------
	 Reference Energy          =    -459.5735199841981853 [Eh]
	 Singles Energy            =      -0.0000000000000000 [Eh]
	 Same-Spin Energy          =      -0.0627922175086705 [Eh]
	 Opposite-Spin Energy      =      -0.1805577192387621 [Eh]
	 Correlation Energy        =      -0.2433499367474326 [Eh]
	 Total Energy              =    -459.8168699209456349 [Eh]
	-----------------------------------------------------------
	 ================> DF-SCS-MP2 Energies <================== 
	-----------------------------------------------------------
	 SCS Same-Spin Scale       =       0.3333333333333333 [-]
	 SCS Opposite-Spin Scale   =       1.2000000000000000 [-]
	 SCS Same-Spin Energy      =      -0.0209307391695568 [Eh]
	 SCS Opposite-Spin Energy  =      -0.2166692630865145 [Eh]
	 SCS Correlation Energy    =      -0.2376000022560713 [Eh]
	 SCS Total Energy          =    -459.8111199864542300 [Eh]
	-----------------------------------------------------------


*** tstop() called on ddmfs1 at Mon Jan 22 11:33:32 2024
Module time:
	user time   =       8.39 seconds =       0.14 minutes
	system time =       0.61 seconds =       0.01 minutes
	total time  =          2 seconds =       0.03 minutes
Total time:
	user time   =      31.16 seconds =       0.52 minutes
	system time =       2.82 seconds =       0.05 minutes
	total time  =          4 seconds =       0.07 minutes

    Psi4 stopped on: Monday, 22 January 2024 11:33AM
    Psi4 wall time for execution: 0:00:03.86

*** Psi4 exiting successfully. Buy a developer a beer!
