
    -----------------------------------------------------------------------
          Psi4: An Open-Source Ab Initio Electronic Structure Package
                               Psi4 1.8.2 release

                         Git: Rev {} zzzzzzz 


    D. G. A. Smith, L. A. Burns, A. C. Simmonett, R. M. Parrish,
    M. C. Schieber, R. Galvelis, P. Kraus, H. Kruse, R. Di Remigio,
    A. Alenaizan, A. M. James, S. Lehtola, J. P. Misiewicz, M. Scheurer,
    R. A. Shaw, J. B. Schriber, Y. Xie, Z. L. Glick, D. A. Sirianni,
    J. S. O'Brien, J. M. Waldrop, A. Kumar, E. G. Hohenstein,
    B. P. Pritchard, B. R. Brooks, H. F. Schaefer III, A. Yu. Sokolov,
    K. Patkowski, A. E. DePrince III, U. Bozkaya, R. A. King,
    F. A. Evangelista, J. M. Turney, T. D. Crawford, C. D. Sherrill,
    J. Chem. Phys. 152(18) 184108 (2020). https://doi.org/10.1063/5.0006002

                            Additional Code Authors
    E. T. Seidl, C. L. Janssen, E. F. Valeev, M. L. Leininger,
    J. F. Gonthier, R. M. Richard, H. R. McAlexander, M. Saitow, X. Wang,
    P. Verma, M. H. Lechner, A. Jiang, S. Behnle, A. G. Heide,
    M. F. Herbst, and D. L. Poole

             Previous Authors, Complete List of Code Contributors,
                       and Citations for Specific Modules
    https://github.com/psi4/psi4/blob/master/codemeta.json
    https://github.com/psi4/psi4/graphs/contributors
    http://psicode.org/psi4manual/master/introduction.html#citing-psifour

    -----------------------------------------------------------------------


    Psi4 started on: Monday, 22 January 2024 11:33AM

    Process ID: 42428
    Host:       ddmfs1
    PSIDATADIR: /ddmfs1b/softs/psi4conda/share/psi4
    Memory:     500.0 MiB
    Threads:    20
    
  ==> Input File <==

--------------------------------------------------------------------------
MEMORY 60 GB

molecule dimer {
-1 1
Gh(Li)     0.000000     0.000000     0.000000
Gh(Cl)     0.000000     2.029797     0.000000
Cl         2.029797     0.000000     0.000000

units ang
no_reorient
no_com
symmetry c1
}

set {
basis        aug-cc-pVTZ
scf_type     df
}

energy("mp2")
--------------------------------------------------------------------------

  Memory set to  55.879 GiB by Python driver.

Scratch directory: /ddmfs1a/scratch/
   => Libint2 <=

    Primary   basis highest AM E, G, H:  5, 4, 3
    Auxiliary basis highest AM E, G, H:  6, 5, 4
    Onebody   basis highest AM E, G, H:  6, 5, 4
    Solid Harmonics ordering:            gaussian

*** tstart() called on ddmfs1
*** at Mon Jan 22 11:33:11 2024

   => Loading Basis Set <=

    Name: AUG-CC-PVTZ
    Role: ORBITAL
    Keyword: BASIS
    atoms 1   entry LI         line    85 file /ddmfs1b/softs/psi4conda/share/psi4/basis/aug-cc-pvtz.gbs 
    atoms 2-3 entry CL         line   988 file /ddmfs1b/softs/psi4conda/share/psi4/basis/aug-cc-pvtz.gbs 


         ---------------------------------------------------------
                                   SCF
               by Justin Turney, Rob Parrish, Andy Simmonett
                          and Daniel G. A. Smith
                              RHF Reference
                       20 Threads,  57220 MiB Core
         ---------------------------------------------------------

  ==> Geometry <==

    Molecular point group: c1
    Full point group: C1h

    Geometry (in Angstrom), charge = -1, multiplicity = 1:

       Center              X                  Y                   Z               Mass       
    ------------   -----------------  -----------------  -----------------  -----------------
      Gh(LI)          0.000000000000     0.000000000000     0.000000000000     7.016003436600
      Gh(CL)          0.000000000000     2.029797000000     0.000000000000    34.968852682000
         CL           2.029797000000     0.000000000000     0.000000000000    34.968852682000

  Running in c1 symmetry.

  Rotational constants: A =      0.11701  B =      0.11701  C =      0.05850 [cm^-1]
  Rotational constants: A =   3507.76591  B =   3507.76591  C =   1753.88296 [MHz]
  Nuclear repulsion =    0.000000000000000

  Charge       = -1
  Multiplicity = 1
  Electrons    = 18
  Nalpha       = 9
  Nbeta        = 9

  ==> Algorithm <==

  SCF Algorithm Type is DF.
  DIIS enabled.
  MOM disabled.
  Fractional occupation disabled.
  Guess Type is SAD.
  Energy threshold   = 1.00e-08
  Density threshold  = 1.00e-08
  Integral threshold = 1.00e-12

  ==> Primary Basis <==

  Basis Set: AUG-CC-PVTZ
    Blend: AUG-CC-PVTZ
    Number of shells: 46
    Number of basis functions: 146
    Number of Cartesian functions: 173
    Spherical Harmonics?: true
    Max angular momentum: 3

   => Loading Basis Set <=

    Name: (AUG-CC-PVTZ AUX)
    Role: JKFIT
    Keyword: DF_BASIS_SCF
    atoms 1   entry LI         line    54 file /ddmfs1b/softs/psi4conda/share/psi4/basis/def2-universal-jkfit.gbs 
    atoms 2-3 entry CL         line   816 file /ddmfs1b/softs/psi4conda/share/psi4/basis/aug-cc-pvtz-jkfit.gbs 

  ==> Integral Setup <==

  DFHelper Memory: AOs need 0.063 GiB; user supplied 41.910 GiB. 
  Using in-core AOs.

  ==> MemDFJK: Density-Fitted J/K Matrices <==

    J tasked:                   Yes
    K tasked:                   Yes
    wK tasked:                   No
    OpenMP threads:              20
    Memory [MiB]:             42915
    Algorithm:                 Core
    Schwarz Cutoff:           1E-12
    Mask sparsity (%):       0.0000
    Fitting Condition:        1E-10

   => Auxiliary Basis Set <=

  Basis Set: (AUG-CC-PVTZ AUX)
    Blend: AUG-CC-PVTZ-JKFIT + DEF2-UNIVERSAL-JKFIT
    Number of shells: 101
    Number of basis functions: 343
    Number of Cartesian functions: 420
    Spherical Harmonics?: true
    Max angular momentum: 4

  Minimum eigenvalue in the overlap matrix is 2.7525889890E-04.
  Reciprocal condition number of the overlap matrix is 4.1376411053E-05.
    Using symmetric orthogonalization.

  ==> Pre-Iterations <==

  SCF Guess: Superposition of Atomic Densities via on-the-fly atomic UHF (no occupation information).

   -------------------------
    Irrep   Nso     Nmo    
   -------------------------
     A        146     146 
   -------------------------
    Total     146     146
   -------------------------

  ==> Iterations <==

                           Total Energy        Delta E     RMS |[F,P]|

   @DF-RHF iter SAD:  -459.11248998237141   -4.59112e+02   0.00000e+00 
   @DF-RHF iter   1:  -459.51385175456937   -4.01362e-01   2.04424e-03 ADIIS/DIIS
   @DF-RHF iter   2:  -459.56476113866921   -5.09094e-02   1.04668e-03 ADIIS/DIIS
   @DF-RHF iter   3:  -459.57346700473471   -8.70587e-03   6.97078e-05 DIIS
   @DF-RHF iter   4:  -459.57352171164126   -5.47069e-05   1.42627e-05 DIIS
   @DF-RHF iter   5:  -459.57352532705937   -3.61542e-06   1.44489e-06 DIIS
   @DF-RHF iter   6:  -459.57352540629432   -7.92350e-08   1.23051e-07 DIIS
   @DF-RHF iter   7:  -459.57352540712463   -8.30312e-10   1.45418e-08 DIIS
   @DF-RHF iter   8:  -459.57352540714311   -1.84741e-11   2.24325e-09 DIIS
  Energy and wave function converged.


  ==> Post-Iterations <==

    Orbital Energies [Eh]
    ---------------------

    Doubly Occupied:                                                      

       1A   -104.506689     2A    -10.229925     3A     -7.695988  
       4A     -7.695978     5A     -7.695954     6A     -0.733494  
       7A     -0.150329     8A     -0.150323     9A     -0.150322  

    Virtual:                                                              

      10A      0.082945    11A      0.092326    12A      0.093278  
      13A      0.104618    14A      0.157797    15A      0.170952  
      16A      0.176587    17A      0.189583    18A      0.218335  
      19A      0.230427    20A      0.239107    21A      0.247806  
      22A      0.256160    23A      0.272197    24A      0.276830  
      25A      0.278483    26A      0.285610    27A      0.299160  
      28A      0.305513    29A      0.315515    30A      0.359665  
      31A      0.369327    32A      0.402524    33A      0.433637  
      34A      0.450294    35A      0.475678    36A      0.482297  
      37A      0.502425    38A      0.507678    39A      0.508832  
      40A      0.515545    41A      0.524677    42A      0.528898  
      43A      0.535733    44A      0.548627    45A      0.567905  
      46A      0.636038    47A      0.645666    48A      0.645770  
      49A      0.656428    50A      0.668018    51A      0.683392  
      52A      0.691552    53A      0.709046    54A      0.711677  
      55A      0.715073    56A      0.759069    57A      0.774699  
      58A      0.784191    59A      0.822489    60A      0.895547  
      61A      0.933820    62A      0.936826    63A      0.965059  
      64A      0.995229    65A      1.010315    66A      1.023728  
      67A      1.040546    68A      1.048377    69A      1.096437  
      70A      1.118621    71A      1.125596    72A      1.154592  
      73A      1.219128    74A      1.220746    75A      1.234995  
      76A      1.271273    77A      1.312661    78A      1.323838  
      79A      1.330106    80A      1.387798    81A      1.422599  
      82A      1.430865    83A      1.445761    84A      1.486644  
      85A      1.523688    86A      1.539495    87A      1.577843  
      88A      1.582334    89A      1.610787    90A      1.620961  
      91A      1.656632    92A      1.675573    93A      1.700089  
      94A      1.746682    95A      1.762624    96A      1.806071  
      97A      1.816639    98A      1.880098    99A      1.895760  
     100A      1.913096   101A      1.949360   102A      1.957246  
     103A      2.055320   104A      2.069376   105A      2.205541  
     106A      2.231976   107A      2.401347   108A      2.687375  
     109A      2.905865   110A      2.923357   111A      2.947203  
     112A      3.005937   113A      3.100935   114A      3.214510  
     115A      3.263420   116A      3.416737   117A      3.418715  
     118A      3.458460   119A      3.508336   120A      3.561678  
     121A      3.602193   122A      3.649476   123A      3.695487  
     124A      4.153191   125A      4.153656   126A      4.237020  
     127A      4.256785   128A      4.260575   129A      4.281966  
     130A      4.338848   131A      4.372033   132A      4.452269  
     133A      4.515486   134A      4.794893   135A      4.908341  
     136A      4.925091   137A      4.984169   138A      5.031459  
     139A      5.171048   140A      6.575165   141A     11.503165  
     142A     14.997929   143A     28.096573   144A     28.177413  
     145A     28.378022   146A    161.069556  

    Final Occupation by Irrep:
              A 
    DOCC [     9 ]
    NA   [     9 ]
    NB   [     9 ]

  @DF-RHF Final Energy:  -459.57352540714311

   => Energetics <=

    Nuclear Repulsion Energy =              0.0000000000000000
    One-Electron Energy =                -641.1290466688564038
    Two-Electron Energy =                 181.5555212617132668
    Total Energy =                       -459.5735254071431655

Computation Completed


Properties will be evaluated at   0.000000,   0.000000,   0.000000 [a0]

Properties computed using the SCF density matrix


 Multipole Moments:

 ------------------------------------------------------------------------------------
     Multipole            Electronic (a.u.)      Nuclear  (a.u.)        Total (a.u.)
 ------------------------------------------------------------------------------------

 L = 1.  Multiply by 2.5417464519 to convert [e a0] to [Debye]
 Dipole X            :        -69.0446341           65.2079271           -3.8367069
 Dipole Y            :          0.0001373            0.0000000            0.0001373
 Dipole Z            :          0.0000000            0.0000000            0.0000000
 Magnitude           :                                                    3.8367069

 ------------------------------------------------------------------------------------

*** tstop() called on ddmfs1 at Mon Jan 22 11:33:12 2024
Module time:
	user time   =      24.00 seconds =       0.40 minutes
	system time =       2.30 seconds =       0.04 minutes
	total time  =          1 seconds =       0.02 minutes
Total time:
	user time   =      24.00 seconds =       0.40 minutes
	system time =       2.30 seconds =       0.04 minutes
	total time  =          1 seconds =       0.02 minutes

*** tstart() called on ddmfs1
*** at Mon Jan 22 11:33:12 2024


  //>>>>>>>>>>>>>>>>>>>>>>>>>>>>>>>>>>>//
  //               DFMP2               //
  //<<<<<<<<<<<<<<<<<<<<<<<<<<<<<<<<<<<//

   => Loading Basis Set <=

    Name: (AUG-CC-PVTZ AUX)
    Role: RIFIT
    Keyword: DF_BASIS_MP2
    atoms 1   entry LI         line    90 file /ddmfs1b/softs/psi4conda/share/psi4/basis/def2-qzvpp-ri.gbs 
    atoms 2-3 entry CL         line   742 file /ddmfs1b/softs/psi4conda/share/psi4/basis/aug-cc-pvtz-ri.gbs 

	 --------------------------------------------------------
	                          DF-MP2                         
	      2nd-Order Density-Fitted Moller-Plesset Theory     
	              RMP2 Wavefunction,  20 Threads             
	                                                         
	        Rob Parrish, Justin Turney, Andy Simmonett,      
	           Ed Hohenstein, and C. David Sherrill          
	 --------------------------------------------------------

   => Auxiliary Basis Set <=

  Basis Set: (AUG-CC-PVTZ AUX)
    Blend: AUG-CC-PVTZ-RI + DEF2-QZVPP-RI
    Number of shells: 101
    Number of basis functions: 395
    Number of Cartesian functions: 512
    Spherical Harmonics?: true
    Max angular momentum: 4

	 --------------------------------------------------------
	                 NBF =   146, NAUX =   395
	 --------------------------------------------------------
	   CLASS    FOCC     OCC    AOCC    AVIR     VIR    FVIR
	   PAIRS       0       9       9     137     137       0
	 --------------------------------------------------------

	-----------------------------------------------------------
	 ==================> DF-MP2 Energies <==================== 
	-----------------------------------------------------------
	 Reference Energy          =    -459.5735254071431086 [Eh]
	 Singles Energy            =      -0.0000000000000000 [Eh]
	 Same-Spin Energy          =      -0.0628797059600937 [Eh]
	 Opposite-Spin Energy      =      -0.1809137368892169 [Eh]
	 Correlation Energy        =      -0.2437934428493106 [Eh]
	 Total Energy              =    -459.8173188499924322 [Eh]
	-----------------------------------------------------------
	 ================> DF-SCS-MP2 Energies <================== 
	-----------------------------------------------------------
	 SCS Same-Spin Scale       =       0.3333333333333333 [-]
	 SCS Opposite-Spin Scale   =       1.2000000000000000 [-]
	 SCS Same-Spin Energy      =      -0.0209599019866979 [Eh]
	 SCS Opposite-Spin Energy  =      -0.2170964842670603 [Eh]
	 SCS Correlation Energy    =      -0.2380563862537582 [Eh]
	 SCS Total Energy          =    -459.8115817933968401 [Eh]
	-----------------------------------------------------------


*** tstop() called on ddmfs1 at Mon Jan 22 11:33:14 2024
Module time:
	user time   =       9.08 seconds =       0.15 minutes
	system time =       0.61 seconds =       0.01 minutes
	total time  =          2 seconds =       0.03 minutes
Total time:
	user time   =      33.09 seconds =       0.55 minutes
	system time =       2.91 seconds =       0.05 minutes
	total time  =          3 seconds =       0.05 minutes

    Psi4 stopped on: Monday, 22 January 2024 11:33AM
    Psi4 wall time for execution: 0:00:03.84

*** Psi4 exiting successfully. Buy a developer a beer!
