
    -----------------------------------------------------------------------
          Psi4: An Open-Source Ab Initio Electronic Structure Package
                               Psi4 1.8.2 release

                         Git: Rev {} zzzzzzz 


    D. G. A. Smith, L. A. Burns, A. C. Simmonett, R. M. Parrish,
    M. C. Schieber, R. Galvelis, P. Kraus, H. Kruse, R. Di Remigio,
    A. Alenaizan, A. M. James, S. Lehtola, J. P. Misiewicz, M. Scheurer,
    R. A. Shaw, J. B. Schriber, Y. Xie, Z. L. Glick, D. A. Sirianni,
    J. S. O'Brien, J. M. Waldrop, A. Kumar, E. G. Hohenstein,
    B. P. Pritchard, B. R. Brooks, H. F. Schaefer III, A. Yu. Sokolov,
    K. Patkowski, A. E. DePrince III, U. Bozkaya, R. A. King,
    F. A. Evangelista, J. M. Turney, T. D. Crawford, C. D. Sherrill,
    J. Chem. Phys. 152(18) 184108 (2020). https://doi.org/10.1063/5.0006002

                            Additional Code Authors
    E. T. Seidl, C. L. Janssen, E. F. Valeev, M. L. Leininger,
    J. F. Gonthier, R. M. Richard, H. R. McAlexander, M. Saitow, X. Wang,
    P. Verma, M. H. Lechner, A. Jiang, S. Behnle, A. G. Heide,
    M. F. Herbst, and D. L. Poole

             Previous Authors, Complete List of Code Contributors,
                       and Citations for Specific Modules
    https://github.com/psi4/psi4/blob/master/codemeta.json
    https://github.com/psi4/psi4/graphs/contributors
    http://psicode.org/psi4manual/master/introduction.html#citing-psifour

    -----------------------------------------------------------------------


    Psi4 started on: Monday, 22 January 2024 11:35AM

    Process ID: 42998
    Host:       ddmfs1
    PSIDATADIR: /ddmfs1b/softs/psi4conda/share/psi4
    Memory:     500.0 MiB
    Threads:    20
    
  ==> Input File <==

--------------------------------------------------------------------------
MEMORY 60 GB

molecule dimer {
-1 1
Br         0.000000     0.000000     0.000000
Gh(Li)     0.000000     2.170734     0.000000
Gh(Li)     2.170734     0.000000     0.000000

units ang
no_reorient
no_com
symmetry c1
}

set {
basis        aug-cc-pVTZ
scf_type     df
}

energy("mp2")
--------------------------------------------------------------------------

  Memory set to  55.879 GiB by Python driver.

Scratch directory: /ddmfs1a/scratch/
   => Libint2 <=

    Primary   basis highest AM E, G, H:  5, 4, 3
    Auxiliary basis highest AM E, G, H:  6, 5, 4
    Onebody   basis highest AM E, G, H:  6, 5, 4
    Solid Harmonics ordering:            gaussian

*** tstart() called on ddmfs1
*** at Mon Jan 22 11:35:06 2024

   => Loading Basis Set <=

    Name: AUG-CC-PVTZ
    Role: ORBITAL
    Keyword: BASIS
    atoms 1   entry BR         line  4208 file /ddmfs1b/softs/psi4conda/share/psi4/basis/aug-cc-pvtz.gbs 
    atoms 2-3 entry LI         line    85 file /ddmfs1b/softs/psi4conda/share/psi4/basis/aug-cc-pvtz.gbs 


         ---------------------------------------------------------
                                   SCF
               by Justin Turney, Rob Parrish, Andy Simmonett
                          and Daniel G. A. Smith
                              RHF Reference
                       20 Threads,  57220 MiB Core
         ---------------------------------------------------------

  ==> Geometry <==

    Molecular point group: c1
    Full point group: D1

    Geometry (in Angstrom), charge = -1, multiplicity = 1:

       Center              X                  Y                   Z               Mass       
    ------------   -----------------  -----------------  -----------------  -----------------
         BR           0.000000000000     0.000000000000     0.000000000000    78.918337600000
      Gh(LI)          0.000000000000     2.170734000000     0.000000000000     7.016003436600
      Gh(LI)          2.170734000000     0.000000000000     0.000000000000     7.016003436600

  Running in c1 symmetry.

  Rotational constants: A =      0.50991  B =      0.50991  C =      0.25495 [cm^-1]
  Rotational constants: A =  15286.71571  B =  15286.71571  C =   7643.35786 [MHz]
  Nuclear repulsion =    0.000000000000000

  Charge       = -1
  Multiplicity = 1
  Electrons    = 36
  Nalpha       = 18
  Nbeta        = 18

  ==> Algorithm <==

  SCF Algorithm Type is DF.
  DIIS enabled.
  MOM disabled.
  Fractional occupation disabled.
  Guess Type is SAD.
  Energy threshold   = 1.00e-08
  Density threshold  = 1.00e-08
  Integral threshold = 1.00e-12

  ==> Primary Basis <==

  Basis Set: AUG-CC-PVTZ
    Blend: AUG-CC-PVTZ
    Number of shells: 47
    Number of basis functions: 151
    Number of Cartesian functions: 179
    Spherical Harmonics?: true
    Max angular momentum: 3

   => Loading Basis Set <=

    Name: (AUG-CC-PVTZ AUX)
    Role: JKFIT
    Keyword: DF_BASIS_SCF
    atoms 1   entry BR         line  1492 file /ddmfs1b/softs/psi4conda/share/psi4/basis/aug-cc-pvtz-jkfit.gbs 
    atoms 2-3 entry LI         line    54 file /ddmfs1b/softs/psi4conda/share/psi4/basis/def2-universal-jkfit.gbs 

  ==> Integral Setup <==

  DFHelper Memory: AOs need 0.068 GiB; user supplied 41.910 GiB. 
  Using in-core AOs.

  ==> MemDFJK: Density-Fitted J/K Matrices <==

    J tasked:                   Yes
    K tasked:                   Yes
    wK tasked:                   No
    OpenMP threads:              20
    Memory [MiB]:             42915
    Algorithm:                 Core
    Schwarz Cutoff:           1E-12
    Mask sparsity (%):       0.0000
    Fitting Condition:        1E-10

   => Auxiliary Basis Set <=

  Basis Set: (AUG-CC-PVTZ AUX)
    Blend: AUG-CC-PVTZ-JKFIT + DEF2-UNIVERSAL-JKFIT
    Number of shells: 92
    Number of basis functions: 350
    Number of Cartesian functions: 449
    Spherical Harmonics?: true
    Max angular momentum: 4

  Minimum eigenvalue in the overlap matrix is 7.9989293356E-05.
  Reciprocal condition number of the overlap matrix is 9.5344844177E-06.
    Using symmetric orthogonalization.

  ==> Pre-Iterations <==

  SCF Guess: Superposition of Atomic Densities via on-the-fly atomic UHF (no occupation information).

   -------------------------
    Irrep   Nso     Nmo    
   -------------------------
     A        151     151 
   -------------------------
    Total     151     151
   -------------------------

  ==> Iterations <==

                           Total Energy        Delta E     RMS |[F,P]|

   @DF-RHF iter SAD: -2570.41423548147350   -2.57041e+03   0.00000e+00 
   @DF-RHF iter   1: -2572.25276027781319   -1.83852e+00   7.13089e-03 DIIS/ADIIS
   @DF-RHF iter   2: -2572.46251033622457   -2.09750e-01   3.98674e-03 DIIS/ADIIS
   @DF-RHF iter   3: -2572.53365536295587   -7.11450e-02   7.27123e-05 DIIS
   @DF-RHF iter   4: -2572.53370529076483   -4.99278e-05   8.62108e-06 DIIS
   @DF-RHF iter   5: -2572.53370764950023   -2.35874e-06   2.13373e-06 DIIS
   @DF-RHF iter   6: -2572.53370781380818   -1.64308e-07   4.54144e-07 DIIS
   @DF-RHF iter   7: -2572.53370783372702   -1.99188e-08   2.90283e-08 DIIS
   @DF-RHF iter   8: -2572.53370783376931   -4.22915e-11   4.81648e-09 DIIS
  Energy and wave function converged.


  ==> Post-Iterations <==

    Orbital Energies [Eh]
    ---------------------

    Doubly Occupied:                                                      

       1A   -489.721754     2A    -64.861437     3A    -58.215961  
       4A    -58.215958     5A    -58.215958     6A     -9.533160  
       7A     -7.140505     8A     -7.140492     9A     -7.140477  
      10A     -2.882197    11A     -2.882197    12A     -2.882190  
      13A     -2.882185    14A     -2.882183    15A     -0.685994  
      16A     -0.139340    17A     -0.139336    18A     -0.139332  

    Virtual:                                                              

      19A      0.071414    20A      0.078296    21A      0.090124  
      22A      0.090914    23A      0.091399    24A      0.091815  
      25A      0.099012    26A      0.105693    27A      0.149791  
      28A      0.152558    29A      0.171659    30A      0.173219  
      31A      0.174771    32A      0.179785    33A      0.198709  
      34A      0.229133    35A      0.237532    36A      0.242148  
      37A      0.254629    38A      0.262733    39A      0.263508  
      40A      0.264981    41A      0.267282    42A      0.268480  
      43A      0.273534    44A      0.278337    45A      0.282248  
      46A      0.288690    47A      0.296581    48A      0.322890  
      49A      0.354119    50A      0.359175    51A      0.368425  
      52A      0.388399    53A      0.408609    54A      0.444891  
      55A      0.452187    56A      0.461227    57A      0.475105  
      58A      0.488624    59A      0.497796    60A      0.498623  
      61A      0.499572    62A      0.506263    63A      0.512919  
      64A      0.513597    65A      0.516120    66A      0.516500  
      67A      0.520903    68A      0.532057    69A      0.534799  
      70A      0.537487    71A      0.540760    72A      0.548353  
      73A      0.558560    74A      0.576194    75A      0.576311  
      76A      0.579291    77A      0.603562    78A      0.609155  
      79A      0.619702    80A      0.639717    81A      0.676160  
      82A      0.682482    83A      0.725255    84A      0.741819  
      85A      0.776283    86A      0.803308    87A      0.849383  
      88A      0.858130    89A      0.920408    90A      0.936814  
      91A      0.949950    92A      0.954594    93A      0.964941  
      94A      0.984972    95A      0.988094    96A      1.007783  
      97A      1.024250    98A      1.026300    99A      1.060551  
     100A      1.062175   101A      1.062204   102A      1.068139  
     103A      1.091453   104A      1.095116   105A      1.097721  
     106A      1.104069   107A      1.124880   108A      1.132149  
     109A      1.138427   110A      1.141174   111A      1.159920  
     112A      1.183177   113A      1.201830   114A      1.227161  
     115A      1.278592   116A      1.297781   117A      1.306238  
     118A      1.339254   119A      1.352583   120A      1.388190  
     121A      1.407629   122A      1.429133   123A      1.473620  
     124A      1.477808   125A      1.503912   126A      1.696984  
     127A      1.713835   128A      1.744158   129A      1.795398  
     130A      1.853178   131A      1.933336   132A      2.201560  
     133A      2.215353   134A      2.585998   135A      2.644266  
     136A      2.726188   137A      2.726768   138A      2.731042  
     139A      2.753473   140A      2.798306   141A      2.810443  
     142A      2.819837   143A      2.843479   144A      2.863207  
     145A      2.949960   146A      3.020487   147A      3.076688  
     148A      3.240461   149A      5.179877   150A     10.901847  
     151A     11.201203  

    Final Occupation by Irrep:
              A 
    DOCC [    18 ]
    NA   [    18 ]
    NB   [    18 ]

  @DF-RHF Final Energy: -2572.53370783376931

   => Energetics <=

    Nuclear Repulsion Energy =              0.0000000000000000
    One-Electron Energy =               -3593.6661010050047480
    Two-Electron Energy =                1021.1323931712357762
    Total Energy =                      -2572.5337078337688581

Computation Completed


Properties will be evaluated at   0.000000,   0.000000,   0.000000 [a0]

Properties computed using the SCF density matrix


 Multipole Moments:

 ------------------------------------------------------------------------------------
     Multipole            Electronic (a.u.)      Nuclear  (a.u.)        Total (a.u.)
 ------------------------------------------------------------------------------------

 L = 1.  Multiply by 2.5417464519 to convert [e a0] to [Debye]
 Dipole X            :          0.0002907            0.0000000            0.0002907
 Dipole Y            :          0.0002907            0.0000000            0.0002907
 Dipole Z            :         -0.0000000            0.0000000           -0.0000000
 Magnitude           :                                                    0.0004111

 ------------------------------------------------------------------------------------

*** tstop() called on ddmfs1 at Mon Jan 22 11:35:10 2024
Module time:
	user time   =      37.83 seconds =       0.63 minutes
	system time =       6.83 seconds =       0.11 minutes
	total time  =          4 seconds =       0.07 minutes
Total time:
	user time   =      37.83 seconds =       0.63 minutes
	system time =       6.83 seconds =       0.11 minutes
	total time  =          4 seconds =       0.07 minutes

*** tstart() called on ddmfs1
*** at Mon Jan 22 11:35:10 2024


  //>>>>>>>>>>>>>>>>>>>>>>>>>>>>>>>>>>>//
  //               DFMP2               //
  //<<<<<<<<<<<<<<<<<<<<<<<<<<<<<<<<<<<//

   => Loading Basis Set <=

    Name: (AUG-CC-PVTZ AUX)
    Role: RIFIT
    Keyword: DF_BASIS_MP2
    atoms 1   entry BR         line  1248 file /ddmfs1b/softs/psi4conda/share/psi4/basis/aug-cc-pvtz-ri.gbs 
    atoms 2-3 entry LI         line    90 file /ddmfs1b/softs/psi4conda/share/psi4/basis/def2-qzvpp-ri.gbs 

	 --------------------------------------------------------
	                          DF-MP2                         
	      2nd-Order Density-Fitted Moller-Plesset Theory     
	              RMP2 Wavefunction,  20 Threads             
	                                                         
	        Rob Parrish, Justin Turney, Andy Simmonett,      
	           Ed Hohenstein, and C. David Sherrill          
	 --------------------------------------------------------

   => Auxiliary Basis Set <=

  Basis Set: (AUG-CC-PVTZ AUX)
    Blend: AUG-CC-PVTZ-RI + DEF2-QZVPP-RI
    Number of shells: 97
    Number of basis functions: 393
    Number of Cartesian functions: 521
    Spherical Harmonics?: true
    Max angular momentum: 5

	 --------------------------------------------------------
	                 NBF =   151, NAUX =   393
	 --------------------------------------------------------
	   CLASS    FOCC     OCC    AOCC    AVIR     VIR    FVIR
	   PAIRS       0      18      18     133     133       0
	 --------------------------------------------------------

	-----------------------------------------------------------
	 ==================> DF-MP2 Energies <==================== 
	-----------------------------------------------------------
	 Reference Energy          =   -2572.5337078337693129 [Eh]
	 Singles Energy            =      -0.0000000000000000 [Eh]
	 Same-Spin Energy          =      -0.0898545474771314 [Eh]
	 Opposite-Spin Energy      =      -0.2085271618526994 [Eh]
	 Correlation Energy        =      -0.2983817093298308 [Eh]
	 Total Energy              =   -2572.8320895430993005 [Eh]
	-----------------------------------------------------------
	 ================> DF-SCS-MP2 Energies <================== 
	-----------------------------------------------------------
	 SCS Same-Spin Scale       =       0.3333333333333333 [-]
	 SCS Opposite-Spin Scale   =       1.2000000000000000 [-]
	 SCS Same-Spin Energy      =      -0.0299515158257105 [Eh]
	 SCS Opposite-Spin Energy  =      -0.2502325942232392 [Eh]
	 SCS Correlation Energy    =      -0.2801841100489497 [Eh]
	 SCS Total Energy          =   -2572.8138919438183621 [Eh]
	-----------------------------------------------------------


*** tstop() called on ddmfs1 at Mon Jan 22 11:35:17 2024
Module time:
	user time   =      15.79 seconds =       0.26 minutes
	system time =       1.59 seconds =       0.03 minutes
	total time  =          7 seconds =       0.12 minutes
Total time:
	user time   =      53.63 seconds =       0.89 minutes
	system time =       8.42 seconds =       0.14 minutes
	total time  =         11 seconds =       0.18 minutes

    Psi4 stopped on: Monday, 22 January 2024 11:35AM
    Psi4 wall time for execution: 0:00:11.16

*** Psi4 exiting successfully. Buy a developer a beer!
