
    -----------------------------------------------------------------------
          Psi4: An Open-Source Ab Initio Electronic Structure Package
                               Psi4 1.8.2 release

                         Git: Rev {} zzzzzzz 


    D. G. A. Smith, L. A. Burns, A. C. Simmonett, R. M. Parrish,
    M. C. Schieber, R. Galvelis, P. Kraus, H. Kruse, R. Di Remigio,
    A. Alenaizan, A. M. James, S. Lehtola, J. P. Misiewicz, M. Scheurer,
    R. A. Shaw, J. B. Schriber, Y. Xie, Z. L. Glick, D. A. Sirianni,
    J. S. O'Brien, J. M. Waldrop, A. Kumar, E. G. Hohenstein,
    B. P. Pritchard, B. R. Brooks, H. F. Schaefer III, A. Yu. Sokolov,
    K. Patkowski, A. E. DePrince III, U. Bozkaya, R. A. King,
    F. A. Evangelista, J. M. Turney, T. D. Crawford, C. D. Sherrill,
    J. Chem. Phys. 152(18) 184108 (2020). https://doi.org/10.1063/5.0006002

                            Additional Code Authors
    E. T. Seidl, C. L. Janssen, E. F. Valeev, M. L. Leininger,
    J. F. Gonthier, R. M. Richard, H. R. McAlexander, M. Saitow, X. Wang,
    P. Verma, M. H. Lechner, A. Jiang, S. Behnle, A. G. Heide,
    M. F. Herbst, and D. L. Poole

             Previous Authors, Complete List of Code Contributors,
                       and Citations for Specific Modules
    https://github.com/psi4/psi4/blob/master/codemeta.json
    https://github.com/psi4/psi4/graphs/contributors
    http://psicode.org/psi4manual/master/introduction.html#citing-psifour

    -----------------------------------------------------------------------


    Psi4 started on: Monday, 22 January 2024 03:50AM

    Process ID: 31264
    Host:       ddmfs1
    PSIDATADIR: /ddmfs1b/softs/psi4conda/share/psi4
    Memory:     500.0 MiB
    Threads:    20
    
  ==> Input File <==

--------------------------------------------------------------------------
MEMORY 60 GB

molecule dimer {
1 1
Li     0.000000     0.000000     0.000000
--
-1 1
Br     0.000000     2.170734     0.000000
--
-1 1
Br     2.170734     0.000000     0.000000

units ang
no_reorient
no_com
symmetry c1
}

set {
basis        aug-cc-pVTZ
scf_type     df
}

energy("mp2", bsse_type="cp")
--------------------------------------------------------------------------

  Memory set to  55.879 GiB by Python driver.

Scratch directory: /ddmfs1a/scratch/

  //>>>>>>>>>>>>>>>>>>>>>>>>>>>>>>>>>>>>>>>>//
  // ManyBody Setup: N-Body Levels [1, 2, 3]//
  //<<<<<<<<<<<<<<<<<<<<<<<<<<<<<<<<<<<<<<<<//

        Number of 1-body computations:     3
        Number of 2-body computations:     3
        Number of 3-body computations:     1

    -----------------------------------------------------------------------
          Psi4: An Open-Source Ab Initio Electronic Structure Package
                               Psi4 1.8.2 release

                         Git: Rev {} zzzzzzz 


    D. G. A. Smith, L. A. Burns, A. C. Simmonett, R. M. Parrish,
    M. C. Schieber, R. Galvelis, P. Kraus, H. Kruse, R. Di Remigio,
    A. Alenaizan, A. M. James, S. Lehtola, J. P. Misiewicz, M. Scheurer,
    R. A. Shaw, J. B. Schriber, Y. Xie, Z. L. Glick, D. A. Sirianni,
    J. S. O'Brien, J. M. Waldrop, A. Kumar, E. G. Hohenstein,
    B. P. Pritchard, B. R. Brooks, H. F. Schaefer III, A. Yu. Sokolov,
    K. Patkowski, A. E. DePrince III, U. Bozkaya, R. A. King,
    F. A. Evangelista, J. M. Turney, T. D. Crawford, C. D. Sherrill,
    J. Chem. Phys. 152(18) 184108 (2020). https://doi.org/10.1063/5.0006002

                            Additional Code Authors
    E. T. Seidl, C. L. Janssen, E. F. Valeev, M. L. Leininger,
    J. F. Gonthier, R. M. Richard, H. R. McAlexander, M. Saitow, X. Wang,
    P. Verma, M. H. Lechner, A. Jiang, S. Behnle, A. G. Heide,
    M. F. Herbst, and D. L. Poole

             Previous Authors, Complete List of Code Contributors,
                       and Citations for Specific Modules
    https://github.com/psi4/psi4/blob/master/codemeta.json
    https://github.com/psi4/psi4/graphs/contributors
    http://psicode.org/psi4manual/master/introduction.html#citing-psifour

    -----------------------------------------------------------------------


    Psi4 started on: Monday, 22 January 2024 03:50AM

    Process ID: 31264
    Host:       ddmfs1
    PSIDATADIR: /ddmfs1b/softs/psi4conda/share/psi4
    Memory:     55.9 GiB
    Threads:    20
    
  ==> Input QCSchema <==

--------------------------------------------------------------------------
{'driver': 'energy',
 'extras': {'psiapi': True, 'wfn_qcvars_only': True},
 'id': None,
 'keywords': {'SCF_TYPE': 'DF', 'function_kwargs': {}},
 'model': {'basis': 'aug-cc-pvtz', 'method': 'mp2'},
 'molecule': {'atom_labels': ['', '', ''],
              'atomic_numbers': [3, 35, 35],
              'extras': {},
              'fix_com': True,
              'fix_orientation': True,
              'fix_symmetry': 'c1',
              'fragment_charges': [1.0, 0.0, 0.0],
              'fragment_multiplicities': [1, 1, 1],
              'fragments': [[0], [1], [2]],
              'geometry': [0.0, 0.0, 0.0, 0.0, 4.102092751219572, 0.0, 4.102092751219572, 0.0, 0.0],
              'mass_numbers': [7, 79, 79],
              'masses': [7.0160034366, 78.9183376, 78.9183376],
              'molecular_charge': 1.0,
              'molecular_multiplicity': 1,
              'name': 'dimer',
              'provenance': {'creator': 'QCElemental',
                             'routine': 'qcelemental.molparse.from_string',
                             'version': '0.26.0'},
              'real': [True, False, False],
              'schema_name': 'qcschema_molecule',
              'schema_version': 2,
              'symbols': ['Li', 'Br', 'Br'],
              'validated': True},
 'protocols': {'stdout': True},
 'provenance': {'creator': 'QCElemental', 'routine': 'qcelemental.models.results', 'version': '0.26.0'},
 'schema_name': 'qcschema_input',
 'schema_version': 1}
--------------------------------------------------------------------------

Scratch directory: /ddmfs1a/scratch/
   => Libint2 <=

    Primary   basis highest AM E, G, H:  5, 4, 3
    Auxiliary basis highest AM E, G, H:  6, 5, 4
    Onebody   basis highest AM E, G, H:  6, 5, 4
    Solid Harmonics ordering:            gaussian

*** tstart() called on ddmfs1
*** at Mon Jan 22 03:50:57 2024

   => Loading Basis Set <=

    Name: AUG-CC-PVTZ
    Role: ORBITAL
    Keyword: BASIS
    atoms 1   entry LI         line    85 file /ddmfs1b/softs/psi4conda/share/psi4/basis/aug-cc-pvtz.gbs 
    atoms 2-3 entry BR         line  4208 file /ddmfs1b/softs/psi4conda/share/psi4/basis/aug-cc-pvtz.gbs 


         ---------------------------------------------------------
                                   SCF
               by Justin Turney, Rob Parrish, Andy Simmonett
                          and Daniel G. A. Smith
                              RHF Reference
                       20 Threads,  57220 MiB Core
         ---------------------------------------------------------

  ==> Geometry <==

    Molecular point group: c1
    Full point group: D1

    Geometry (in Bohr), charge = 1, multiplicity = 1:

       Center              X                  Y                   Z               Mass       
    ------------   -----------------  -----------------  -----------------  -----------------
         LI           0.000000000000     0.000000000000     0.000000000000     7.016003436600
      Gh(BR)          0.000000000000     4.102092751220     0.000000000000    78.918337600000
      Gh(BR)          4.102092751220     0.000000000000     0.000000000000    78.918337600000

  Running in c1 symmetry.

  Rotational constants: A =      0.04533  B =      0.04533  C =      0.02267 [cm^-1]
  Rotational constants: A =   1359.02064  B =   1359.02064  C =    679.51032 [MHz]
  Nuclear repulsion =    0.000000000000000

  Charge       = 1
  Multiplicity = 1
  Electrons    = 2
  Nalpha       = 1
  Nbeta        = 1

  ==> Algorithm <==

  SCF Algorithm Type is DF.
  DIIS enabled.
  MOM disabled.
  Fractional occupation disabled.
  Guess Type is SAD.
  Energy threshold   = 1.00e-08
  Density threshold  = 1.00e-08
  Integral threshold = 1.00e-12

  ==> Primary Basis <==

  Basis Set: AUG-CC-PVTZ
    Blend: AUG-CC-PVTZ
    Number of shells: 52
    Number of basis functions: 164
    Number of Cartesian functions: 193
    Spherical Harmonics?: true
    Max angular momentum: 3

   => Loading Basis Set <=

    Name: (AUG-CC-PVTZ AUX)
    Role: JKFIT
    Keyword: DF_BASIS_SCF
    atoms 1   entry LI         line    54 file /ddmfs1b/softs/psi4conda/share/psi4/basis/def2-universal-jkfit.gbs 
    atoms 2-3 entry BR         line  1492 file /ddmfs1b/softs/psi4conda/share/psi4/basis/aug-cc-pvtz-jkfit.gbs 

  ==> Integral Setup <==

  DFHelper Memory: AOs need 0.121 GiB; user supplied 41.910 GiB. 
  Using in-core AOs.

  ==> MemDFJK: Density-Fitted J/K Matrices <==

    J tasked:                   Yes
    K tasked:                   Yes
    wK tasked:                   No
    OpenMP threads:              20
    Memory [MiB]:             42915
    Algorithm:                 Core
    Schwarz Cutoff:           1E-12
    Mask sparsity (%):       0.0297
    Fitting Condition:        1E-10

   => Auxiliary Basis Set <=

  Basis Set: (AUG-CC-PVTZ AUX)
    Blend: AUG-CC-PVTZ-JKFIT + DEF2-UNIVERSAL-JKFIT
    Number of shells: 133
    Number of basis functions: 547
    Number of Cartesian functions: 718
    Spherical Harmonics?: true
    Max angular momentum: 4

  Minimum eigenvalue in the overlap matrix is 2.2798693575E-04.
  Reciprocal condition number of the overlap matrix is 3.2822859949E-05.
    Using symmetric orthogonalization.

  ==> Pre-Iterations <==

  SCF Guess: Superposition of Atomic Densities via on-the-fly atomic UHF (no occupation information).

   -------------------------
    Irrep   Nso     Nmo    
   -------------------------
     A        164     164 
   -------------------------
    Total     164     164
   -------------------------

  ==> Iterations <==

                           Total Energy        Delta E     RMS |[F,P]|

   @DF-RHF iter SAD:    -7.31445246728155   -7.31445e+00   0.00000e+00 
   @DF-RHF iter   1:    -7.23638146931079    7.80710e-02   1.38131e-05 DIIS
   @DF-RHF iter   2:    -7.23638333508574   -1.86577e-06   1.57568e-06 DIIS
   @DF-RHF iter   3:    -7.23638336322375   -2.81380e-08   7.77883e-08 DIIS
   @DF-RHF iter   4:    -7.23638336327785   -5.40927e-11   5.65273e-10 DIIS
  Energy and wave function converged.


  ==> Post-Iterations <==

    Orbital Energies [Eh]
    ---------------------

    Doubly Occupied:                                                      

       1A     -2.792369  

    Virtual:                                                              

       2A     -0.196298     3A     -0.128601     4A     -0.128600  
       5A     -0.128595     6A     -0.073715     7A     -0.056391  
       8A     -0.056379     9A     -0.056355    10A     -0.043325  
      11A     -0.041104    12A     -0.037795    13A     -0.036955  
      14A     -0.036246    15A     -0.016392    16A     -0.009967  
      17A     -0.006370    18A     -0.005096    19A      0.013927  
      20A      0.019756    21A      0.020127    22A      0.025796  
      23A      0.027866    24A      0.037041    25A      0.070597  
      26A      0.081234    27A      0.111378    28A      0.119191  
      29A      0.120492    30A      0.125501    31A      0.134798  
      32A      0.135193    33A      0.162696    34A      0.169031  
      35A      0.172771    36A      0.175516    37A      0.186727  
      38A      0.195943    39A      0.207134    40A      0.219257  
      41A      0.238740    42A      0.239129    43A      0.250928  
      44A      0.251510    45A      0.256558    46A      0.266908  
      47A      0.270069    48A      0.280611    49A      0.283059  
      50A      0.294390    51A      0.308281    52A      0.345025  
      53A      0.360279    54A      0.385797    55A      0.407483  
      56A      0.426380    57A      0.452816    58A      0.522225  
      59A      0.523941    60A      0.530752    61A      0.558663  
      62A      0.562476    63A      0.563066    64A      0.576968  
      65A      0.582509    66A      0.594456    67A      0.605363  
      68A      0.609121    69A      0.626970    70A      0.677733  
      71A      0.740019    72A      0.824468    73A      0.830409  
      74A      0.897030    75A      0.908750    76A      0.910803  
      77A      0.914622    78A      0.924615    79A      0.934320  
      80A      0.948326    81A      0.972070    82A      0.980657  
      83A      1.000151    84A      1.002299    85A      1.017802  
      86A      1.031264    87A      1.054627    88A      1.060846  
      89A      1.088640    90A      1.120080    91A      1.147640  
      92A      1.177741    93A      1.179102    94A      1.193286  
      95A      1.194710    96A      1.227680    97A      1.256523  
      98A      1.262266    99A      1.271631   100A      1.289648  
     101A      1.427828   102A      1.494675   103A      1.551870  
     104A      2.766849   105A      2.766936   106A      2.767223  
     107A      2.809820   108A      2.849780   109A      2.850830  
     110A      2.865674   111A      2.922005   112A      2.938215  
     113A      2.949784   114A      2.969831   115A      2.989716  
     116A      3.004322   117A      3.017236   118A      3.048685  
     119A      3.050999   120A      3.090788   121A      3.113350  
     122A      3.116962   123A      3.120830   124A      3.130745  
     125A      3.140286   126A      3.149718   127A      3.179701  
     128A      3.183682   129A      3.210082   130A      3.230680  
     131A      3.238186   132A      3.244596   133A      3.320818  
     134A      3.326420   135A      3.645373   136A      3.705517  
     137A      9.760790   138A     10.431320   139A     13.371696  
     140A     13.374516   141A     13.379974   142A     13.457605  
     143A     13.562125   144A     13.586793   145A     25.927146  
     146A     25.950182   147A     25.950294   148A     25.994829  
     149A     26.012705   150A     26.036299   151A     26.057553  
     152A     26.082776   153A     26.098630   154A     26.204420  
     155A     45.587604   156A     46.081567   157A    138.410949  
     158A    138.418046   159A    138.424372   160A    138.554163  
     161A    138.713551   162A    138.758741   163A    709.367067  
     164A    710.825343  

    Final Occupation by Irrep:
              A 
    DOCC [     1 ]
    NA   [     1 ]
    NB   [     1 ]

  @DF-RHF Final Energy:    -7.23638336327785

   => Energetics <=

    Nuclear Repulsion Energy =              0.0000000000000000
    One-Electron Energy =                  -8.8880292621946406
    Two-Electron Energy =                   1.6516458989167950
    Total Energy =                         -7.2363833632778451

Computation Completed


Properties will be evaluated at   0.000000,   0.000000,   0.000000 [a0]

Properties computed using the SCF density matrix


 Multipole Moments:

 ------------------------------------------------------------------------------------
     Multipole            Electronic (a.u.)      Nuclear  (a.u.)        Total (a.u.)
 ------------------------------------------------------------------------------------

 L = 1.  Multiply by 2.5417464519 to convert [e a0] to [Debye]
 Dipole X            :          0.0000274            0.0000000            0.0000274
 Dipole Y            :          0.0000274            0.0000000            0.0000274
 Dipole Z            :         -0.0000000            0.0000000           -0.0000000
 Magnitude           :                                                    0.0000388

 ------------------------------------------------------------------------------------

*** tstop() called on ddmfs1 at Mon Jan 22 03:51:03 2024
Module time:
	user time   =      28.61 seconds =       0.48 minutes
	system time =       3.91 seconds =       0.07 minutes
	total time  =          6 seconds =       0.10 minutes
Total time:
	user time   =      28.61 seconds =       0.48 minutes
	system time =       3.91 seconds =       0.07 minutes
	total time  =          6 seconds =       0.10 minutes

*** tstart() called on ddmfs1
*** at Mon Jan 22 03:51:03 2024


  //>>>>>>>>>>>>>>>>>>>>>>>>>>>>>>>>>>>//
  //               DFMP2               //
  //<<<<<<<<<<<<<<<<<<<<<<<<<<<<<<<<<<<//

   => Loading Basis Set <=

    Name: (AUG-CC-PVTZ AUX)
    Role: RIFIT
    Keyword: DF_BASIS_MP2
    atoms 1   entry LI         line    90 file /ddmfs1b/softs/psi4conda/share/psi4/basis/def2-qzvpp-ri.gbs 
    atoms 2-3 entry BR         line  1248 file /ddmfs1b/softs/psi4conda/share/psi4/basis/aug-cc-pvtz-ri.gbs 

	 --------------------------------------------------------
	                          DF-MP2                         
	      2nd-Order Density-Fitted Moller-Plesset Theory     
	              RMP2 Wavefunction,  20 Threads             
	                                                         
	        Rob Parrish, Justin Turney, Andy Simmonett,      
	           Ed Hohenstein, and C. David Sherrill          
	 --------------------------------------------------------

   => Auxiliary Basis Set <=

  Basis Set: (AUG-CC-PVTZ AUX)
    Blend: AUG-CC-PVTZ-RI + DEF2-QZVPP-RI
    Number of shells: 113
    Number of basis functions: 483
    Number of Cartesian functions: 652
    Spherical Harmonics?: true
    Max angular momentum: 5

	 --------------------------------------------------------
	                 NBF =   164, NAUX =   483
	 --------------------------------------------------------
	   CLASS    FOCC     OCC    AOCC    AVIR     VIR    FVIR
	   PAIRS       0       1       1     163     163       0
	 --------------------------------------------------------

	-----------------------------------------------------------
	 ==================> DF-MP2 Energies <==================== 
	-----------------------------------------------------------
	 Reference Energy          =      -7.2363833632778460 [Eh]
	 Singles Energy            =      -0.0000000000000000 [Eh]
	 Same-Spin Energy          =       0.0000000000000000 [Eh]
	 Opposite-Spin Energy      =      -0.0136106362024373 [Eh]
	 Correlation Energy        =      -0.0136106362024373 [Eh]
	 Total Energy              =      -7.2499939994802833 [Eh]
	-----------------------------------------------------------
	 ================> DF-SCS-MP2 Energies <================== 
	-----------------------------------------------------------
	 SCS Same-Spin Scale       =       0.3333333333333333 [-]
	 SCS Opposite-Spin Scale   =       1.2000000000000000 [-]
	 SCS Same-Spin Energy      =       0.0000000000000000 [Eh]
	 SCS Opposite-Spin Energy  =      -0.0163327634429247 [Eh]
	 SCS Correlation Energy    =      -0.0163327634429247 [Eh]
	 SCS Total Energy          =      -7.2527161267207712 [Eh]
	-----------------------------------------------------------


*** tstop() called on ddmfs1 at Mon Jan 22 03:51:20 2024
Module time:
	user time   =      26.32 seconds =       0.44 minutes
	system time =       1.51 seconds =       0.03 minutes
	total time  =         17 seconds =       0.28 minutes
Total time:
	user time   =      54.95 seconds =       0.92 minutes
	system time =       5.42 seconds =       0.09 minutes
	total time  =         23 seconds =       0.38 minutes

    Psi4 stopped on: Monday, 22 January 2024 03:51AM
    Psi4 wall time for execution: 0:00:22.42


    -----------------------------------------------------------------------
          Psi4: An Open-Source Ab Initio Electronic Structure Package
                               Psi4 1.8.2 release

                         Git: Rev {} zzzzzzz 


    D. G. A. Smith, L. A. Burns, A. C. Simmonett, R. M. Parrish,
    M. C. Schieber, R. Galvelis, P. Kraus, H. Kruse, R. Di Remigio,
    A. Alenaizan, A. M. James, S. Lehtola, J. P. Misiewicz, M. Scheurer,
    R. A. Shaw, J. B. Schriber, Y. Xie, Z. L. Glick, D. A. Sirianni,
    J. S. O'Brien, J. M. Waldrop, A. Kumar, E. G. Hohenstein,
    B. P. Pritchard, B. R. Brooks, H. F. Schaefer III, A. Yu. Sokolov,
    K. Patkowski, A. E. DePrince III, U. Bozkaya, R. A. King,
    F. A. Evangelista, J. M. Turney, T. D. Crawford, C. D. Sherrill,
    J. Chem. Phys. 152(18) 184108 (2020). https://doi.org/10.1063/5.0006002

                            Additional Code Authors
    E. T. Seidl, C. L. Janssen, E. F. Valeev, M. L. Leininger,
    J. F. Gonthier, R. M. Richard, H. R. McAlexander, M. Saitow, X. Wang,
    P. Verma, M. H. Lechner, A. Jiang, S. Behnle, A. G. Heide,
    M. F. Herbst, and D. L. Poole

             Previous Authors, Complete List of Code Contributors,
                       and Citations for Specific Modules
    https://github.com/psi4/psi4/blob/master/codemeta.json
    https://github.com/psi4/psi4/graphs/contributors
    http://psicode.org/psi4manual/master/introduction.html#citing-psifour

    -----------------------------------------------------------------------


    Psi4 started on: Monday, 22 January 2024 03:50AM

    Process ID: 31264
    Host:       ddmfs1
    PSIDATADIR: /ddmfs1b/softs/psi4conda/share/psi4
    Memory:     55.9 GiB
    Threads:    20
    
  ==> Input QCSchema <==

--------------------------------------------------------------------------
{'driver': 'energy',
 'extras': {'psiapi': True, 'wfn_qcvars_only': True},
 'id': None,
 'keywords': {'SCF_TYPE': 'DF', 'function_kwargs': {}},
 'model': {'basis': 'aug-cc-pvtz', 'method': 'mp2'},
 'molecule': {'atom_labels': ['', '', ''],
              'atomic_numbers': [3, 35, 35],
              'extras': {},
              'fix_com': True,
              'fix_orientation': True,
              'fix_symmetry': 'c1',
              'fragment_charges': [0.0, -1.0, 0.0],
              'fragment_multiplicities': [1, 1, 1],
              'fragments': [[0], [1], [2]],
              'geometry': [0.0, 0.0, 0.0, 0.0, 4.102092751219572, 0.0, 4.102092751219572, 0.0, 0.0],
              'mass_numbers': [7, 79, 79],
              'masses': [7.0160034366, 78.9183376, 78.9183376],
              'molecular_charge': -1.0,
              'molecular_multiplicity': 1,
              'name': 'dimer',
              'provenance': {'creator': 'QCElemental',
                             'routine': 'qcelemental.molparse.from_string',
                             'version': '0.26.0'},
              'real': [False, True, False],
              'schema_name': 'qcschema_molecule',
              'schema_version': 2,
              'symbols': ['Li', 'Br', 'Br'],
              'validated': True},
 'protocols': {'stdout': True},
 'provenance': {'creator': 'QCElemental', 'routine': 'qcelemental.models.results', 'version': '0.26.0'},
 'schema_name': 'qcschema_input',
 'schema_version': 1}
--------------------------------------------------------------------------

Scratch directory: /ddmfs1a/scratch/
   => Libint2 <=

    Primary   basis highest AM E, G, H:  5, 4, 3
    Auxiliary basis highest AM E, G, H:  6, 5, 4
    Onebody   basis highest AM E, G, H:  6, 5, 4
    Solid Harmonics ordering:            gaussian

*** tstart() called on ddmfs1
*** at Mon Jan 22 03:51:20 2024

   => Loading Basis Set <=

    Name: AUG-CC-PVTZ
    Role: ORBITAL
    Keyword: BASIS
    atoms 1   entry LI         line    85 file /ddmfs1b/softs/psi4conda/share/psi4/basis/aug-cc-pvtz.gbs 
    atoms 2-3 entry BR         line  4208 file /ddmfs1b/softs/psi4conda/share/psi4/basis/aug-cc-pvtz.gbs 


         ---------------------------------------------------------
                                   SCF
               by Justin Turney, Rob Parrish, Andy Simmonett
                          and Daniel G. A. Smith
                              RHF Reference
                       20 Threads,  57220 MiB Core
         ---------------------------------------------------------

  ==> Geometry <==

    Molecular point group: c1
    Full point group: C1h

    Geometry (in Bohr), charge = -1, multiplicity = 1:

       Center              X                  Y                   Z               Mass       
    ------------   -----------------  -----------------  -----------------  -----------------
      Gh(LI)          0.000000000000     0.000000000000     0.000000000000     7.016003436600
         BR           0.000000000000     4.102092751220     0.000000000000    78.918337600000
      Gh(BR)          4.102092751220     0.000000000000     0.000000000000    78.918337600000

  Running in c1 symmetry.

  Rotational constants: A =      0.04533  B =      0.04533  C =      0.02267 [cm^-1]
  Rotational constants: A =   1359.02064  B =   1359.02064  C =    679.51032 [MHz]
  Nuclear repulsion =    0.000000000000000

  Charge       = -1
  Multiplicity = 1
  Electrons    = 36
  Nalpha       = 18
  Nbeta        = 18

  ==> Algorithm <==

  SCF Algorithm Type is DF.
  DIIS enabled.
  MOM disabled.
  Fractional occupation disabled.
  Guess Type is SAD.
  Energy threshold   = 1.00e-08
  Density threshold  = 1.00e-08
  Integral threshold = 1.00e-12

  ==> Primary Basis <==

  Basis Set: AUG-CC-PVTZ
    Blend: AUG-CC-PVTZ
    Number of shells: 52
    Number of basis functions: 164
    Number of Cartesian functions: 193
    Spherical Harmonics?: true
    Max angular momentum: 3

   => Loading Basis Set <=

    Name: (AUG-CC-PVTZ AUX)
    Role: JKFIT
    Keyword: DF_BASIS_SCF
    atoms 1   entry LI         line    54 file /ddmfs1b/softs/psi4conda/share/psi4/basis/def2-universal-jkfit.gbs 
    atoms 2-3 entry BR         line  1492 file /ddmfs1b/softs/psi4conda/share/psi4/basis/aug-cc-pvtz-jkfit.gbs 

  ==> Integral Setup <==

  DFHelper Memory: AOs need 0.121 GiB; user supplied 41.910 GiB. 
  Using in-core AOs.

  ==> MemDFJK: Density-Fitted J/K Matrices <==

    J tasked:                   Yes
    K tasked:                   Yes
    wK tasked:                   No
    OpenMP threads:              20
    Memory [MiB]:             42915
    Algorithm:                 Core
    Schwarz Cutoff:           1E-12
    Mask sparsity (%):       0.0297
    Fitting Condition:        1E-10

   => Auxiliary Basis Set <=

  Basis Set: (AUG-CC-PVTZ AUX)
    Blend: AUG-CC-PVTZ-JKFIT + DEF2-UNIVERSAL-JKFIT
    Number of shells: 133
    Number of basis functions: 547
    Number of Cartesian functions: 718
    Spherical Harmonics?: true
    Max angular momentum: 4

  Minimum eigenvalue in the overlap matrix is 2.2798693575E-04.
  Reciprocal condition number of the overlap matrix is 3.2822859949E-05.
    Using symmetric orthogonalization.

  ==> Pre-Iterations <==

  SCF Guess: Superposition of Atomic Densities via on-the-fly atomic UHF (no occupation information).

   -------------------------
    Irrep   Nso     Nmo    
   -------------------------
     A        164     164 
   -------------------------
    Total     164     164
   -------------------------

  ==> Iterations <==

                           Total Energy        Delta E     RMS |[F,P]|

   @DF-RHF iter SAD: -2570.41423542097027   -2.57041e+03   0.00000e+00 
   @DF-RHF iter   1: -2572.25377890427353   -1.83954e+00   6.51246e-03 DIIS/ADIIS
   @DF-RHF iter   2: -2572.46318979210673   -2.09411e-01   3.63058e-03 DIIS/ADIIS
   @DF-RHF iter   3: -2572.53364989393049   -7.04601e-02   6.10644e-05 DIIS
   @DF-RHF iter   4: -2572.53369405330068   -4.41594e-05   7.57405e-06 DIIS
   @DF-RHF iter   5: -2572.53369614078929   -2.08749e-06   1.95374e-06 DIIS
   @DF-RHF iter   6: -2572.53369628401060   -1.43221e-07   4.02541e-07 DIIS
   @DF-RHF iter   7: -2572.53369630196903   -1.79584e-08   2.60081e-08 DIIS
   @DF-RHF iter   8: -2572.53369630200905   -4.00178e-11   5.09481e-09 DIIS
  Energy and wave function converged.


  ==> Post-Iterations <==

    Orbital Energies [Eh]
    ---------------------

    Doubly Occupied:                                                      

       1A   -489.721310     2A    -64.861113     3A    -58.215622  
       4A    -58.215621     5A    -58.215619     6A     -9.533055  
       7A     -7.140402     8A     -7.140396     9A     -7.140383  
      10A     -2.882093    11A     -2.882090    12A     -2.882082  
      13A     -2.882078    14A     -2.882075    15A     -0.685999  
      16A     -0.139342    17A     -0.139341    18A     -0.139337  

    Virtual:                                                              

      19A      0.081566    20A      0.090238    21A      0.093201  
      22A      0.100679    23A      0.151977    24A      0.161664  
      25A      0.173676    26A      0.180476    27A      0.198094  
      28A      0.203880    29A      0.213740    30A      0.237282  
      31A      0.256381    32A      0.262550    33A      0.264201  
      34A      0.268904    35A      0.270303    36A      0.274720  
      37A      0.281254    38A      0.284384    39A      0.333881  
      40A      0.357309    41A      0.376252    42A      0.397800  
      43A      0.438293    44A      0.450550    45A      0.451239  
      46A      0.473052    47A      0.478153    48A      0.498812  
      49A      0.500743    50A      0.502253    51A      0.515784  
      52A      0.519508    53A      0.520893    54A      0.536615  
      55A      0.548260    56A      0.555211    57A      0.566539  
      58A      0.574693    59A      0.578147    60A      0.586512  
      61A      0.587364    62A      0.604581    63A      0.604696  
      64A      0.605863    65A      0.645128    66A      0.678487  
      67A      0.700025    68A      0.710790    69A      0.773277  
      70A      0.839571    71A      0.879096    72A      0.913622  
      73A      0.933651    74A      0.955715    75A      0.963349  
      76A      0.969672    77A      0.973977    78A      1.001186  
      79A      1.009407    80A      1.055555    81A      1.064145  
      82A      1.070970    83A      1.090560    84A      1.092203  
      85A      1.108978    86A      1.120935    87A      1.140248  
      88A      1.159678    89A      1.193046    90A      1.216765  
      91A      1.228986    92A      1.242533    93A      1.256377  
      94A      1.282466    95A      1.291150    96A      1.310410  
      97A      1.314688    98A      1.319644    99A      1.350103  
     100A      1.367054   101A      1.376506   102A      1.409376  
     103A      1.423083   104A      1.451582   105A      1.516379  
     106A      1.553415   107A      1.561137   108A      1.586267  
     109A      1.615147   110A      1.659128   111A      1.671804  
     112A      1.769359   113A      1.807065   114A      1.863491  
     115A      2.000103   116A      2.174556   117A      2.355906  
     118A      2.536512   119A      2.565263   120A      2.616592  
     121A      2.627044   122A      2.630785   123A      2.639832  
     124A      2.654513   125A      2.706616   126A      2.750421  
     127A      2.782586   128A      2.814460   129A      2.838133  
     130A      2.845097   131A      2.884916   132A      3.074398  
     133A      3.155387   134A      3.192174   135A      3.285327  
     136A      3.337877   137A      3.345727   138A      3.427462  
     139A      3.459512   140A      3.495716   141A      3.498855  
     142A      3.516920   143A      3.551080   144A      3.589292  
     145A      3.641637   146A      3.671010   147A      3.735074  
     148A      3.949419   149A      5.114926   150A     10.498187  
     151A     11.283983   152A     13.784728   153A     13.833589  
     154A     13.992831   155A     26.362220   156A     26.380952  
     157A     26.461584   158A     26.504966   159A     26.519482  
     160A     46.247903   161A    138.828908   162A    138.908728  
     163A    139.146528   164A    710.510611  

    Final Occupation by Irrep:
              A 
    DOCC [    18 ]
    NA   [    18 ]
    NB   [    18 ]

  @DF-RHF Final Energy: -2572.53369630200905

   => Energetics <=

    Nuclear Repulsion Energy =              0.0000000000000000
    One-Electron Energy =               -3593.6714779762241960
    Two-Electron Energy =                1021.1377816742151481
    Total Energy =                      -2572.5336963020090479

Computation Completed


Properties will be evaluated at   0.000000,   0.000000,   0.000000 [a0]

Properties computed using the SCF density matrix


 Multipole Moments:

 ------------------------------------------------------------------------------------
     Multipole            Electronic (a.u.)      Nuclear  (a.u.)        Total (a.u.)
 ------------------------------------------------------------------------------------

 L = 1.  Multiply by 2.5417464519 to convert [e a0] to [Debye]
 Dipole X            :          0.0001321            0.0000000            0.0001321
 Dipole Y            :       -147.6758190          143.5732463           -4.1025727
 Dipole Z            :          0.0000000            0.0000000            0.0000000
 Magnitude           :                                                    4.1025727

 ------------------------------------------------------------------------------------

*** tstop() called on ddmfs1 at Mon Jan 22 03:51:26 2024
Module time:
	user time   =      43.18 seconds =       0.72 minutes
	system time =       6.31 seconds =       0.11 minutes
	total time  =          6 seconds =       0.10 minutes
Total time:
	user time   =      99.28 seconds =       1.65 minutes
	system time =      11.76 seconds =       0.20 minutes
	total time  =         29 seconds =       0.48 minutes

*** tstart() called on ddmfs1
*** at Mon Jan 22 03:51:26 2024


  //>>>>>>>>>>>>>>>>>>>>>>>>>>>>>>>>>>>//
  //               DFMP2               //
  //<<<<<<<<<<<<<<<<<<<<<<<<<<<<<<<<<<<//

   => Loading Basis Set <=

    Name: (AUG-CC-PVTZ AUX)
    Role: RIFIT
    Keyword: DF_BASIS_MP2
    atoms 1   entry LI         line    90 file /ddmfs1b/softs/psi4conda/share/psi4/basis/def2-qzvpp-ri.gbs 
    atoms 2-3 entry BR         line  1248 file /ddmfs1b/softs/psi4conda/share/psi4/basis/aug-cc-pvtz-ri.gbs 

	 --------------------------------------------------------
	                          DF-MP2                         
	      2nd-Order Density-Fitted Moller-Plesset Theory     
	              RMP2 Wavefunction,  20 Threads             
	                                                         
	        Rob Parrish, Justin Turney, Andy Simmonett,      
	           Ed Hohenstein, and C. David Sherrill          
	 --------------------------------------------------------

   => Auxiliary Basis Set <=

  Basis Set: (AUG-CC-PVTZ AUX)
    Blend: AUG-CC-PVTZ-RI + DEF2-QZVPP-RI
    Number of shells: 113
    Number of basis functions: 483
    Number of Cartesian functions: 652
    Spherical Harmonics?: true
    Max angular momentum: 5

	 --------------------------------------------------------
	                 NBF =   164, NAUX =   483
	 --------------------------------------------------------
	   CLASS    FOCC     OCC    AOCC    AVIR     VIR    FVIR
	   PAIRS       0      18      18     146     146       0
	 --------------------------------------------------------

	-----------------------------------------------------------
	 ==================> DF-MP2 Energies <==================== 
	-----------------------------------------------------------
	 Reference Energy          =   -2572.5336963020090479 [Eh]
	 Singles Energy            =      -0.0000000000000000 [Eh]
	 Same-Spin Energy          =      -0.0889065879572418 [Eh]
	 Opposite-Spin Energy      =      -0.2062873405451258 [Eh]
	 Correlation Energy        =      -0.2951939285023676 [Eh]
	 Total Energy              =   -2572.8288902305112060 [Eh]
	-----------------------------------------------------------
	 ================> DF-SCS-MP2 Energies <================== 
	-----------------------------------------------------------
	 SCS Same-Spin Scale       =       0.3333333333333333 [-]
	 SCS Opposite-Spin Scale   =       1.2000000000000000 [-]
	 SCS Same-Spin Energy      =      -0.0296355293190806 [Eh]
	 SCS Opposite-Spin Energy  =      -0.2475448086541509 [Eh]
	 SCS Correlation Energy    =      -0.2771803379732315 [Eh]
	 SCS Total Energy          =   -2572.8108766399823253 [Eh]
	-----------------------------------------------------------


*** tstop() called on ddmfs1 at Mon Jan 22 03:51:43 2024
Module time:
	user time   =      26.85 seconds =       0.45 minutes
	system time =       1.43 seconds =       0.02 minutes
	total time  =         17 seconds =       0.28 minutes
Total time:
	user time   =     126.15 seconds =       2.10 minutes
	system time =      13.19 seconds =       0.22 minutes
	total time  =         46 seconds =       0.77 minutes

    Psi4 stopped on: Monday, 22 January 2024 03:51AM
    Psi4 wall time for execution: 0:00:23.47


    -----------------------------------------------------------------------
          Psi4: An Open-Source Ab Initio Electronic Structure Package
                               Psi4 1.8.2 release

                         Git: Rev {} zzzzzzz 


    D. G. A. Smith, L. A. Burns, A. C. Simmonett, R. M. Parrish,
    M. C. Schieber, R. Galvelis, P. Kraus, H. Kruse, R. Di Remigio,
    A. Alenaizan, A. M. James, S. Lehtola, J. P. Misiewicz, M. Scheurer,
    R. A. Shaw, J. B. Schriber, Y. Xie, Z. L. Glick, D. A. Sirianni,
    J. S. O'Brien, J. M. Waldrop, A. Kumar, E. G. Hohenstein,
    B. P. Pritchard, B. R. Brooks, H. F. Schaefer III, A. Yu. Sokolov,
    K. Patkowski, A. E. DePrince III, U. Bozkaya, R. A. King,
    F. A. Evangelista, J. M. Turney, T. D. Crawford, C. D. Sherrill,
    J. Chem. Phys. 152(18) 184108 (2020). https://doi.org/10.1063/5.0006002

                            Additional Code Authors
    E. T. Seidl, C. L. Janssen, E. F. Valeev, M. L. Leininger,
    J. F. Gonthier, R. M. Richard, H. R. McAlexander, M. Saitow, X. Wang,
    P. Verma, M. H. Lechner, A. Jiang, S. Behnle, A. G. Heide,
    M. F. Herbst, and D. L. Poole

             Previous Authors, Complete List of Code Contributors,
                       and Citations for Specific Modules
    https://github.com/psi4/psi4/blob/master/codemeta.json
    https://github.com/psi4/psi4/graphs/contributors
    http://psicode.org/psi4manual/master/introduction.html#citing-psifour

    -----------------------------------------------------------------------


    Psi4 started on: Monday, 22 January 2024 03:50AM

    Process ID: 31264
    Host:       ddmfs1
    PSIDATADIR: /ddmfs1b/softs/psi4conda/share/psi4
    Memory:     55.9 GiB
    Threads:    20
    
  ==> Input QCSchema <==

--------------------------------------------------------------------------
{'driver': 'energy',
 'extras': {'psiapi': True, 'wfn_qcvars_only': True},
 'id': None,
 'keywords': {'SCF_TYPE': 'DF', 'function_kwargs': {}},
 'model': {'basis': 'aug-cc-pvtz', 'method': 'mp2'},
 'molecule': {'atom_labels': ['', '', ''],
              'atomic_numbers': [3, 35, 35],
              'extras': {},
              'fix_com': True,
              'fix_orientation': True,
              'fix_symmetry': 'c1',
              'fragment_charges': [0.0, -1.0, -1.0],
              'fragment_multiplicities': [1, 1, 1],
              'fragments': [[0], [1], [2]],
              'geometry': [0.0, 0.0, 0.0, 0.0, 4.102092751219572, 0.0, 4.102092751219572, 0.0, 0.0],
              'mass_numbers': [7, 79, 79],
              'masses': [7.0160034366, 78.9183376, 78.9183376],
              'molecular_charge': -2.0,
              'molecular_multiplicity': 1,
              'name': 'dimer',
              'provenance': {'creator': 'QCElemental',
                             'routine': 'qcelemental.molparse.from_string',
                             'version': '0.26.0'},
              'real': [False, True, True],
              'schema_name': 'qcschema_molecule',
              'schema_version': 2,
              'symbols': ['Li', 'Br', 'Br'],
              'validated': True},
 'protocols': {'stdout': True},
 'provenance': {'creator': 'QCElemental', 'routine': 'qcelemental.models.results', 'version': '0.26.0'},
 'schema_name': 'qcschema_input',
 'schema_version': 1}
--------------------------------------------------------------------------

Scratch directory: /ddmfs1a/scratch/
   => Libint2 <=

    Primary   basis highest AM E, G, H:  5, 4, 3
    Auxiliary basis highest AM E, G, H:  6, 5, 4
    Onebody   basis highest AM E, G, H:  6, 5, 4
    Solid Harmonics ordering:            gaussian

*** tstart() called on ddmfs1
*** at Mon Jan 22 03:51:43 2024

   => Loading Basis Set <=

    Name: AUG-CC-PVTZ
    Role: ORBITAL
    Keyword: BASIS
    atoms 1   entry LI         line    85 file /ddmfs1b/softs/psi4conda/share/psi4/basis/aug-cc-pvtz.gbs 
    atoms 2-3 entry BR         line  4208 file /ddmfs1b/softs/psi4conda/share/psi4/basis/aug-cc-pvtz.gbs 


         ---------------------------------------------------------
                                   SCF
               by Justin Turney, Rob Parrish, Andy Simmonett
                          and Daniel G. A. Smith
                              RHF Reference
                       20 Threads,  57220 MiB Core
         ---------------------------------------------------------

  ==> Geometry <==

    Molecular point group: c1
    Full point group: D1

    Geometry (in Bohr), charge = -2, multiplicity = 1:

       Center              X                  Y                   Z               Mass       
    ------------   -----------------  -----------------  -----------------  -----------------
      Gh(LI)          0.000000000000     0.000000000000     0.000000000000     7.016003436600
         BR           0.000000000000     4.102092751220     0.000000000000    78.918337600000
         BR           4.102092751220     0.000000000000     0.000000000000    78.918337600000

  Running in c1 symmetry.

  Rotational constants: A =      0.04533  B =      0.04533  C =      0.02267 [cm^-1]
  Rotational constants: A =   1359.02064  B =   1359.02064  C =    679.51032 [MHz]
  Nuclear repulsion =  211.161926237770587

  Charge       = -2
  Multiplicity = 1
  Electrons    = 72
  Nalpha       = 36
  Nbeta        = 36

  ==> Algorithm <==

  SCF Algorithm Type is DF.
  DIIS enabled.
  MOM disabled.
  Fractional occupation disabled.
  Guess Type is SAD.
  Energy threshold   = 1.00e-08
  Density threshold  = 1.00e-08
  Integral threshold = 1.00e-12

  ==> Primary Basis <==

  Basis Set: AUG-CC-PVTZ
    Blend: AUG-CC-PVTZ
    Number of shells: 52
    Number of basis functions: 164
    Number of Cartesian functions: 193
    Spherical Harmonics?: true
    Max angular momentum: 3

   => Loading Basis Set <=

    Name: (AUG-CC-PVTZ AUX)
    Role: JKFIT
    Keyword: DF_BASIS_SCF
    atoms 1   entry LI         line    54 file /ddmfs1b/softs/psi4conda/share/psi4/basis/def2-universal-jkfit.gbs 
    atoms 2-3 entry BR         line  1492 file /ddmfs1b/softs/psi4conda/share/psi4/basis/aug-cc-pvtz-jkfit.gbs 

  ==> Integral Setup <==

  DFHelper Memory: AOs need 0.121 GiB; user supplied 41.910 GiB. 
  Using in-core AOs.

  ==> MemDFJK: Density-Fitted J/K Matrices <==

    J tasked:                   Yes
    K tasked:                   Yes
    wK tasked:                   No
    OpenMP threads:              20
    Memory [MiB]:             42915
    Algorithm:                 Core
    Schwarz Cutoff:           1E-12
    Mask sparsity (%):       0.0297
    Fitting Condition:        1E-10

   => Auxiliary Basis Set <=

  Basis Set: (AUG-CC-PVTZ AUX)
    Blend: AUG-CC-PVTZ-JKFIT + DEF2-UNIVERSAL-JKFIT
    Number of shells: 133
    Number of basis functions: 547
    Number of Cartesian functions: 718
    Spherical Harmonics?: true
    Max angular momentum: 4

  Minimum eigenvalue in the overlap matrix is 2.2798693575E-04.
  Reciprocal condition number of the overlap matrix is 3.2822859949E-05.
    Using symmetric orthogonalization.

  ==> Pre-Iterations <==

  SCF Guess: Superposition of Atomic Densities via on-the-fly atomic UHF (no occupation information).

   -------------------------
    Irrep   Nso     Nmo    
   -------------------------
     A        164     164 
   -------------------------
    Total     164     164
   -------------------------

  ==> Iterations <==

                           Total Energy        Delta E     RMS |[F,P]|

   @DF-RHF iter SAD: -5140.88499069875797   -5.14088e+03   0.00000e+00 
   @DF-RHF iter   1: -5144.30970835464359   -3.42472e+00   9.26391e-03 DIIS/ADIIS
   @DF-RHF iter   2: -5141.07226029549111    3.23745e+00   9.65405e-03 DIIS/ADIIS
   @DF-RHF iter   3: -5144.69732332362128   -3.62506e+00   2.93048e-03 DIIS/ADIIS
   @DF-RHF iter   4: -5144.86009260620722   -1.62769e-01   1.10877e-03 DIIS/ADIIS
   @DF-RHF iter   5: -5144.89727593223324   -3.71833e-02   2.35082e-04 DIIS/ADIIS
   @DF-RHF iter   6: -5144.89972057907562   -2.44465e-03   6.02307e-05 DIIS
   @DF-RHF iter   7: -5144.90009275252214   -3.72173e-04   2.24100e-05 DIIS
   @DF-RHF iter   8: -5144.90015385369497   -6.11012e-05   8.32476e-06 DIIS
   @DF-RHF iter   9: -5144.90017030612034   -1.64524e-05   1.99339e-06 DIIS
   @DF-RHF iter  10: -5144.90017172626449   -1.42014e-06   6.52875e-07 DIIS
   @DF-RHF iter  11: -5144.90017185946090   -1.33196e-07   2.64792e-07 DIIS
   @DF-RHF iter  12: -5144.90017188068214   -2.12212e-08   7.05493e-08 DIIS
   @DF-RHF iter  13: -5144.90017188202546   -1.34332e-09   1.11607e-08 DIIS
   @DF-RHF iter  14: -5144.90017188204911   -2.36469e-11   2.67717e-09 DIIS
  Energy and wave function converged.


  ==> Post-Iterations <==

    Orbital Energies [Eh]
    ---------------------

    Doubly Occupied:                                                      

       1A   -489.587445     2A   -489.587445     3A    -64.727462  
       4A    -64.727462     5A    -58.081895     6A    -58.081895  
       7A    -58.081846     8A    -58.081846     9A    -58.081844  
      10A    -58.081844    11A     -9.399745    12A     -9.399743  
      13A     -7.006951    14A     -7.006945    15A     -7.006874  
      16A     -7.006869    17A     -7.006862    18A     -7.006857  
      19A     -2.748635    20A     -2.748630    21A     -2.748629  
      22A     -2.748626    23A     -2.748624    24A     -2.748588  
      25A     -2.748577    26A     -2.748575    27A     -2.748572  
      28A     -2.748569    29A     -0.567090    30A     -0.541276  
      31A     -0.049546    32A     -0.020708    33A     -0.020691  
      34A      0.005941    35A      0.005966    36A      0.055514  

    Virtual:                                                              

      37A      0.152268    38A      0.156970    39A      0.162317  
      40A      0.171668    41A      0.254784    42A      0.269539  
      43A      0.272036    44A      0.297154    45A      0.310387  
      46A      0.349705    47A      0.352658    48A      0.353380  
      49A      0.361247    50A      0.371437    51A      0.377489  
      52A      0.379502    53A      0.383921    54A      0.389948  
      55A      0.390554    56A      0.453085    57A      0.481149  
      58A      0.501581    59A      0.524499    60A      0.574294  
      61A      0.574473    62A      0.611615    63A      0.621467  
      64A      0.633070    65A      0.633617    66A      0.635864  
      67A      0.640807    68A      0.641262    69A      0.669527  
      70A      0.674013    71A      0.678631    72A      0.687870  
      73A      0.688469    74A      0.699058    75A      0.700139  
      76A      0.717830    77A      0.728258    78A      0.730755  
      79A      0.732268    80A      0.741517    81A      0.742058  
      82A      0.776141    83A      0.846462    84A      0.920852  
      85A      0.990001    86A      1.005483    87A      1.024356  
      88A      1.031259    89A      1.044970    90A      1.060864  
      91A      1.083367    92A      1.093443    93A      1.112913  
      94A      1.115859    95A      1.131257    96A      1.135132  
      97A      1.182072    98A      1.182291    99A      1.210176  
     100A      1.214498   101A      1.220881   102A      1.227616  
     103A      1.230338   104A      1.238099   105A      1.243291  
     106A      1.259453   107A      1.287887   108A      1.323800  
     109A      1.327196   110A      1.370692   111A      1.379242  
     112A      1.394144   113A      1.404120   114A      1.444740  
     115A      1.453923   116A      1.463118   117A      1.465477  
     118A      1.542575   119A      1.554922   120A      1.597740  
     121A      1.634472   122A      1.653548   123A      1.712191  
     124A      1.724039   125A      1.771438   126A      1.860854  
     127A      1.909346   128A      1.911717   129A      2.092367  
     130A      2.284619   131A      2.386036   132A      2.663086  
     133A      2.665702   134A      2.672184   135A      2.688611  
     136A      2.726969   137A      2.735549   138A      2.736504  
     139A      2.742534   140A      2.755688   141A      2.756082  
     142A      2.767618   143A      2.773539   144A      2.782102  
     145A      2.818185   146A      2.844196   147A      2.848020  
     148A      2.862156   149A      2.869024   150A      2.883489  
     151A      2.899229   152A      2.927669   153A      2.928146  
     154A      2.930972   155A      2.954482   156A      2.996379  
     157A      3.019490   158A      3.097673   159A      3.144839  
     160A      3.281087   161A      3.324517   162A      4.884114  
     163A      5.552111   164A     11.421551  

    Final Occupation by Irrep:
              A 
    DOCC [    36 ]
    NA   [    36 ]
    NB   [    36 ]

  @DF-RHF Final Energy: -5144.90017188204911

   => Energetics <=

    Nuclear Repulsion Energy =            211.1619262377705866
    One-Electron Energy =               -7618.9647186693555341
    Two-Electron Energy =                2262.9026205495356407
    Total Energy =                      -5144.9001718820491078

Computation Completed


Properties will be evaluated at   0.000000,   0.000000,   0.000000 [a0]

Properties computed using the SCF density matrix


 Multipole Moments:

 ------------------------------------------------------------------------------------
     Multipole            Electronic (a.u.)      Nuclear  (a.u.)        Total (a.u.)
 ------------------------------------------------------------------------------------

 L = 1.  Multiply by 2.5417464519 to convert [e a0] to [Debye]
 Dipole X            :       -147.6507042          143.5732463           -4.0774579
 Dipole Y            :       -147.6507042          143.5732463           -4.0774579
 Dipole Z            :          0.0000000            0.0000000            0.0000000
 Magnitude           :                                                    5.7663963

 ------------------------------------------------------------------------------------

*** tstop() called on ddmfs1 at Mon Jan 22 03:51:50 2024
Module time:
	user time   =      44.37 seconds =       0.74 minutes
	system time =       6.16 seconds =       0.10 minutes
	total time  =          7 seconds =       0.12 minutes
Total time:
	user time   =     171.68 seconds =       2.86 minutes
	system time =      19.39 seconds =       0.32 minutes
	total time  =         53 seconds =       0.88 minutes

*** tstart() called on ddmfs1
*** at Mon Jan 22 03:51:50 2024


  //>>>>>>>>>>>>>>>>>>>>>>>>>>>>>>>>>>>//
  //               DFMP2               //
  //<<<<<<<<<<<<<<<<<<<<<<<<<<<<<<<<<<<//

   => Loading Basis Set <=

    Name: (AUG-CC-PVTZ AUX)
    Role: RIFIT
    Keyword: DF_BASIS_MP2
    atoms 1   entry LI         line    90 file /ddmfs1b/softs/psi4conda/share/psi4/basis/def2-qzvpp-ri.gbs 
    atoms 2-3 entry BR         line  1248 file /ddmfs1b/softs/psi4conda/share/psi4/basis/aug-cc-pvtz-ri.gbs 

	 --------------------------------------------------------
	                          DF-MP2                         
	      2nd-Order Density-Fitted Moller-Plesset Theory     
	              RMP2 Wavefunction,  20 Threads             
	                                                         
	        Rob Parrish, Justin Turney, Andy Simmonett,      
	           Ed Hohenstein, and C. David Sherrill          
	 --------------------------------------------------------

   => Auxiliary Basis Set <=

  Basis Set: (AUG-CC-PVTZ AUX)
    Blend: AUG-CC-PVTZ-RI + DEF2-QZVPP-RI
    Number of shells: 113
    Number of basis functions: 483
    Number of Cartesian functions: 652
    Spherical Harmonics?: true
    Max angular momentum: 5

	 --------------------------------------------------------
	                 NBF =   164, NAUX =   483
	 --------------------------------------------------------
	   CLASS    FOCC     OCC    AOCC    AVIR     VIR    FVIR
	   PAIRS       0      36      36     128     128       0
	 --------------------------------------------------------

	-----------------------------------------------------------
	 ==================> DF-MP2 Energies <==================== 
	-----------------------------------------------------------
	 Reference Energy          =   -5144.9001718820491078 [Eh]
	 Singles Energy            =      -0.0000000000000000 [Eh]
	 Same-Spin Energy          =      -0.1841760358580206 [Eh]
	 Opposite-Spin Energy      =      -0.4202827739196763 [Eh]
	 Correlation Energy        =      -0.6044588097776969 [Eh]
	 Total Energy              =   -5145.5046306918266055 [Eh]
	-----------------------------------------------------------
	 ================> DF-SCS-MP2 Energies <================== 
	-----------------------------------------------------------
	 SCS Same-Spin Scale       =       0.3333333333333333 [-]
	 SCS Opposite-Spin Scale   =       1.2000000000000000 [-]
	 SCS Same-Spin Energy      =      -0.0613920119526735 [Eh]
	 SCS Opposite-Spin Energy  =      -0.5043393287036115 [Eh]
	 SCS Correlation Energy    =      -0.5657313406562851 [Eh]
	 SCS Total Energy          =   -5145.4659032227054922 [Eh]
	-----------------------------------------------------------


*** tstop() called on ddmfs1 at Mon Jan 22 03:52:07 2024
Module time:
	user time   =      27.37 seconds =       0.46 minutes
	system time =       1.35 seconds =       0.02 minutes
	total time  =         17 seconds =       0.28 minutes
Total time:
	user time   =     199.06 seconds =       3.32 minutes
	system time =      20.74 seconds =       0.35 minutes
	total time  =         70 seconds =       1.17 minutes

    Psi4 stopped on: Monday, 22 January 2024 03:52AM
    Psi4 wall time for execution: 0:00:23.26


    -----------------------------------------------------------------------
          Psi4: An Open-Source Ab Initio Electronic Structure Package
                               Psi4 1.8.2 release

                         Git: Rev {} zzzzzzz 


    D. G. A. Smith, L. A. Burns, A. C. Simmonett, R. M. Parrish,
    M. C. Schieber, R. Galvelis, P. Kraus, H. Kruse, R. Di Remigio,
    A. Alenaizan, A. M. James, S. Lehtola, J. P. Misiewicz, M. Scheurer,
    R. A. Shaw, J. B. Schriber, Y. Xie, Z. L. Glick, D. A. Sirianni,
    J. S. O'Brien, J. M. Waldrop, A. Kumar, E. G. Hohenstein,
    B. P. Pritchard, B. R. Brooks, H. F. Schaefer III, A. Yu. Sokolov,
    K. Patkowski, A. E. DePrince III, U. Bozkaya, R. A. King,
    F. A. Evangelista, J. M. Turney, T. D. Crawford, C. D. Sherrill,
    J. Chem. Phys. 152(18) 184108 (2020). https://doi.org/10.1063/5.0006002

                            Additional Code Authors
    E. T. Seidl, C. L. Janssen, E. F. Valeev, M. L. Leininger,
    J. F. Gonthier, R. M. Richard, H. R. McAlexander, M. Saitow, X. Wang,
    P. Verma, M. H. Lechner, A. Jiang, S. Behnle, A. G. Heide,
    M. F. Herbst, and D. L. Poole

             Previous Authors, Complete List of Code Contributors,
                       and Citations for Specific Modules
    https://github.com/psi4/psi4/blob/master/codemeta.json
    https://github.com/psi4/psi4/graphs/contributors
    http://psicode.org/psi4manual/master/introduction.html#citing-psifour

    -----------------------------------------------------------------------


    Psi4 started on: Monday, 22 January 2024 03:50AM

    Process ID: 31264
    Host:       ddmfs1
    PSIDATADIR: /ddmfs1b/softs/psi4conda/share/psi4
    Memory:     55.9 GiB
    Threads:    20
    
  ==> Input QCSchema <==

--------------------------------------------------------------------------
{'driver': 'energy',
 'extras': {'psiapi': True, 'wfn_qcvars_only': True},
 'id': None,
 'keywords': {'SCF_TYPE': 'DF', 'function_kwargs': {}},
 'model': {'basis': 'aug-cc-pvtz', 'method': 'mp2'},
 'molecule': {'atom_labels': ['', '', ''],
              'atomic_numbers': [3, 35, 35],
              'extras': {},
              'fix_com': True,
              'fix_orientation': True,
              'fix_symmetry': 'c1',
              'fragment_charges': [1.0, 0.0, -1.0],
              'fragment_multiplicities': [1, 1, 1],
              'fragments': [[0], [1], [2]],
              'geometry': [0.0, 0.0, 0.0, 0.0, 4.102092751219572, 0.0, 4.102092751219572, 0.0, 0.0],
              'mass_numbers': [7, 79, 79],
              'masses': [7.0160034366, 78.9183376, 78.9183376],
              'molecular_charge': 0.0,
              'molecular_multiplicity': 1,
              'name': 'dimer',
              'provenance': {'creator': 'QCElemental',
                             'routine': 'qcelemental.molparse.from_string',
                             'version': '0.26.0'},
              'real': [True, False, True],
              'schema_name': 'qcschema_molecule',
              'schema_version': 2,
              'symbols': ['Li', 'Br', 'Br'],
              'validated': True},
 'protocols': {'stdout': True},
 'provenance': {'creator': 'QCElemental', 'routine': 'qcelemental.models.results', 'version': '0.26.0'},
 'schema_name': 'qcschema_input',
 'schema_version': 1}
--------------------------------------------------------------------------

Scratch directory: /ddmfs1a/scratch/
   => Libint2 <=

    Primary   basis highest AM E, G, H:  5, 4, 3
    Auxiliary basis highest AM E, G, H:  6, 5, 4
    Onebody   basis highest AM E, G, H:  6, 5, 4
    Solid Harmonics ordering:            gaussian

*** tstart() called on ddmfs1
*** at Mon Jan 22 03:52:07 2024

   => Loading Basis Set <=

    Name: AUG-CC-PVTZ
    Role: ORBITAL
    Keyword: BASIS
    atoms 1   entry LI         line    85 file /ddmfs1b/softs/psi4conda/share/psi4/basis/aug-cc-pvtz.gbs 
    atoms 2-3 entry BR         line  4208 file /ddmfs1b/softs/psi4conda/share/psi4/basis/aug-cc-pvtz.gbs 


         ---------------------------------------------------------
                                   SCF
               by Justin Turney, Rob Parrish, Andy Simmonett
                          and Daniel G. A. Smith
                              RHF Reference
                       20 Threads,  57220 MiB Core
         ---------------------------------------------------------

  ==> Geometry <==

    Molecular point group: c1
    Full point group: C1h

    Geometry (in Bohr), charge = 0, multiplicity = 1:

       Center              X                  Y                   Z               Mass       
    ------------   -----------------  -----------------  -----------------  -----------------
         LI           0.000000000000     0.000000000000     0.000000000000     7.016003436600
      Gh(BR)          0.000000000000     4.102092751220     0.000000000000    78.918337600000
         BR           4.102092751220     0.000000000000     0.000000000000    78.918337600000

  Running in c1 symmetry.

  Rotational constants: A =      0.04533  B =      0.04533  C =      0.02267 [cm^-1]
  Rotational constants: A =   1359.02064  B =   1359.02064  C =    679.51032 [MHz]
  Nuclear repulsion =   25.596690852195625

  Charge       = 0
  Multiplicity = 1
  Electrons    = 38
  Nalpha       = 19
  Nbeta        = 19

  ==> Algorithm <==

  SCF Algorithm Type is DF.
  DIIS enabled.
  MOM disabled.
  Fractional occupation disabled.
  Guess Type is SAD.
  Energy threshold   = 1.00e-08
  Density threshold  = 1.00e-08
  Integral threshold = 1.00e-12

  ==> Primary Basis <==

  Basis Set: AUG-CC-PVTZ
    Blend: AUG-CC-PVTZ
    Number of shells: 52
    Number of basis functions: 164
    Number of Cartesian functions: 193
    Spherical Harmonics?: true
    Max angular momentum: 3

   => Loading Basis Set <=

    Name: (AUG-CC-PVTZ AUX)
    Role: JKFIT
    Keyword: DF_BASIS_SCF
    atoms 1   entry LI         line    54 file /ddmfs1b/softs/psi4conda/share/psi4/basis/def2-universal-jkfit.gbs 
    atoms 2-3 entry BR         line  1492 file /ddmfs1b/softs/psi4conda/share/psi4/basis/aug-cc-pvtz-jkfit.gbs 

  ==> Integral Setup <==

  DFHelper Memory: AOs need 0.121 GiB; user supplied 41.910 GiB. 
  Using in-core AOs.

  ==> MemDFJK: Density-Fitted J/K Matrices <==

    J tasked:                   Yes
    K tasked:                   Yes
    wK tasked:                   No
    OpenMP threads:              20
    Memory [MiB]:             42915
    Algorithm:                 Core
    Schwarz Cutoff:           1E-12
    Mask sparsity (%):       0.0297
    Fitting Condition:        1E-10

   => Auxiliary Basis Set <=

  Basis Set: (AUG-CC-PVTZ AUX)
    Blend: AUG-CC-PVTZ-JKFIT + DEF2-UNIVERSAL-JKFIT
    Number of shells: 133
    Number of basis functions: 547
    Number of Cartesian functions: 718
    Spherical Harmonics?: true
    Max angular momentum: 4

  Minimum eigenvalue in the overlap matrix is 2.2798693575E-04.
  Reciprocal condition number of the overlap matrix is 3.2822859949E-05.
    Using symmetric orthogonalization.

  ==> Pre-Iterations <==

  SCF Guess: Superposition of Atomic Densities via on-the-fly atomic UHF (no occupation information).

   -------------------------
    Irrep   Nso     Nmo    
   -------------------------
     A        164     164 
   -------------------------
    Total     164     164
   -------------------------

  ==> Iterations <==

                           Total Energy        Delta E     RMS |[F,P]|

   @DF-RHF iter SAD: -2577.84698588874608   -2.57785e+03   0.00000e+00 
   @DF-RHF iter   1: -2579.74228083756452   -1.89529e+00   6.42555e-03 DIIS/ADIIS
   @DF-RHF iter   2: -2579.94173183112525   -1.99451e-01   3.42698e-03 DIIS/ADIIS
   @DF-RHF iter   3: -2579.99943973207473   -5.77079e-02   6.25614e-05 DIIS
   @DF-RHF iter   4: -2579.99948832124846   -4.85892e-05   1.55716e-05 DIIS
   @DF-RHF iter   5: -2579.99949251718635   -4.19594e-06   4.34048e-06 DIIS
   @DF-RHF iter   6: -2579.99949297031480   -4.53128e-07   9.50321e-07 DIIS
   @DF-RHF iter   7: -2579.99949302337700   -5.30622e-08   1.53374e-07 DIIS
   @DF-RHF iter   8: -2579.99949302491632   -1.53932e-09   3.13850e-08 DIIS
   @DF-RHF iter   9: -2579.99949302498271   -6.63931e-11   5.67169e-09 DIIS
  Energy and wave function converged.


  ==> Post-Iterations <==

    Orbital Energies [Eh]
    ---------------------

    Doubly Occupied:                                                      

       1A   -489.932762     2A    -65.073344     3A    -58.427788  
       4A    -58.427787     5A    -58.427779     6A     -9.746099  
       7A     -7.353984     8A     -7.353301     9A     -7.353301  
      10A     -3.095639    11A     -3.095294    12A     -3.095290  
      13A     -3.094695    14A     -3.094692    15A     -2.490698  
      16A     -0.910073    17A     -0.382247    18A     -0.353310  
      19A     -0.353304  

    Virtual:                                                              

      20A     -0.016561    21A      0.014734    22A      0.015579  
      23A      0.018181    24A      0.025743    25A      0.045485  
      26A      0.048984    27A      0.066495    28A      0.078944  
      29A      0.088435    30A      0.098767    31A      0.108992  
      32A      0.111828    33A      0.119032    34A      0.123825  
      35A      0.135046    36A      0.140681    37A      0.144861  
      38A      0.145837    39A      0.153609    40A      0.158796  
      41A      0.171587    42A      0.211277    43A      0.217834  
      44A      0.273237    45A      0.282522    46A      0.288876  
      47A      0.297332    48A      0.304932    49A      0.314867  
      50A      0.325422    51A      0.327275    52A      0.337871  
      53A      0.341838    54A      0.352443    55A      0.361439  
      56A      0.367747    57A      0.374121    58A      0.384912  
      59A      0.391170    60A      0.395784    61A      0.415137  
      62A      0.428189    63A      0.432378    64A      0.434062  
      65A      0.439342    66A      0.460965    67A      0.465254  
      68A      0.477068    69A      0.520465    70A      0.576330  
      71A      0.584682    72A      0.615339    73A      0.697542  
      74A      0.700318    75A      0.703866    76A      0.725058  
      77A      0.728384    78A      0.748284    79A      0.767534  
      80A      0.768530    81A      0.773771    82A      0.788017  
      83A      0.798515    84A      0.805164    85A      0.819154  
      86A      0.820774    87A      0.829481    88A      0.907865  
      89A      0.938882    90A      0.938887    91A      0.999355  
      92A      1.026094    93A      1.045454    94A      1.072943  
      95A      1.082758    96A      1.084555    97A      1.088040  
      98A      1.120934    99A      1.130666   100A      1.149379  
     101A      1.168339   102A      1.184114   103A      1.208205  
     104A      1.210273   105A      1.214590   106A      1.310176  
     107A      1.338698   108A      1.340983   109A      1.356870  
     110A      1.365932   111A      1.381935   112A      1.391272  
     113A      1.450236   114A      1.457812   115A      1.553800  
     116A      1.635260   117A      1.706099   118A      2.333158  
     119A      2.361388   120A      2.406246   121A      2.419345  
     122A      2.422544   123A      2.430484   124A      2.447213  
     125A      2.494017   126A      2.527309   127A      2.539281  
     128A      2.549205   129A      2.588697   130A      2.616906  
     131A      2.657111   132A      2.731031   133A      2.954407  
     134A      2.990553   135A      3.072237   136A      3.135250  
     137A      3.142613   138A      3.216103   139A      3.228851  
     140A      3.272419   141A      3.277969   142A      3.313249  
     143A      3.326465   144A      3.373344   145A      3.394805  
     146A      3.410502   147A      3.470906   148A      3.500265  
     149A      3.874394   150A      4.905015   151A     10.306172  
     152A     13.569429   153A     13.618112   154A     13.769254  
     155A     26.147013   156A     26.165586   157A     26.244081  
     158A     26.285529   159A     26.301000   160A     46.030290  
     161A    138.612072   162A    138.691880   163A    138.928874  
     164A    710.293417  

    Final Occupation by Irrep:
              A 
    DOCC [    19 ]
    NA   [    19 ]
    NB   [    19 ]

  @DF-RHF Final Energy: -2579.99949302498271

   => Energetics <=

    Nuclear Repulsion Energy =             25.5966908521956249
    One-Electron Energy =               -3647.0695991950060488
    Two-Electron Energy =                1041.4734153178278575
    Total Energy =                      -2579.9994930249827121

Computation Completed


Properties will be evaluated at   0.000000,   0.000000,   0.000000 [a0]

Properties computed using the SCF density matrix


 Multipole Moments:

 ------------------------------------------------------------------------------------
     Multipole            Electronic (a.u.)      Nuclear  (a.u.)        Total (a.u.)
 ------------------------------------------------------------------------------------

 L = 1.  Multiply by 2.5417464519 to convert [e a0] to [Debye]
 Dipole X            :       -146.5034657          143.5732463           -2.9302194
 Dipole Y            :         -0.0001098            0.0000000           -0.0001098
 Dipole Z            :         -0.0000000            0.0000000           -0.0000000
 Magnitude           :                                                    2.9302194

 ------------------------------------------------------------------------------------

*** tstop() called on ddmfs1 at Mon Jan 22 03:52:13 2024
Module time:
	user time   =      42.11 seconds =       0.70 minutes
	system time =       6.20 seconds =       0.10 minutes
	total time  =          6 seconds =       0.10 minutes
Total time:
	user time   =     242.33 seconds =       4.04 minutes
	system time =      26.97 seconds =       0.45 minutes
	total time  =         76 seconds =       1.27 minutes

*** tstart() called on ddmfs1
*** at Mon Jan 22 03:52:13 2024


  //>>>>>>>>>>>>>>>>>>>>>>>>>>>>>>>>>>>//
  //               DFMP2               //
  //<<<<<<<<<<<<<<<<<<<<<<<<<<<<<<<<<<<//

   => Loading Basis Set <=

    Name: (AUG-CC-PVTZ AUX)
    Role: RIFIT
    Keyword: DF_BASIS_MP2
    atoms 1   entry LI         line    90 file /ddmfs1b/softs/psi4conda/share/psi4/basis/def2-qzvpp-ri.gbs 
    atoms 2-3 entry BR         line  1248 file /ddmfs1b/softs/psi4conda/share/psi4/basis/aug-cc-pvtz-ri.gbs 

	 --------------------------------------------------------
	                          DF-MP2                         
	      2nd-Order Density-Fitted Moller-Plesset Theory     
	              RMP2 Wavefunction,  20 Threads             
	                                                         
	        Rob Parrish, Justin Turney, Andy Simmonett,      
	           Ed Hohenstein, and C. David Sherrill          
	 --------------------------------------------------------

   => Auxiliary Basis Set <=

  Basis Set: (AUG-CC-PVTZ AUX)
    Blend: AUG-CC-PVTZ-RI + DEF2-QZVPP-RI
    Number of shells: 113
    Number of basis functions: 483
    Number of Cartesian functions: 652
    Spherical Harmonics?: true
    Max angular momentum: 5

	 --------------------------------------------------------
	                 NBF =   164, NAUX =   483
	 --------------------------------------------------------
	   CLASS    FOCC     OCC    AOCC    AVIR     VIR    FVIR
	   PAIRS       0      19      19     145     145       0
	 --------------------------------------------------------

	-----------------------------------------------------------
	 ==================> DF-MP2 Energies <==================== 
	-----------------------------------------------------------
	 Reference Energy          =   -2579.9994930249827121 [Eh]
	 Singles Energy            =      -0.0000000000000000 [Eh]
	 Same-Spin Energy          =      -0.0892291810996171 [Eh]
	 Opposite-Spin Energy      =      -0.2200021529953462 [Eh]
	 Correlation Energy        =      -0.3092313340949633 [Eh]
	 Total Energy              =   -2580.3087243590775870 [Eh]
	-----------------------------------------------------------
	 ================> DF-SCS-MP2 Energies <================== 
	-----------------------------------------------------------
	 SCS Same-Spin Scale       =       0.3333333333333333 [-]
	 SCS Opposite-Spin Scale   =       1.2000000000000000 [-]
	 SCS Same-Spin Energy      =      -0.0297430603665390 [Eh]
	 SCS Opposite-Spin Energy  =      -0.2640025835944154 [Eh]
	 SCS Correlation Energy    =      -0.2937456439609545 [Eh]
	 SCS Total Energy          =   -2580.2932386689435589 [Eh]
	-----------------------------------------------------------


*** tstop() called on ddmfs1 at Mon Jan 22 03:52:30 2024
Module time:
	user time   =      26.72 seconds =       0.45 minutes
	system time =       1.42 seconds =       0.02 minutes
	total time  =         17 seconds =       0.28 minutes
Total time:
	user time   =     269.06 seconds =       4.48 minutes
	system time =      28.39 seconds =       0.47 minutes
	total time  =         93 seconds =       1.55 minutes

    Psi4 stopped on: Monday, 22 January 2024 03:52AM
    Psi4 wall time for execution: 0:00:23.14


    -----------------------------------------------------------------------
          Psi4: An Open-Source Ab Initio Electronic Structure Package
                               Psi4 1.8.2 release

                         Git: Rev {} zzzzzzz 


    D. G. A. Smith, L. A. Burns, A. C. Simmonett, R. M. Parrish,
    M. C. Schieber, R. Galvelis, P. Kraus, H. Kruse, R. Di Remigio,
    A. Alenaizan, A. M. James, S. Lehtola, J. P. Misiewicz, M. Scheurer,
    R. A. Shaw, J. B. Schriber, Y. Xie, Z. L. Glick, D. A. Sirianni,
    J. S. O'Brien, J. M. Waldrop, A. Kumar, E. G. Hohenstein,
    B. P. Pritchard, B. R. Brooks, H. F. Schaefer III, A. Yu. Sokolov,
    K. Patkowski, A. E. DePrince III, U. Bozkaya, R. A. King,
    F. A. Evangelista, J. M. Turney, T. D. Crawford, C. D. Sherrill,
    J. Chem. Phys. 152(18) 184108 (2020). https://doi.org/10.1063/5.0006002

                            Additional Code Authors
    E. T. Seidl, C. L. Janssen, E. F. Valeev, M. L. Leininger,
    J. F. Gonthier, R. M. Richard, H. R. McAlexander, M. Saitow, X. Wang,
    P. Verma, M. H. Lechner, A. Jiang, S. Behnle, A. G. Heide,
    M. F. Herbst, and D. L. Poole

             Previous Authors, Complete List of Code Contributors,
                       and Citations for Specific Modules
    https://github.com/psi4/psi4/blob/master/codemeta.json
    https://github.com/psi4/psi4/graphs/contributors
    http://psicode.org/psi4manual/master/introduction.html#citing-psifour

    -----------------------------------------------------------------------


    Psi4 started on: Monday, 22 January 2024 03:50AM

    Process ID: 31264
    Host:       ddmfs1
    PSIDATADIR: /ddmfs1b/softs/psi4conda/share/psi4
    Memory:     55.9 GiB
    Threads:    20
    
  ==> Input QCSchema <==

--------------------------------------------------------------------------
{'driver': 'energy',
 'extras': {'psiapi': True, 'wfn_qcvars_only': True},
 'id': None,
 'keywords': {'SCF_TYPE': 'DF', 'function_kwargs': {}},
 'model': {'basis': 'aug-cc-pvtz', 'method': 'mp2'},
 'molecule': {'atom_labels': ['', '', ''],
              'atomic_numbers': [3, 35, 35],
              'extras': {},
              'fix_com': True,
              'fix_orientation': True,
              'fix_symmetry': 'c1',
              'fragment_charges': [1.0, -1.0, 0.0],
              'fragment_multiplicities': [1, 1, 1],
              'fragments': [[0], [1], [2]],
              'geometry': [0.0, 0.0, 0.0, 0.0, 4.102092751219572, 0.0, 4.102092751219572, 0.0, 0.0],
              'mass_numbers': [7, 79, 79],
              'masses': [7.0160034366, 78.9183376, 78.9183376],
              'molecular_charge': 0.0,
              'molecular_multiplicity': 1,
              'name': 'dimer',
              'provenance': {'creator': 'QCElemental',
                             'routine': 'qcelemental.molparse.from_string',
                             'version': '0.26.0'},
              'real': [True, True, False],
              'schema_name': 'qcschema_molecule',
              'schema_version': 2,
              'symbols': ['Li', 'Br', 'Br'],
              'validated': True},
 'protocols': {'stdout': True},
 'provenance': {'creator': 'QCElemental', 'routine': 'qcelemental.models.results', 'version': '0.26.0'},
 'schema_name': 'qcschema_input',
 'schema_version': 1}
--------------------------------------------------------------------------

Scratch directory: /ddmfs1a/scratch/
   => Libint2 <=

    Primary   basis highest AM E, G, H:  5, 4, 3
    Auxiliary basis highest AM E, G, H:  6, 5, 4
    Onebody   basis highest AM E, G, H:  6, 5, 4
    Solid Harmonics ordering:            gaussian

*** tstart() called on ddmfs1
*** at Mon Jan 22 03:52:30 2024

   => Loading Basis Set <=

    Name: AUG-CC-PVTZ
    Role: ORBITAL
    Keyword: BASIS
    atoms 1   entry LI         line    85 file /ddmfs1b/softs/psi4conda/share/psi4/basis/aug-cc-pvtz.gbs 
    atoms 2-3 entry BR         line  4208 file /ddmfs1b/softs/psi4conda/share/psi4/basis/aug-cc-pvtz.gbs 


         ---------------------------------------------------------
                                   SCF
               by Justin Turney, Rob Parrish, Andy Simmonett
                          and Daniel G. A. Smith
                              RHF Reference
                       20 Threads,  57220 MiB Core
         ---------------------------------------------------------

  ==> Geometry <==

    Molecular point group: c1
    Full point group: C1h

    Geometry (in Bohr), charge = 0, multiplicity = 1:

       Center              X                  Y                   Z               Mass       
    ------------   -----------------  -----------------  -----------------  -----------------
         LI           0.000000000000     0.000000000000     0.000000000000     7.016003436600
         BR           0.000000000000     4.102092751220     0.000000000000    78.918337600000
      Gh(BR)          4.102092751220     0.000000000000     0.000000000000    78.918337600000

  Running in c1 symmetry.

  Rotational constants: A =      0.04533  B =      0.04533  C =      0.02267 [cm^-1]
  Rotational constants: A =   1359.02064  B =   1359.02064  C =    679.51032 [MHz]
  Nuclear repulsion =   25.596690852195625

  Charge       = 0
  Multiplicity = 1
  Electrons    = 38
  Nalpha       = 19
  Nbeta        = 19

  ==> Algorithm <==

  SCF Algorithm Type is DF.
  DIIS enabled.
  MOM disabled.
  Fractional occupation disabled.
  Guess Type is SAD.
  Energy threshold   = 1.00e-08
  Density threshold  = 1.00e-08
  Integral threshold = 1.00e-12

  ==> Primary Basis <==

  Basis Set: AUG-CC-PVTZ
    Blend: AUG-CC-PVTZ
    Number of shells: 52
    Number of basis functions: 164
    Number of Cartesian functions: 193
    Spherical Harmonics?: true
    Max angular momentum: 3

   => Loading Basis Set <=

    Name: (AUG-CC-PVTZ AUX)
    Role: JKFIT
    Keyword: DF_BASIS_SCF
    atoms 1   entry LI         line    54 file /ddmfs1b/softs/psi4conda/share/psi4/basis/def2-universal-jkfit.gbs 
    atoms 2-3 entry BR         line  1492 file /ddmfs1b/softs/psi4conda/share/psi4/basis/aug-cc-pvtz-jkfit.gbs 

  ==> Integral Setup <==

  DFHelper Memory: AOs need 0.121 GiB; user supplied 41.910 GiB. 
  Using in-core AOs.

  ==> MemDFJK: Density-Fitted J/K Matrices <==

    J tasked:                   Yes
    K tasked:                   Yes
    wK tasked:                   No
    OpenMP threads:              20
    Memory [MiB]:             42915
    Algorithm:                 Core
    Schwarz Cutoff:           1E-12
    Mask sparsity (%):       0.0297
    Fitting Condition:        1E-10

   => Auxiliary Basis Set <=

  Basis Set: (AUG-CC-PVTZ AUX)
    Blend: AUG-CC-PVTZ-JKFIT + DEF2-UNIVERSAL-JKFIT
    Number of shells: 133
    Number of basis functions: 547
    Number of Cartesian functions: 718
    Spherical Harmonics?: true
    Max angular momentum: 4

  Minimum eigenvalue in the overlap matrix is 2.2798693575E-04.
  Reciprocal condition number of the overlap matrix is 3.2822859949E-05.
    Using symmetric orthogonalization.

  ==> Pre-Iterations <==

  SCF Guess: Superposition of Atomic Densities via on-the-fly atomic UHF (no occupation information).

   -------------------------
    Irrep   Nso     Nmo    
   -------------------------
     A        164     164 
   -------------------------
    Total     164     164
   -------------------------

  ==> Iterations <==

                           Total Energy        Delta E     RMS |[F,P]|

   @DF-RHF iter SAD: -2577.84698607511109   -2.57785e+03   0.00000e+00 
   @DF-RHF iter   1: -2579.74228082724858   -1.89529e+00   6.42555e-03 DIIS/ADIIS
   @DF-RHF iter   2: -2579.94173183021167   -1.99451e-01   3.42698e-03 DIIS/ADIIS
   @DF-RHF iter   3: -2579.99943973180825   -5.77079e-02   6.25614e-05 DIIS
   @DF-RHF iter   4: -2579.99948832092377   -4.85891e-05   1.55716e-05 DIIS
   @DF-RHF iter   5: -2579.99949251684120   -4.19592e-06   4.34047e-06 DIIS
   @DF-RHF iter   6: -2579.99949296996647   -4.53125e-07   9.50311e-07 DIIS
   @DF-RHF iter   7: -2579.99949302302730   -5.30608e-08   1.53371e-07 DIIS
   @DF-RHF iter   8: -2579.99949302456480   -1.53750e-09   3.13846e-08 DIIS
   @DF-RHF iter   9: -2579.99949302463028   -6.54836e-11   5.67170e-09 DIIS
  Energy and wave function converged.


  ==> Post-Iterations <==

    Orbital Energies [Eh]
    ---------------------

    Doubly Occupied:                                                      

       1A   -489.932762     2A    -65.073344     3A    -58.427788  
       4A    -58.427787     5A    -58.427779     6A     -9.746099  
[...]

	-----------------------------------------------------------
	 ==================> DF-MP2 Energies <==================== 
	-----------------------------------------------------------
	 Reference Energy          =   -2572.5336963023519274 [Eh]
	 Singles Energy            =      -0.0000000000000000 [Eh]
	 Same-Spin Energy          =      -0.0889065879570840 [Eh]
	 Opposite-Spin Energy      =      -0.2062873405446712 [Eh]
	 Correlation Energy        =      -0.2951939285017551 [Eh]
	 Total Energy              =   -2572.8288902308536308 [Eh]
	-----------------------------------------------------------
	 ================> DF-SCS-MP2 Energies <================== 
	-----------------------------------------------------------
	 SCS Same-Spin Scale       =       0.3333333333333333 [-]
	 SCS Opposite-Spin Scale   =       1.2000000000000000 [-]
	 SCS Same-Spin Energy      =      -0.0296355293190280 [Eh]
	 SCS Opposite-Spin Energy  =      -0.2475448086536054 [Eh]
	 SCS Correlation Energy    =      -0.2771803379726334 [Eh]
	 SCS Total Energy          =   -2572.8108766403247500 [Eh]
	-----------------------------------------------------------


*** tstop() called on ddmfs1 at Mon Jan 22 03:53:16 2024
Module time:
	user time   =      26.64 seconds =       0.44 minutes
	system time =       1.26 seconds =       0.02 minutes
	total time  =         17 seconds =       0.28 minutes
Total time:
	user time   =     404.39 seconds =       6.74 minutes
	system time =      42.40 seconds =       0.71 minutes
	total time  =        139 seconds =       2.32 minutes

    Psi4 stopped on: Monday, 22 January 2024 03:53AM
    Psi4 wall time for execution: 0:00:22.80


    -----------------------------------------------------------------------
          Psi4: An Open-Source Ab Initio Electronic Structure Package
                               Psi4 1.8.2 release

                         Git: Rev {} zzzzzzz 


    D. G. A. Smith, L. A. Burns, A. C. Simmonett, R. M. Parrish,
    M. C. Schieber, R. Galvelis, P. Kraus, H. Kruse, R. Di Remigio,
    A. Alenaizan, A. M. James, S. Lehtola, J. P. Misiewicz, M. Scheurer,
    R. A. Shaw, J. B. Schriber, Y. Xie, Z. L. Glick, D. A. Sirianni,
    J. S. O'Brien, J. M. Waldrop, A. Kumar, E. G. Hohenstein,
    B. P. Pritchard, B. R. Brooks, H. F. Schaefer III, A. Yu. Sokolov,
    K. Patkowski, A. E. DePrince III, U. Bozkaya, R. A. King,
    F. A. Evangelista, J. M. Turney, T. D. Crawford, C. D. Sherrill,
    J. Chem. Phys. 152(18) 184108 (2020). https://doi.org/10.1063/5.0006002

                            Additional Code Authors
    E. T. Seidl, C. L. Janssen, E. F. Valeev, M. L. Leininger,
    J. F. Gonthier, R. M. Richard, H. R. McAlexander, M. Saitow, X. Wang,
    P. Verma, M. H. Lechner, A. Jiang, S. Behnle, A. G. Heide,
    M. F. Herbst, and D. L. Poole

             Previous Authors, Complete List of Code Contributors,
                       and Citations for Specific Modules
    https://github.com/psi4/psi4/blob/master/codemeta.json
    https://github.com/psi4/psi4/graphs/contributors
    http://psicode.org/psi4manual/master/introduction.html#citing-psifour

    -----------------------------------------------------------------------


    Psi4 started on: Monday, 22 January 2024 03:50AM

    Process ID: 31264
    Host:       ddmfs1
    PSIDATADIR: /ddmfs1b/softs/psi4conda/share/psi4
    Memory:     55.9 GiB
    Threads:    20
    
  ==> Input QCSchema <==

--------------------------------------------------------------------------
{'driver': 'energy',
 'extras': {'psiapi': True, 'wfn_qcvars_only': True},
 'id': None,
 'keywords': {'SCF_TYPE': 'DF', 'function_kwargs': {}},
 'model': {'basis': 'aug-cc-pvtz', 'method': 'mp2'},
 'molecule': {'atom_labels': ['', '', ''],
              'atomic_numbers': [3, 35, 35],
              'extras': {},
              'fix_com': True,
              'fix_orientation': True,
              'fix_symmetry': 'c1',
              'fragment_charges': [1.0, -1.0, -1.0],
              'fragment_multiplicities': [1, 1, 1],
              'fragments': [[0], [1], [2]],
              'geometry': [0.0, 0.0, 0.0, 0.0, 4.102092751219572, 0.0, 4.102092751219572, 0.0, 0.0],
              'mass_numbers': [7, 79, 79],
              'masses': [7.0160034366, 78.9183376, 78.9183376],
              'molecular_charge': -1.0,
              'molecular_multiplicity': 1,
              'name': 'dimer',
              'provenance': {'creator': 'QCElemental',
                             'routine': 'qcelemental.molparse.from_string',
                             'version': '0.26.0'},
              'real': [True, True, True],
              'schema_name': 'qcschema_molecule',
              'schema_version': 2,
              'symbols': ['Li', 'Br', 'Br'],
              'validated': True},
 'protocols': {'stdout': True},
 'provenance': {'creator': 'QCElemental', 'routine': 'qcelemental.models.results', 'version': '0.26.0'},
 'schema_name': 'qcschema_input',
 'schema_version': 1}
--------------------------------------------------------------------------

Scratch directory: /ddmfs1a/scratch/
   => Libint2 <=

    Primary   basis highest AM E, G, H:  5, 4, 3
    Auxiliary basis highest AM E, G, H:  6, 5, 4
    Onebody   basis highest AM E, G, H:  6, 5, 4
    Solid Harmonics ordering:            gaussian

*** tstart() called on ddmfs1
*** at Mon Jan 22 03:53:16 2024

   => Loading Basis Set <=

    Name: AUG-CC-PVTZ
    Role: ORBITAL
    Keyword: BASIS
    atoms 1   entry LI         line    85 file /ddmfs1b/softs/psi4conda/share/psi4/basis/aug-cc-pvtz.gbs 
    atoms 2-3 entry BR         line  4208 file /ddmfs1b/softs/psi4conda/share/psi4/basis/aug-cc-pvtz.gbs 


         ---------------------------------------------------------
                                   SCF
               by Justin Turney, Rob Parrish, Andy Simmonett
                          and Daniel G. A. Smith
                              RHF Reference
                       20 Threads,  57220 MiB Core
         ---------------------------------------------------------

  ==> Geometry <==

    Molecular point group: c1
    Full point group: D1

    Geometry (in Bohr), charge = -1, multiplicity = 1:

       Center              X                  Y                   Z               Mass       
    ------------   -----------------  -----------------  -----------------  -----------------
         LI           0.000000000000     0.000000000000     0.000000000000     7.016003436600
         BR           0.000000000000     4.102092751220     0.000000000000    78.918337600000
         BR           4.102092751220     0.000000000000     0.000000000000    78.918337600000

  Running in c1 symmetry.

  Rotational constants: A =      0.04533  B =      0.04533  C =      0.02267 [cm^-1]
  Rotational constants: A =   1359.02064  B =   1359.02064  C =    679.51032 [MHz]
  Nuclear repulsion =  262.355307942161858

  Charge       = -1
  Multiplicity = 1
  Electrons    = 74
  Nalpha       = 37
  Nbeta        = 37

  ==> Algorithm <==

  SCF Algorithm Type is DF.
  DIIS enabled.
  MOM disabled.
  Fractional occupation disabled.
  Guess Type is SAD.
  Energy threshold   = 1.00e-08
  Density threshold  = 1.00e-08
  Integral threshold = 1.00e-12

  ==> Primary Basis <==

  Basis Set: AUG-CC-PVTZ
    Blend: AUG-CC-PVTZ
    Number of shells: 52
    Number of basis functions: 164
    Number of Cartesian functions: 193
    Spherical Harmonics?: true
    Max angular momentum: 3

   => Loading Basis Set <=

    Name: (AUG-CC-PVTZ AUX)
    Role: JKFIT
    Keyword: DF_BASIS_SCF
    atoms 1   entry LI         line    54 file /ddmfs1b/softs/psi4conda/share/psi4/basis/def2-universal-jkfit.gbs 
    atoms 2-3 entry BR         line  1492 file /ddmfs1b/softs/psi4conda/share/psi4/basis/aug-cc-pvtz-jkfit.gbs 

  ==> Integral Setup <==

  DFHelper Memory: AOs need 0.121 GiB; user supplied 41.910 GiB. 
  Using in-core AOs.

  ==> MemDFJK: Density-Fitted J/K Matrices <==

    J tasked:                   Yes
    K tasked:                   Yes
    wK tasked:                   No
    OpenMP threads:              20
    Memory [MiB]:             42915
    Algorithm:                 Core
    Schwarz Cutoff:           1E-12
    Mask sparsity (%):       0.0297
    Fitting Condition:        1E-10

   => Auxiliary Basis Set <=

  Basis Set: (AUG-CC-PVTZ AUX)
    Blend: AUG-CC-PVTZ-JKFIT + DEF2-UNIVERSAL-JKFIT
    Number of shells: 133
    Number of basis functions: 547
    Number of Cartesian functions: 718
    Spherical Harmonics?: true
    Max angular momentum: 4

  Minimum eigenvalue in the overlap matrix is 2.2798693575E-04.
  Reciprocal condition number of the overlap matrix is 3.2822859949E-05.
    Using symmetric orthogonalization.

  ==> Pre-Iterations <==

  SCF Guess: Superposition of Atomic Densities via on-the-fly atomic UHF (no occupation information).

   -------------------------
    Irrep   Nso     Nmo    
   -------------------------
     A        164     164 
   -------------------------
    Total     164     164
   -------------------------

  ==> Iterations <==

                           Total Energy        Delta E     RMS |[F,P]|

   @DF-RHF iter SAD: -5148.43603967009130   -5.14844e+03   0.00000e+00 
   @DF-RHF iter   1: -5152.01426002340395   -3.57822e+00   9.14473e-03 DIIS/ADIIS
   @DF-RHF iter   2: -5152.41575991174341   -4.01500e-01   4.96713e-03 DIIS/ADIIS
   @DF-RHF iter   3: -5152.54681776306370   -1.31058e-01   1.56090e-04 DIIS/ADIIS
   @DF-RHF iter   4: -5152.54716645072949   -3.48688e-04   4.34254e-05 DIIS
   @DF-RHF iter   5: -5152.54720601514782   -3.95644e-05   1.02117e-05 DIIS
   @DF-RHF iter   6: -5152.54721048860392   -4.47346e-06   1.99003e-06 DIIS
   @DF-RHF iter   7: -5152.54721073854489   -2.49941e-07   4.24374e-07 DIIS
   @DF-RHF iter   8: -5152.54721074522058   -6.67569e-09   1.46345e-07 DIIS
   @DF-RHF iter   9: -5152.54721074655572   -1.33514e-09   3.44705e-08 DIIS
   @DF-RHF iter  10: -5152.54721074662848   -7.27596e-11   5.60786e-09 DIIS
  Energy and wave function converged.


  ==> Post-Iterations <==

    Orbital Energies [Eh]
    ---------------------

    Doubly Occupied:                                                      

       1A   -489.762058     2A   -489.762058     3A    -64.903173  
       4A    -64.903173     5A    -58.257607     6A    -58.257607  
       7A    -58.257592     8A    -58.257592     9A    -58.257450  
      10A    -58.257450    11A     -9.576488    12A     -9.576485  
      13A     -7.184430    14A     -7.184426    15A     -7.183897  
      16A     -7.183893    17A     -7.183480    18A     -7.183475  
      19A     -2.926231    20A     -2.926229    21A     -2.926118  
      22A     -2.926115    23A     -2.925418    24A     -2.925405  
      25A     -2.924851    26A     -2.924850    27A     -2.924760  
      28A     -2.924727    29A     -2.265853    30A     -0.758908  
      31A     -0.731477    32A     -0.250952    33A     -0.209845  
      34A     -0.206769    35A     -0.200369    36A     -0.174059  
      37A     -0.134396  

    Virtual:                                                              

      38A      0.080338    39A      0.090000    40A      0.092347  
      41A      0.100537    42A      0.137481    43A      0.163479  
      44A      0.167260    45A      0.185728    46A      0.205179  
      47A      0.227232    48A      0.234751    49A      0.238187  
      50A      0.241451    51A      0.243250    52A      0.253629  
      53A      0.254615    54A      0.262221    55A      0.266228  
      56A      0.270691    57A      0.290762    58A      0.312930  
      59A      0.340545    60A      0.374868    61A      0.413510  
      62A      0.420197    63A      0.451684    64A      0.460907  
      65A      0.461561    66A      0.473722    67A      0.477651  
      68A      0.477871    69A      0.479720    70A      0.500217  
      71A      0.507035    72A      0.507472    73A      0.512741  
      74A      0.528804    75A      0.532308    76A      0.546426  
      77A      0.563062    78A      0.566501    79A      0.570908  
      80A      0.574217    81A      0.579026    82A      0.589801  
      83A      0.613657    84A      0.659581    85A      0.683843  
      86A      0.745186    87A      0.753903    88A      0.826969  
      89A      0.843430    90A      0.857647    91A      0.867852  
      92A      0.873303    93A      0.892304    94A      0.912201  
      95A      0.922240    96A      0.932144    97A      0.934832  
      98A      0.938247    99A      0.942192   100A      0.971467  
     101A      0.973461   102A      0.976403   103A      0.977790  
     104A      0.987628   105A      1.004534   106A      1.041141  
     107A      1.067136   108A      1.107256   109A      1.138216  
     110A      1.150522   111A      1.182872   112A      1.209490  
     113A      1.220591   114A      1.225321   115A      1.250420  
     116A      1.254743   117A      1.281820   118A      1.296096  
     119A      1.337802   120A      1.359864   121A      1.395528  
     122A      1.401349   123A      1.452481   124A      1.468880  
     125A      1.499212   126A      1.514540   127A      1.559085  
     128A      1.563083   129A      1.676059   130A      1.717200  
     131A      1.803587   132A      2.490222   133A      2.492672  
     134A      2.499754   135A      2.513748   136A      2.545361  
     137A      2.559462   138A      2.561019   139A      2.563735  
     140A      2.576333   141A      2.577048   142A      2.579081  
     143A      2.592664   144A      2.596745   145A      2.604628  
     146A      2.642127   147A      2.652437   148A      2.662312  
     149A      2.663722   150A      2.682449   151A      2.718930  
     152A      2.725483   153A      2.735555   154A      2.742174  
     155A      2.764324   156A      2.801481   157A      2.822190  
     158A      2.877958   159A      2.879531   160A      3.011034  
     161A      3.029327   162A      3.798796   163A      4.753460  
     164A      5.356645  

    Final Occupation by Irrep:
              A 
    DOCC [    37 ]
    NA   [    37 ]
    NB   [    37 ]

  @DF-RHF Final Energy: -5152.54721074662848

   => Energetics <=

    Nuclear Repulsion Energy =            262.3553079421618577
    One-Electron Energy =               -7719.1656996361780330
    Two-Electron Energy =                2304.2631809473878093
    Total Energy =                      -5152.5472107466284797

Computation Completed


Properties will be evaluated at   0.000000,   0.000000,   0.000000 [a0]

Properties computed using the SCF density matrix


 Multipole Moments:

 ------------------------------------------------------------------------------------
     Multipole            Electronic (a.u.)      Nuclear  (a.u.)        Total (a.u.)
 ------------------------------------------------------------------------------------

 L = 1.  Multiply by 2.5417464519 to convert [e a0] to [Debye]
 Dipole X            :       -146.6055164          143.5732463           -3.0322701
 Dipole Y            :       -146.6055164          143.5732463           -3.0322701
 Dipole Z            :         -0.0000000            0.0000000           -0.0000000
 Magnitude           :                                                    4.2882775

 ------------------------------------------------------------------------------------

*** tstop() called on ddmfs1 at Mon Jan 22 03:53:22 2024
Module time:
	user time   =      41.53 seconds =       0.69 minutes
	system time =       5.86 seconds =       0.10 minutes
	total time  =          6 seconds =       0.10 minutes
Total time:
	user time   =     447.10 seconds =       7.45 minutes
	system time =      48.29 seconds =       0.80 minutes
	total time  =        145 seconds =       2.42 minutes

*** tstart() called on ddmfs1
*** at Mon Jan 22 03:53:22 2024


  //>>>>>>>>>>>>>>>>>>>>>>>>>>>>>>>>>>>//
  //               DFMP2               //
  //<<<<<<<<<<<<<<<<<<<<<<<<<<<<<<<<<<<//

   => Loading Basis Set <=

    Name: (AUG-CC-PVTZ AUX)
    Role: RIFIT
    Keyword: DF_BASIS_MP2
    atoms 1   entry LI         line    90 file /ddmfs1b/softs/psi4conda/share/psi4/basis/def2-qzvpp-ri.gbs 
    atoms 2-3 entry BR         line  1248 file /ddmfs1b/softs/psi4conda/share/psi4/basis/aug-cc-pvtz-ri.gbs 

	 --------------------------------------------------------
	                          DF-MP2                         
	      2nd-Order Density-Fitted Moller-Plesset Theory     
	              RMP2 Wavefunction,  20 Threads             
	                                                         
	        Rob Parrish, Justin Turney, Andy Simmonett,      
	           Ed Hohenstein, and C. David Sherrill          
	 --------------------------------------------------------

   => Auxiliary Basis Set <=

  Basis Set: (AUG-CC-PVTZ AUX)
    Blend: AUG-CC-PVTZ-RI + DEF2-QZVPP-RI
    Number of shells: 113
    Number of basis functions: 483
    Number of Cartesian functions: 652
    Spherical Harmonics?: true
    Max angular momentum: 5

	 --------------------------------------------------------
	                 NBF =   164, NAUX =   483
	 --------------------------------------------------------
	   CLASS    FOCC     OCC    AOCC    AVIR     VIR    FVIR
	   PAIRS       0      37      37     127     127       0
	 --------------------------------------------------------

	-----------------------------------------------------------
	 ==================> DF-MP2 Energies <==================== 
	-----------------------------------------------------------
	 Reference Energy          =   -5152.5472107466284797 [Eh]
	 Singles Energy            =      -0.0000000000000000 [Eh]
	 Same-Spin Energy          =      -0.1837294172784794 [Eh]
	 Opposite-Spin Energy      =      -0.4313166526990522 [Eh]
	 Correlation Energy        =      -0.6150460699775315 [Eh]
	 Total Energy              =   -5153.1622568166058045 [Eh]
	-----------------------------------------------------------
	 ================> DF-SCS-MP2 Energies <================== 
	-----------------------------------------------------------
	 SCS Same-Spin Scale       =       0.3333333333333333 [-]
	 SCS Opposite-Spin Scale   =       1.2000000000000000 [-]
	 SCS Same-Spin Energy      =      -0.0612431390928264 [Eh]
	 SCS Opposite-Spin Energy  =      -0.5175799832388626 [Eh]
	 SCS Correlation Energy    =      -0.5788231223316890 [Eh]
	 SCS Total Energy          =   -5153.1260338689598939 [Eh]
	-----------------------------------------------------------


*** tstop() called on ddmfs1 at Mon Jan 22 03:53:38 2024
Module time:
	user time   =      27.01 seconds =       0.45 minutes
	system time =       1.13 seconds =       0.02 minutes
	total time  =         16 seconds =       0.27 minutes
Total time:
	user time   =     474.13 seconds =       7.90 minutes
	system time =      49.42 seconds =       0.82 minutes
	total time  =        161 seconds =       2.68 minutes

    Psi4 stopped on: Monday, 22 January 2024 03:53AM
    Psi4 wall time for execution: 0:00:22.88


  //>>>>>>>>>>>>>>>>>>>>>>>>>>>>>>>>>>>//
  //          ManyBody Results         //
  //<<<<<<<<<<<<<<<<<<<<<<<<<<<<<<<<<<<//


   ==> N-Body: Counterpoise Corrected (CP) energies <==

        n-Body     Total Energy            Interaction Energy                          N-body Contribution to Interaction Energy
                   [Eh]                    [Eh]                  [kcal/mol]            [Eh]                  [kcal/mol]
             1  N/A                         0.000000000000        0.000000000000        0.000000000000        0.000000000000
             2  N/A                        -0.306530487938     -192.350785182928       -0.306530487938     -192.350785182928
  FULL/RTN   3  N/A                        -0.254482355760     -159.690089148655        0.052048132178       32.660696034273


    Psi4 stopped on: Monday, 22 January 2024 03:53AM
    Psi4 wall time for execution: 0:02:43.75

*** Psi4 exiting successfully. Buy a developer a beer!
