
    -----------------------------------------------------------------------
          Psi4: An Open-Source Ab Initio Electronic Structure Package
                               Psi4 1.9 release

                         Git: Rev {} zzzzzzz 


    D. G. A. Smith, L. A. Burns, A. C. Simmonett, R. M. Parrish,
    M. C. Schieber, R. Galvelis, P. Kraus, H. Kruse, R. Di Remigio,
    A. Alenaizan, A. M. James, S. Lehtola, J. P. Misiewicz, M. Scheurer,
    R. A. Shaw, J. B. Schriber, Y. Xie, Z. L. Glick, D. A. Sirianni,
    J. S. O'Brien, J. M. Waldrop, A. Kumar, E. G. Hohenstein,
    B. P. Pritchard, B. R. Brooks, H. F. Schaefer III, A. Yu. Sokolov,
    K. Patkowski, A. E. DePrince III, U. Bozkaya, R. A. King,
    F. A. Evangelista, J. M. Turney, T. D. Crawford, C. D. Sherrill,
    J. Chem. Phys. 152(18) 184108 (2020). https://doi.org/10.1063/5.0006002

                            Additional Code Authors
    E. T. Seidl, C. L. Janssen, E. F. Valeev, M. L. Leininger,
    J. F. Gonthier, R. M. Richard, H. R. McAlexander, M. Saitow, X. Wang,
    P. Verma, M. H. Lechner, A. Jiang, S. Behnle, A. G. Heide,
    M. F. Herbst, and D. L. Poole

             Previous Authors, Complete List of Code Contributors,
                       and Citations for Specific Modules
    https://github.com/psi4/psi4/blob/master/codemeta.json
    https://github.com/psi4/psi4/graphs/contributors
    http://psicode.org/psi4manual/master/introduction.html#citing-psifour

    -----------------------------------------------------------------------


    Psi4 started on: Wednesday, 03 January 2024 07:52PM

    Process ID: 434717
    Host:       moses-razer
    PSIDATADIR: /home/kchung25/anaconda3/envs/psi4_19/share/psi4
    Memory:     500.0 MiB
    Threads:    6
    
  ==> Input File <==

--------------------------------------------------------------------------
MEMORY 60 GB

molecule dimer {
0 1
Li     0.000000     0.000000     0.000000
Br     0.000000     2.170734     0.000000
--
-1 1
Br     4.341468     0.000000     0.000000

units ang
no_reorient
no_com
symmetry c1
}

set {
basis        aug-cc-pVTZ
scf_type     df
}

energy("mp2", bsse_type="cp")
--------------------------------------------------------------------------

  Memory set to  55.879 GiB by Python driver.

Scratch directory: /scratch/

  //>>>>>>>>>>>>>>>>>>>>>>>>>>>>>>>>>>>>>//
  // ManyBody Setup: N-Body Levels [1, 2]//
  //<<<<<<<<<<<<<<<<<<<<<<<<<<<<<<<<<<<<<//

        Number of 1-body computations:     2
        Number of 2-body computations:     1

    -----------------------------------------------------------------------
          Psi4: An Open-Source Ab Initio Electronic Structure Package
                               Psi4 1.9 release

                         Git: Rev {} zzzzzzz 


    D. G. A. Smith, L. A. Burns, A. C. Simmonett, R. M. Parrish,
    M. C. Schieber, R. Galvelis, P. Kraus, H. Kruse, R. Di Remigio,
    A. Alenaizan, A. M. James, S. Lehtola, J. P. Misiewicz, M. Scheurer,
    R. A. Shaw, J. B. Schriber, Y. Xie, Z. L. Glick, D. A. Sirianni,
    J. S. O'Brien, J. M. Waldrop, A. Kumar, E. G. Hohenstein,
    B. P. Pritchard, B. R. Brooks, H. F. Schaefer III, A. Yu. Sokolov,
    K. Patkowski, A. E. DePrince III, U. Bozkaya, R. A. King,
    F. A. Evangelista, J. M. Turney, T. D. Crawford, C. D. Sherrill,
    J. Chem. Phys. 152(18) 184108 (2020). https://doi.org/10.1063/5.0006002

                            Additional Code Authors
    E. T. Seidl, C. L. Janssen, E. F. Valeev, M. L. Leininger,
    J. F. Gonthier, R. M. Richard, H. R. McAlexander, M. Saitow, X. Wang,
    P. Verma, M. H. Lechner, A. Jiang, S. Behnle, A. G. Heide,
    M. F. Herbst, and D. L. Poole

             Previous Authors, Complete List of Code Contributors,
                       and Citations for Specific Modules
    https://github.com/psi4/psi4/blob/master/codemeta.json
    https://github.com/psi4/psi4/graphs/contributors
    http://psicode.org/psi4manual/master/introduction.html#citing-psifour

    -----------------------------------------------------------------------


    Psi4 started on: Wednesday, 03 January 2024 07:52PM

    Process ID: 434717
    Host:       moses-razer
    PSIDATADIR: /home/kchung25/anaconda3/envs/psi4_19/share/psi4
    Memory:     55.9 GiB
    Threads:    6
    
  ==> Input QCSchema <==

--------------------------------------------------------------------------
{'driver': 'energy',
 'extras': {'psiapi': True, 'wfn_qcvars_only': True},
 'id': None,
 'keywords': {'SCF_TYPE': 'DF', 'function_kwargs': {}},
 'model': {'basis': 'aug-cc-pvtz', 'method': 'mp2'},
 'molecule': {'atom_labels': ['', '', ''],
              'atomic_numbers': [3, 35, 35],
              'extras': {},
              'fix_com': True,
              'fix_orientation': True,
              'fix_symmetry': 'c1',
              'fragment_charges': [0.0, -1.0],
              'fragment_multiplicities': [1, 1],
              'fragments': [[0, 1], [2]],
              'geometry': [0.0, 0.0, 0.0, 0.0, 4.102092751219572, 0.0, 8.204185502439143, 0.0, 0.0],
              'mass_numbers': [7, 79, 79],
              'masses': [7.0160034366, 78.9183376, 78.9183376],
              'molecular_charge': -1.0,
              'molecular_multiplicity': 1,
              'name': 'dimer',
              'provenance': {'creator': 'QCElemental',
                             'routine': 'qcelemental.molparse.from_string',
                             'version': '0.27.1'},
              'real': [False, False, True],
              'schema_name': 'qcschema_molecule',
              'schema_version': 2,
              'symbols': ['Li', 'Br', 'Br'],
              'validated': True},
 'protocols': {'stdout': True},
 'provenance': {'creator': 'QCElemental', 'routine': 'qcelemental.models.results', 'version': '0.27.1'},
 'schema_name': 'qcschema_input',
 'schema_version': 1}
--------------------------------------------------------------------------

Scratch directory: /scratch/
   => Libint2 <=

    Primary   basis highest AM E, G, H:  5, 4, 3
    Auxiliary basis highest AM E, G, H:  6, 5, 4
    Onebody   basis highest AM E, G, H:  6, 5, 4
    Solid Harmonics ordering:            gaussian

*** tstart() called on moses-razer
*** at Wed Jan  3 19:52:15 2024

   => Loading Basis Set <=

    Name: AUG-CC-PVTZ
    Role: ORBITAL
    Keyword: BASIS
    atoms 1   entry LI         line    85 file /home/kchung25/anaconda3/envs/p415env/share/psi4/basis/aug-cc-pvtz.gbs 
    atoms 2-3 entry BR         line  4564 file /home/kchung25/anaconda3/envs/p415env/share/psi4/basis/aug-cc-pvtz.gbs 


         ---------------------------------------------------------
                                   SCF
               by Justin Turney, Rob Parrish, Andy Simmonett
                          and Daniel G. A. Smith
                              RHF Reference
                        6 Threads,  57220 MiB Core
         ---------------------------------------------------------

  ==> Geometry <==

    Molecular point group: c1
    Full point group: Cs

    Geometry (in Bohr), charge = -1, multiplicity = 1:

       Center              X                  Y                   Z               Mass       
    ------------   -----------------  -----------------  -----------------  -----------------
      Gh(LI)          0.000000000000     0.000000000000     0.000000000000     7.016003436600
      Gh(BR)          0.000000000000     4.102092751220     0.000000000000    78.918337600000
         BR           8.204185502439     0.000000000000     0.000000000000    78.918337600000

  Running in c1 symmetry.

  Rotational constants: A =      0.04533  B =      0.01133  C =      0.00907 [cm^-1]
  Rotational constants: A =   1359.02064  B =    339.75516  C =    271.80413 [MHz]
  Nuclear repulsion =    0.000000000000000

  Charge       = -1
  Multiplicity = 1
  Electrons    = 36
  Nalpha       = 18
  Nbeta        = 18

  ==> Algorithm <==

  SCF Algorithm Type is DF.
  DIIS enabled.
  MOM disabled.
  Fractional occupation disabled.
  Guess Type is SAD.
  Energy threshold   = 1.00e-08
  Density threshold  = 1.00e-08
  Integral threshold = 1.00e-12

  ==> Primary Basis <==

  Basis Set: AUG-CC-PVTZ
    Blend: AUG-CC-PVTZ
    Number of shells: 52
    Number of basis functions: 164
    Number of Cartesian functions: 193
    Spherical Harmonics?: true
    Max angular momentum: 3

   => Loading Basis Set <=

    Name: (AUG-CC-PVTZ AUX)
    Role: JKFIT
    Keyword: DF_BASIS_SCF
    atoms 1   entry LI         line    54 file /home/kchung25/anaconda3/envs/p415env/share/psi4/basis/def2-universal-jkfit.gbs 
    atoms 2-3 entry BR         line  1492 file /home/kchung25/anaconda3/envs/p415env/share/psi4/basis/aug-cc-pvtz-jkfit.gbs 

  ==> Integral Setup <==

  DFHelper Memory: AOs need 0.117 GiB; user supplied 41.910 GiB. 
  Using in-core AOs.

  ==> MemDFJK: Density-Fitted J/K Matrices <==

    J tasked:                   Yes
    K tasked:                   Yes
    wK tasked:                   No
    OpenMP threads:               6
    Memory [MiB]:             42915
    Algorithm:                 Core
    Schwarz Cutoff:           1E-12
    Mask sparsity (%):       1.7698
    Fitting Condition:        1E-10

   => Auxiliary Basis Set <=

  Basis Set: (AUG-CC-PVTZ AUX)
    Blend: AUG-CC-PVTZ-JKFIT + DEF2-UNIVERSAL-JKFIT
    Number of shells: 133
    Number of basis functions: 547
    Number of Cartesian functions: 718
    Spherical Harmonics?: true
    Max angular momentum: 4

  Minimum eigenvalue in the overlap matrix is 4.4347596077E-04.
  Reciprocal condition number of the overlap matrix is 7.5970070807E-05.
    Using symmetric orthogonalization.

  ==> Pre-Iterations <==

  SCF Guess: Superposition of Atomic Densities via on-the-fly atomic UHF (no occupation information).

   -------------------------
    Irrep   Nso     Nmo    
   -------------------------
     A        164     164 
   -------------------------
    Total     164     164
   -------------------------

  ==> Iterations <==

                           Total Energy        Delta E     RMS |[F,P]|

   @DF-RHF iter SAD: -2570.41423521136312   -2.57041e+03   0.00000e+00 
   @DF-RHF iter   1: -2572.25560402517476   -1.84137e+00   6.40098e-03 DIIS/ADIIS
   @DF-RHF iter   2: -2572.46443870734993   -2.08835e-01   3.55370e-03 DIIS/ADIIS
   @DF-RHF iter   3: -2572.53363580268797   -6.91971e-02   5.54466e-05 DIIS
   @DF-RHF iter   4: -2572.53367155622391   -3.57535e-05   6.79906e-06 DIIS
   @DF-RHF iter   5: -2572.53367300134505   -1.44512e-06   1.85612e-06 DIIS
   @DF-RHF iter   6: -2572.53367309884834   -9.75033e-08   3.51612e-07 DIIS
   @DF-RHF iter   7: -2572.53367311090187   -1.20535e-08   2.46954e-08 DIIS
   @DF-RHF iter   8: -2572.53367311095872   -5.68434e-11   6.26993e-09 DIIS
  Energy and wave function converged.


  ==> Post-Iterations <==

    Orbital Energies [Eh]
    ---------------------

    Doubly Occupied:                                                      

       1A   -489.720515     2A    -64.860561     3A    -58.215036  
       4A    -58.215036     5A    -58.215035     6A     -9.532886  
       7A     -7.140230     8A     -7.140230     9A     -7.140225  
      10A     -2.881899    11A     -2.881898    12A     -2.881898  
      13A     -2.881897    14A     -2.881893    15A     -0.686001  
      16A     -0.139341    17A     -0.139338    18A     -0.139337  

    Virtual:                                                              

      19A      0.070128    20A      0.084605    21A      0.086891  
      22A      0.109242    23A      0.130256    24A      0.143887  
      25A      0.153822    26A      0.165314    27A      0.184441  
      28A      0.187076    29A      0.199379    30A      0.224094  
      31A      0.236990    32A      0.237518    33A      0.249220  
      34A      0.252179    35A      0.261989    36A      0.267385  
      37A      0.267657    38A      0.276062    39A      0.303443  
      40A      0.308178    41A      0.318743    42A      0.362216  
      43A      0.381096    44A      0.402119    45A      0.418326  
      46A      0.420314    47A      0.427715    48A      0.441630  
      49A      0.444706    50A      0.470880    51A      0.473589  
      52A      0.474496    53A      0.476680    54A      0.485549  
      55A      0.497935    56A      0.505359    57A      0.511884  
      58A      0.519914    59A      0.531561    60A      0.532090  
      61A      0.545122    62A      0.562556    63A      0.576725  
      64A      0.579338    65A      0.600505    66A      0.616864  
      67A      0.628036    68A      0.652170    69A      0.675638  
      70A      0.758625    71A      0.771967    72A      0.833000  
      73A      0.863727    74A      0.904257    75A      0.922690  
      76A      0.927772    77A      0.949531    78A      0.953268  
      79A      0.961710    80A      1.008531    81A      1.020730  
      82A      1.028621    83A      1.038661    84A      1.041939  
      85A      1.046620    86A      1.063014    87A      1.078777  
      88A      1.080902    89A      1.082915    90A      1.089769  
      91A      1.114643    92A      1.139309    93A      1.191571  
      94A      1.197063    95A      1.200856    96A      1.200903  
      97A      1.206991    98A      1.211051    99A      1.221401  
     100A      1.227401   101A      1.232430   102A      1.248637  
     103A      1.265582   104A      1.300215   105A      1.309056  
     106A      1.321159   107A      1.341254   108A      1.351315  
     109A      1.375080   110A      1.428491   111A      1.470234  
     112A      1.485382   113A      1.521934   114A      1.712176  
     115A      1.736647   116A      1.870901   117A      2.223249  
     118A      2.420499   119A      2.427410   120A      2.490524  
     121A      2.570871   122A      2.573538   123A      2.584513  
     124A      2.586229   125A      2.586344   126A      2.590347  
     127A      2.593639   128A      2.598912   129A      2.606514  
     130A      2.635839   131A      2.654025   132A      2.740400  
     133A      3.096787   134A      3.116649   135A      3.198006  
     136A      3.250156   137A      3.257281   138A      3.291329  
     139A      3.342707   140A      3.350422   141A      3.410532  
     142A      3.434103   143A      3.454287   144A      3.465261  
     145A      3.570537   146A      3.578443   147A      3.588412  
     148A      3.796512   149A      3.991996   150A     10.107238  
     151A     10.908280   152A     13.718461   153A     13.741015  
     154A     13.900544   155A     26.298099   156A     26.305317  
     157A     26.396416   158A     26.402336   159A     26.442699  
     160A     45.946759   161A    138.758761   162A    138.794437  
     163A    139.042091   164A    709.772520  

    Final Occupation by Irrep:
              A 
    DOCC [    18 ]
    NA   [    18 ]
    NB   [    18 ]

  @DF-RHF Final Energy: -2572.53367311095872

   => Energetics <=

    Nuclear Repulsion Energy =              0.0000000000000000
    One-Electron Energy =               -3593.6808317590439401
    Two-Electron Energy =                1021.1471586480854512
    Total Energy =                      -2572.5336731109582615

Computation Completed


Properties will be evaluated at   0.000000,   0.000000,   0.000000 [a0]

Properties computed using the SCF density matrix


 Multipole Moments:

 ------------------------------------------------------------------------------------
     Multipole            Electronic (a.u.)      Nuclear  (a.u.)        Total (a.u.)
 ------------------------------------------------------------------------------------

 L = 1.  Multiply by 2.5417464519 to convert [e a0] to [Debye]
 Dipole X            :       -295.3507613          287.1464926           -8.2042687
 Dipole Y            :         -0.0000054            0.0000000           -0.0000054
 Dipole Z            :          0.0000000            0.0000000            0.0000000
 Magnitude           :                                                    8.2042687

 ------------------------------------------------------------------------------------

*** tstop() called on moses-razer at Wed Jan  3 19:52:20 2024
Module time:
	user time   =      11.76 seconds =       0.20 minutes
	system time =       1.16 seconds =       0.02 minutes
	total time  =          5 seconds =       0.08 minutes
Total time:
	user time   =      11.76 seconds =       0.20 minutes
	system time =       1.16 seconds =       0.02 minutes
	total time  =          5 seconds =       0.08 minutes

*** tstart() called on moses-razer
*** at Wed Jan  3 19:52:20 2024


  //>>>>>>>>>>>>>>>>>>>>>>>>>>>>>>>>>>>//
  //               DFMP2               //
  //<<<<<<<<<<<<<<<<<<<<<<<<<<<<<<<<<<<//

   => Loading Basis Set <=

    Name: (AUG-CC-PVTZ AUX)
    Role: RIFIT
    Keyword: DF_BASIS_MP2
    atoms 1   entry LI         line    90 file /home/kchung25/anaconda3/envs/p415env/share/psi4/basis/def2-qzvpp-ri.gbs 
    atoms 2-3 entry BR         line  1248 file /home/kchung25/anaconda3/envs/p415env/share/psi4/basis/aug-cc-pvtz-ri.gbs 

	 --------------------------------------------------------
	                          DF-MP2                         
	      2nd-Order Density-Fitted Moller-Plesset Theory     
	              RMP2 Wavefunction,   6 Threads             
	                                                         
	        Rob Parrish, Justin Turney, Andy Simmonett,      
	           Ed Hohenstein, and C. David Sherrill          
	 --------------------------------------------------------

   => Auxiliary Basis Set <=

  Basis Set: (AUG-CC-PVTZ AUX)
    Blend: AUG-CC-PVTZ-RI + DEF2-QZVPP-RI
    Number of shells: 113
    Number of basis functions: 483
    Number of Cartesian functions: 652
    Spherical Harmonics?: true
    Max angular momentum: 5

	 --------------------------------------------------------
	                 NBF =   164, NAUX =   483
	 --------------------------------------------------------
	   CLASS    FOCC     OCC    AOCC    AVIR     VIR    FVIR
	   PAIRS       0      18      18     146     146       0
	 --------------------------------------------------------

	-----------------------------------------------------------
	 ==================> DF-MP2 Energies <==================== 
	-----------------------------------------------------------
	 Reference Energy          =   -2572.5336731109587163 [Eh]
	 Singles Energy            =      -0.0000000000000000 [Eh]
	 Same-Spin Energy          =      -0.0870834107558427 [Eh]
	 Opposite-Spin Energy      =      -0.2018679230044485 [Eh]
	 Correlation Energy        =      -0.2889513337602912 [Eh]
	 Total Energy              =   -2572.8226244447191675 [Eh]
	-----------------------------------------------------------
	 ================> DF-SCS-MP2 Energies <================== 
	-----------------------------------------------------------
	 SCS Same-Spin Scale       =       0.3333333333333333 [-]
	 SCS Opposite-Spin Scale   =       1.2000000000000000 [-]
	 SCS Same-Spin Energy      =      -0.0290278035852809 [Eh]
	 SCS Opposite-Spin Energy  =      -0.2422415076053382 [Eh]
	 SCS Correlation Energy    =      -0.2712693111906191 [Eh]
	 SCS Total Energy          =   -2572.8049424221494519 [Eh]
	-----------------------------------------------------------


*** tstop() called on moses-razer at Wed Jan  3 19:52:25 2024
Module time:
	user time   =       6.97 seconds =       0.12 minutes
	system time =       0.34 seconds =       0.01 minutes
	total time  =          5 seconds =       0.08 minutes
Total time:
	user time   =      18.73 seconds =       0.31 minutes
	system time =       1.50 seconds =       0.03 minutes
	total time  =         10 seconds =       0.17 minutes

    Psi4 stopped on: Wednesday, 03 January 2024 07:52PM
    Psi4 wall time for execution: 0:00:10.14


    -----------------------------------------------------------------------
          Psi4: An Open-Source Ab Initio Electronic Structure Package
                               Psi4 1.9 release

                         Git: Rev {} zzzzzzz 


    D. G. A. Smith, L. A. Burns, A. C. Simmonett, R. M. Parrish,
    M. C. Schieber, R. Galvelis, P. Kraus, H. Kruse, R. Di Remigio,
    A. Alenaizan, A. M. James, S. Lehtola, J. P. Misiewicz, M. Scheurer,
    R. A. Shaw, J. B. Schriber, Y. Xie, Z. L. Glick, D. A. Sirianni,
    J. S. O'Brien, J. M. Waldrop, A. Kumar, E. G. Hohenstein,
    B. P. Pritchard, B. R. Brooks, H. F. Schaefer III, A. Yu. Sokolov,
    K. Patkowski, A. E. DePrince III, U. Bozkaya, R. A. King,
    F. A. Evangelista, J. M. Turney, T. D. Crawford, C. D. Sherrill,
    J. Chem. Phys. 152(18) 184108 (2020). https://doi.org/10.1063/5.0006002

                            Additional Code Authors
    E. T. Seidl, C. L. Janssen, E. F. Valeev, M. L. Leininger,
    J. F. Gonthier, R. M. Richard, H. R. McAlexander, M. Saitow, X. Wang,
    P. Verma, M. H. Lechner, A. Jiang, S. Behnle, A. G. Heide,
    M. F. Herbst, and D. L. Poole

             Previous Authors, Complete List of Code Contributors,
                       and Citations for Specific Modules
    https://github.com/psi4/psi4/blob/master/codemeta.json
    https://github.com/psi4/psi4/graphs/contributors
    http://psicode.org/psi4manual/master/introduction.html#citing-psifour

    -----------------------------------------------------------------------


    Psi4 started on: Wednesday, 03 January 2024 07:52PM

    Process ID: 434717
    Host:       moses-razer
    PSIDATADIR: /home/kchung25/anaconda3/envs/psi4_19/share/psi4
    Memory:     55.9 GiB
    Threads:    6
    
  ==> Input QCSchema <==

--------------------------------------------------------------------------
{'driver': 'energy',
 'extras': {'psiapi': True, 'wfn_qcvars_only': True},
 'id': None,
 'keywords': {'SCF_TYPE': 'DF', 'function_kwargs': {}},
 'model': {'basis': 'aug-cc-pvtz', 'method': 'mp2'},
 'molecule': {'atom_labels': ['', '', ''],
              'atomic_numbers': [3, 35, 35],
              'extras': {},
              'fix_com': True,
              'fix_orientation': True,
              'fix_symmetry': 'c1',
              'fragment_charges': [0.0, 0.0],
              'fragment_multiplicities': [1, 1],
              'fragments': [[0, 1], [2]],
              'geometry': [0.0, 0.0, 0.0, 0.0, 4.102092751219572, 0.0, 8.204185502439143, 0.0, 0.0],
              'mass_numbers': [7, 79, 79],
              'masses': [7.0160034366, 78.9183376, 78.9183376],
              'molecular_charge': 0.0,
              'molecular_multiplicity': 1,
              'name': 'dimer',
              'provenance': {'creator': 'QCElemental',
                             'routine': 'qcelemental.molparse.from_string',
                             'version': '0.27.1'},
              'real': [True, True, False],
              'schema_name': 'qcschema_molecule',
              'schema_version': 2,
              'symbols': ['Li', 'Br', 'Br'],
              'validated': True},
 'protocols': {'stdout': True},
 'provenance': {'creator': 'QCElemental', 'routine': 'qcelemental.models.results', 'version': '0.27.1'},
 'schema_name': 'qcschema_input',
 'schema_version': 1}
--------------------------------------------------------------------------

Scratch directory: /scratch/
   => Libint2 <=

    Primary   basis highest AM E, G, H:  5, 4, 3
    Auxiliary basis highest AM E, G, H:  6, 5, 4
    Onebody   basis highest AM E, G, H:  6, 5, 4
    Solid Harmonics ordering:            gaussian

*** tstart() called on moses-razer
*** at Wed Jan  3 19:52:25 2024

   => Loading Basis Set <=

    Name: AUG-CC-PVTZ
    Role: ORBITAL
    Keyword: BASIS
    atoms 1   entry LI         line    85 file /home/kchung25/anaconda3/envs/p415env/share/psi4/basis/aug-cc-pvtz.gbs 
    atoms 2-3 entry BR         line  4564 file /home/kchung25/anaconda3/envs/p415env/share/psi4/basis/aug-cc-pvtz.gbs 


         ---------------------------------------------------------
                                   SCF
               by Justin Turney, Rob Parrish, Andy Simmonett
                          and Daniel G. A. Smith
                              RHF Reference
                        6 Threads,  57220 MiB Core
         ---------------------------------------------------------

  ==> Geometry <==

    Molecular point group: c1
    Full point group: Cs

    Geometry (in Bohr), charge = 0, multiplicity = 1:

       Center              X                  Y                   Z               Mass       
    ------------   -----------------  -----------------  -----------------  -----------------
         LI           0.000000000000     0.000000000000     0.000000000000     7.016003436600
         BR           0.000000000000     4.102092751220     0.000000000000    78.918337600000
      Gh(BR)          8.204185502439     0.000000000000     0.000000000000    78.918337600000

  Running in c1 symmetry.

  Rotational constants: A =      0.04533  B =      0.01133  C =      0.00907 [cm^-1]
  Rotational constants: A =   1359.02064  B =    339.75516  C =    271.80413 [MHz]
  Nuclear repulsion =   25.596690852195625

  Charge       = 0
  Multiplicity = 1
  Electrons    = 38
  Nalpha       = 19
  Nbeta        = 19

  ==> Algorithm <==

  SCF Algorithm Type is DF.
  DIIS enabled.
  MOM disabled.
  Fractional occupation disabled.
  Guess Type is SAD.
  Energy threshold   = 1.00e-08
  Density threshold  = 1.00e-08
  Integral threshold = 1.00e-12

  ==> Primary Basis <==

  Basis Set: AUG-CC-PVTZ
    Blend: AUG-CC-PVTZ
    Number of shells: 52
    Number of basis functions: 164
    Number of Cartesian functions: 193
    Spherical Harmonics?: true
    Max angular momentum: 3

   => Loading Basis Set <=

    Name: (AUG-CC-PVTZ AUX)
    Role: JKFIT
    Keyword: DF_BASIS_SCF
    atoms 1   entry LI         line    54 file /home/kchung25/anaconda3/envs/p415env/share/psi4/basis/def2-universal-jkfit.gbs 
    atoms 2-3 entry BR         line  1492 file /home/kchung25/anaconda3/envs/p415env/share/psi4/basis/aug-cc-pvtz-jkfit.gbs 

  ==> Integral Setup <==

  DFHelper Memory: AOs need 0.117 GiB; user supplied 41.910 GiB. 
  Using in-core AOs.

  ==> MemDFJK: Density-Fitted J/K Matrices <==

    J tasked:                   Yes
    K tasked:                   Yes
    wK tasked:                   No
    OpenMP threads:               6
    Memory [MiB]:             42915
    Algorithm:                 Core
    Schwarz Cutoff:           1E-12
    Mask sparsity (%):       1.7698
    Fitting Condition:        1E-10

   => Auxiliary Basis Set <=

  Basis Set: (AUG-CC-PVTZ AUX)
    Blend: AUG-CC-PVTZ-JKFIT + DEF2-UNIVERSAL-JKFIT
    Number of shells: 133
    Number of basis functions: 547
    Number of Cartesian functions: 718
    Spherical Harmonics?: true
    Max angular momentum: 4

  Minimum eigenvalue in the overlap matrix is 4.4347596077E-04.
  Reciprocal condition number of the overlap matrix is 7.5970070807E-05.
    Using symmetric orthogonalization.

  ==> Pre-Iterations <==

  SCF Guess: Superposition of Atomic Densities via on-the-fly atomic UHF (no occupation information).

   -------------------------
    Irrep   Nso     Nmo    
   -------------------------
     A        164     164 
   -------------------------
    Total     164     164
   -------------------------

  ==> Iterations <==

                           Total Energy        Delta E     RMS |[F,P]|

   @DF-RHF iter SAD: -2577.84692153182550   -2.57785e+03   0.00000e+00 
   @DF-RHF iter   1: -2579.74249101896112   -1.89557e+00   6.40603e-03 DIIS/ADIIS
   @DF-RHF iter   2: -2579.94184371227493   -1.99353e-01   3.41462e-03 DIIS/ADIIS
   @DF-RHF iter   3: -2579.99940291790836   -5.75592e-02   6.17196e-05 DIIS
   @DF-RHF iter   4: -2579.99945110258886   -4.81847e-05   1.54219e-05 DIIS
   @DF-RHF iter   5: -2579.99945526391821   -4.16133e-06   4.32110e-06 DIIS
   @DF-RHF iter   6: -2579.99945571545459   -4.51536e-07   9.44126e-07 DIIS
   @DF-RHF iter   7: -2579.99945576793107   -5.24765e-08   1.51971e-07 DIIS
   @DF-RHF iter   8: -2579.99945576944583   -1.51476e-09   3.08893e-08 DIIS
   @DF-RHF iter   9: -2579.99945576950950   -6.36646e-11   5.59260e-09 DIIS
  Energy and wave function converged.


  ==> Post-Iterations <==

    Orbital Energies [Eh]
    ---------------------

    Doubly Occupied:                                                      

       1A   -489.932731     2A    -65.073320     3A    -58.427763  
       4A    -58.427763     5A    -58.427755     6A     -9.746099  
       7A     -7.353987     8A     -7.353300     9A     -7.353298  
      10A     -3.095640    11A     -3.095293    12A     -3.095293  
      13A     -3.094691    14A     -3.094690    15A     -2.490862  
      16A     -0.910082    17A     -0.382248    18A     -0.353313  
      19A     -0.353313  

    Virtual:                                                              

      20A     -0.016562    21A      0.015165    22A      0.015633  
      23A      0.019089    24A      0.025777    25A      0.047056  
      26A      0.049566    27A      0.064906    28A      0.074232  
      29A      0.080710    30A      0.088564    31A      0.106360  
      32A      0.113811    33A      0.115620    34A      0.123339  
      35A      0.129653    36A      0.133004    37A      0.139467  
      38A      0.148532    39A      0.151429    40A      0.154399  
      41A      0.156298    42A      0.185220    43A      0.216333  
      44A      0.270629    45A      0.274761    46A      0.277238  
      47A      0.284401    48A      0.306195    49A      0.309505  
      50A      0.313096    51A      0.318665    52A      0.325483  
      53A      0.329039    54A      0.333924    55A      0.334424  
      56A      0.336840    57A      0.347579    58A      0.352412  
      59A      0.364282    60A      0.365898    61A      0.378809  
      62A      0.382647    63A      0.385352    64A      0.404334  
      65A      0.412877    66A      0.425268    67A      0.444008  
      68A      0.450097    69A      0.456221    70A      0.475971  
      71A      0.490261    72A      0.553398    73A      0.617841  
      74A      0.704334    75A      0.707607    76A      0.712729  
      77A      0.723522    78A      0.747896    79A      0.760059  
      80A      0.765816    81A      0.773650    82A      0.782876  
      83A      0.795101    84A      0.800680    85A      0.808731  
      86A      0.812908    87A      0.818610    88A      0.839171  
      89A      0.945127    90A      0.945318    91A      0.996694  
      92A      0.998071    93A      1.023362    94A      1.029520  
      95A      1.041718    96A      1.054261    97A      1.054617  
      98A      1.063037    99A      1.064604   100A      1.069713  
     101A      1.083237   102A      1.085671   103A      1.090905  
     104A      1.092108   105A      1.114333   106A      1.119309  
     107A      1.126505   108A      1.153174   109A      1.169036  
     110A      1.178004   111A      1.186915   112A      1.200223  
     113A      1.232006   114A      1.308487   115A      1.345231  
     116A      1.372175   117A      1.503208   118A      2.330794  
     119A      2.349755   120A      2.392696   121A      2.393299  
     122A      2.398482   123A      2.418814   124A      2.427792  
     125A      2.441356   126A      2.472968   127A      2.479743  
     128A      2.523192   129A      2.547432   130A      2.585201  
     131A      2.591594   132A      2.728548   133A      2.861997  
     134A      2.868241   135A      2.915728   136A      2.959439  
     137A      3.118648   138A      3.118987   139A      3.124542  
     140A      3.130431   141A      3.142804   142A      3.160917  
     143A      3.187318   144A      3.290230   145A      3.295750  
     146A      3.323330   147A      3.333878   148A      3.382153  
     149A      3.456265   150A      4.547469   151A      9.321738  
     152A     13.450470   153A     13.457245   154A     13.529994  
     155A     26.132639   156A     26.137113   157A     26.163565  
     158A     26.171502   159A     26.203611   160A     45.305186  
     161A    138.400699   162A    138.411307   163A    138.525660  
     164A    708.174757  

    Final Occupation by Irrep:
              A 
    DOCC [    19 ]
    NA   [    19 ]
    NB   [    19 ]

  @DF-RHF Final Energy: -2579.99945576950950

   => Energetics <=

    Nuclear Repulsion Energy =             25.5966908521956249
    One-Electron Energy =               -3647.0694212363018778
    Two-Electron Energy =                1041.4732746145966757
    Total Energy =                      -2579.9994557695099502

Computation Completed


Properties will be evaluated at   0.000000,   0.000000,   0.000000 [a0]

Properties computed using the SCF density matrix


 Multipole Moments:

 ------------------------------------------------------------------------------------
     Multipole            Electronic (a.u.)      Nuclear  (a.u.)        Total (a.u.)
 ------------------------------------------------------------------------------------

 L = 1.  Multiply by 2.5417464519 to convert [e a0] to [Debye]
 Dipole X            :         -0.0001878            0.0000000           -0.0001878
 Dipole Y            :       -146.5033891          143.5732463           -2.9301428
 Dipole Z            :         -0.0000000            0.0000000           -0.0000000
 Magnitude           :                                                    2.9301428

 ------------------------------------------------------------------------------------

*** tstop() called on moses-razer at Wed Jan  3 19:52:30 2024
Module time:
	user time   =      11.67 seconds =       0.19 minutes
	system time =       1.15 seconds =       0.02 minutes
	total time  =          5 seconds =       0.08 minutes
Total time:
	user time   =      30.62 seconds =       0.51 minutes
	system time =       2.66 seconds =       0.04 minutes
	total time  =         15 seconds =       0.25 minutes

*** tstart() called on moses-razer
*** at Wed Jan  3 19:52:30 2024


  //>>>>>>>>>>>>>>>>>>>>>>>>>>>>>>>>>>>//
  //               DFMP2               //
  //<<<<<<<<<<<<<<<<<<<<<<<<<<<<<<<<<<<//

   => Loading Basis Set <=

    Name: (AUG-CC-PVTZ AUX)
    Role: RIFIT
    Keyword: DF_BASIS_MP2
    atoms 1   entry LI         line    90 file /home/kchung25/anaconda3/envs/p415env/share/psi4/basis/def2-qzvpp-ri.gbs 
    atoms 2-3 entry BR         line  1248 file /home/kchung25/anaconda3/envs/p415env/share/psi4/basis/aug-cc-pvtz-ri.gbs 

	 --------------------------------------------------------
	                          DF-MP2                         
	      2nd-Order Density-Fitted Moller-Plesset Theory     
	              RMP2 Wavefunction,   6 Threads             
	                                                         
	        Rob Parrish, Justin Turney, Andy Simmonett,      
	           Ed Hohenstein, and C. David Sherrill          
	 --------------------------------------------------------

   => Auxiliary Basis Set <=

  Basis Set: (AUG-CC-PVTZ AUX)
    Blend: AUG-CC-PVTZ-RI + DEF2-QZVPP-RI
    Number of shells: 113
    Number of basis functions: 483
    Number of Cartesian functions: 652
    Spherical Harmonics?: true
    Max angular momentum: 5

	 --------------------------------------------------------
	                 NBF =   164, NAUX =   483
	 --------------------------------------------------------
	   CLASS    FOCC     OCC    AOCC    AVIR     VIR    FVIR
	   PAIRS       0      19      19     145     145       0
	 --------------------------------------------------------

	-----------------------------------------------------------
	 ==================> DF-MP2 Energies <==================== 
	-----------------------------------------------------------
	 Reference Energy          =   -2579.9994557695094954 [Eh]
	 Singles Energy            =      -0.0000000000000000 [Eh]
	 Same-Spin Energy          =      -0.0888307506118389 [Eh]
	 Opposite-Spin Energy      =      -0.2179938524742454 [Eh]
	 Correlation Energy        =      -0.3068246030860843 [Eh]
	 Total Energy              =   -2580.3062803725956655 [Eh]
	-----------------------------------------------------------
	 ================> DF-SCS-MP2 Energies <================== 
	-----------------------------------------------------------
	 SCS Same-Spin Scale       =       0.3333333333333333 [-]
	 SCS Opposite-Spin Scale   =       1.2000000000000000 [-]
	 SCS Same-Spin Energy      =      -0.0296102502039463 [Eh]
	 SCS Opposite-Spin Energy  =      -0.2615926229690944 [Eh]
	 SCS Correlation Energy    =      -0.2912028731730407 [Eh]
	 SCS Total Energy          =   -2580.2906586426825015 [Eh]
	-----------------------------------------------------------


*** tstop() called on moses-razer at Wed Jan  3 19:52:35 2024
Module time:
	user time   =       6.99 seconds =       0.12 minutes
	system time =       0.32 seconds =       0.01 minutes
	total time  =          5 seconds =       0.08 minutes
Total time:
	user time   =      37.61 seconds =       0.63 minutes
	system time =       2.98 seconds =       0.05 minutes
	total time  =         20 seconds =       0.33 minutes

    Psi4 stopped on: Wednesday, 03 January 2024 07:52PM
    Psi4 wall time for execution: 0:00:10.07


    -----------------------------------------------------------------------
          Psi4: An Open-Source Ab Initio Electronic Structure Package
                               Psi4 1.9 release

                         Git: Rev {} zzzzzzz 


    D. G. A. Smith, L. A. Burns, A. C. Simmonett, R. M. Parrish,
    M. C. Schieber, R. Galvelis, P. Kraus, H. Kruse, R. Di Remigio,
    A. Alenaizan, A. M. James, S. Lehtola, J. P. Misiewicz, M. Scheurer,
    R. A. Shaw, J. B. Schriber, Y. Xie, Z. L. Glick, D. A. Sirianni,
    J. S. O'Brien, J. M. Waldrop, A. Kumar, E. G. Hohenstein,
    B. P. Pritchard, B. R. Brooks, H. F. Schaefer III, A. Yu. Sokolov,
    K. Patkowski, A. E. DePrince III, U. Bozkaya, R. A. King,
    F. A. Evangelista, J. M. Turney, T. D. Crawford, C. D. Sherrill,
    J. Chem. Phys. 152(18) 184108 (2020). https://doi.org/10.1063/5.0006002

                            Additional Code Authors
    E. T. Seidl, C. L. Janssen, E. F. Valeev, M. L. Leininger,
    J. F. Gonthier, R. M. Richard, H. R. McAlexander, M. Saitow, X. Wang,
    P. Verma, M. H. Lechner, A. Jiang, S. Behnle, A. G. Heide,
    M. F. Herbst, and D. L. Poole

             Previous Authors, Complete List of Code Contributors,
                       and Citations for Specific Modules
    https://github.com/psi4/psi4/blob/master/codemeta.json
    https://github.com/psi4/psi4/graphs/contributors
    http://psicode.org/psi4manual/master/introduction.html#citing-psifour

    -----------------------------------------------------------------------


    Psi4 started on: Wednesday, 03 January 2024 07:52PM

    Process ID: 434717
    Host:       moses-razer
    PSIDATADIR: /home/kchung25/anaconda3/envs/psi4_19/share/psi4
    Memory:     55.9 GiB
    Threads:    6
    
  ==> Input QCSchema <==

--------------------------------------------------------------------------
{'driver': 'energy',
 'extras': {'psiapi': True, 'wfn_qcvars_only': True},
 'id': None,
 'keywords': {'SCF_TYPE': 'DF', 'function_kwargs': {}},
 'model': {'basis': 'aug-cc-pvtz', 'method': 'mp2'},
 'molecule': {'atom_labels': ['', '', ''],
              'atomic_numbers': [3, 35, 35],
              'extras': {},
              'fix_com': True,
              'fix_orientation': True,
              'fix_symmetry': 'c1',
              'fragment_charges': [0.0, -1.0],
              'fragment_multiplicities': [1, 1],
              'fragments': [[0, 1], [2]],
              'geometry': [0.0, 0.0, 0.0, 0.0, 4.102092751219572, 0.0, 8.204185502439143, 0.0, 0.0],
              'mass_numbers': [7, 79, 79],
              'masses': [7.0160034366, 78.9183376, 78.9183376],
              'molecular_charge': -1.0,
              'molecular_multiplicity': 1,
              'name': 'dimer',
              'provenance': {'creator': 'QCElemental',
                             'routine': 'qcelemental.molparse.from_string',
                             'version': '0.27.1'},
              'real': [True, True, True],
              'schema_name': 'qcschema_molecule',
              'schema_version': 2,
              'symbols': ['Li', 'Br', 'Br'],
              'validated': True},
 'protocols': {'stdout': True},
 'provenance': {'creator': 'QCElemental', 'routine': 'qcelemental.models.results', 'version': '0.27.1'},
 'schema_name': 'qcschema_input',
 'schema_version': 1}
--------------------------------------------------------------------------

Scratch directory: /scratch/
   => Libint2 <=

    Primary   basis highest AM E, G, H:  5, 4, 3
    Auxiliary basis highest AM E, G, H:  6, 5, 4
    Onebody   basis highest AM E, G, H:  6, 5, 4
    Solid Harmonics ordering:            gaussian

*** tstart() called on moses-razer
*** at Wed Jan  3 19:52:35 2024

   => Loading Basis Set <=

    Name: AUG-CC-PVTZ
    Role: ORBITAL
    Keyword: BASIS
    atoms 1   entry LI         line    85 file /home/kchung25/anaconda3/envs/p415env/share/psi4/basis/aug-cc-pvtz.gbs 
    atoms 2-3 entry BR         line  4564 file /home/kchung25/anaconda3/envs/p415env/share/psi4/basis/aug-cc-pvtz.gbs 


         ---------------------------------------------------------
                                   SCF
               by Justin Turney, Rob Parrish, Andy Simmonett
                          and Daniel G. A. Smith
                              RHF Reference
                        6 Threads,  57220 MiB Core
         ---------------------------------------------------------

  ==> Geometry <==

    Molecular point group: c1
    Full point group: Cs

    Geometry (in Bohr), charge = -1, multiplicity = 1:

       Center              X                  Y                   Z               Mass       
    ------------   -----------------  -----------------  -----------------  -----------------
         LI           0.000000000000     0.000000000000     0.000000000000     7.016003436600
         BR           0.000000000000     4.102092751220     0.000000000000    78.918337600000
         BR           8.204185502439     0.000000000000     0.000000000000    78.918337600000

  Running in c1 symmetry.

  Rotational constants: A =      0.04533  B =      0.01133  C =      0.00907 [cm^-1]
  Rotational constants: A =   1359.02064  B =    339.75516  C =    271.80413 [MHz]
  Nuclear repulsion =  171.945564682258464

  Charge       = -1
  Multiplicity = 1
  Electrons    = 74
  Nalpha       = 37
  Nbeta        = 37

  ==> Algorithm <==

  SCF Algorithm Type is DF.
  DIIS enabled.
  MOM disabled.
  Fractional occupation disabled.
  Guess Type is SAD.
  Energy threshold   = 1.00e-08
  Density threshold  = 1.00e-08
  Integral threshold = 1.00e-12

  ==> Primary Basis <==

  Basis Set: AUG-CC-PVTZ
    Blend: AUG-CC-PVTZ
    Number of shells: 52
    Number of basis functions: 164
    Number of Cartesian functions: 193
    Spherical Harmonics?: true
    Max angular momentum: 3

   => Loading Basis Set <=

    Name: (AUG-CC-PVTZ AUX)
    Role: JKFIT
    Keyword: DF_BASIS_SCF
    atoms 1   entry LI         line    54 file /home/kchung25/anaconda3/envs/p415env/share/psi4/basis/def2-universal-jkfit.gbs 
    atoms 2-3 entry BR         line  1492 file /home/kchung25/anaconda3/envs/p415env/share/psi4/basis/aug-cc-pvtz-jkfit.gbs 

  ==> Integral Setup <==

  DFHelper Memory: AOs need 0.117 GiB; user supplied 41.910 GiB. 
  Using in-core AOs.

  ==> MemDFJK: Density-Fitted J/K Matrices <==

    J tasked:                   Yes
    K tasked:                   Yes
    wK tasked:                   No
    OpenMP threads:               6
    Memory [MiB]:             42915
    Algorithm:                 Core
    Schwarz Cutoff:           1E-12
    Mask sparsity (%):       1.7698
    Fitting Condition:        1E-10

   => Auxiliary Basis Set <=

  Basis Set: (AUG-CC-PVTZ AUX)
    Blend: AUG-CC-PVTZ-JKFIT + DEF2-UNIVERSAL-JKFIT
    Number of shells: 133
    Number of basis functions: 547
    Number of Cartesian functions: 718
    Spherical Harmonics?: true
    Max angular momentum: 4

  Minimum eigenvalue in the overlap matrix is 4.4347596077E-04.
  Reciprocal condition number of the overlap matrix is 7.5970070807E-05.
    Using symmetric orthogonalization.

  ==> Pre-Iterations <==

  SCF Guess: Superposition of Atomic Densities via on-the-fly atomic UHF (no occupation information).

   -------------------------
    Irrep   Nso     Nmo    
   -------------------------
     A        164     164 
   -------------------------
    Total     164     164
   -------------------------

  ==> Iterations <==

                           Total Energy        Delta E     RMS |[F,P]|

   @DF-RHF iter SAD: -5148.27987966884575   -5.14828e+03   0.00000e+00 
   @DF-RHF iter   1: -5152.01278552056374   -3.73291e+00   9.03761e-03 DIIS/ADIIS
   @DF-RHF iter   2: -5152.41693323863365   -4.04148e-01   4.91179e-03 DIIS/ADIIS
   @DF-RHF iter   3: -5152.54317843662830   -1.26245e-01   1.17204e-04 DIIS/ADIIS
   @DF-RHF iter   4: -5152.54332463553965   -1.46199e-04   3.43642e-05 DIIS
   @DF-RHF iter   5: -5152.54333869064885   -1.40551e-05   8.53316e-06 DIIS
   @DF-RHF iter   6: -5152.54334097290666   -2.28226e-06   2.08726e-06 DIIS
   @DF-RHF iter   7: -5152.54334126632602   -2.93419e-07   5.87223e-07 DIIS
   @DF-RHF iter   8: -5152.54334128963728   -2.33113e-08   1.30449e-07 DIIS
   @DF-RHF iter   9: -5152.54334129083054   -1.19326e-09   4.11236e-08 DIIS
   @DF-RHF iter  10: -5152.54334129095150   -1.20963e-10   8.10900e-09 DIIS
  Energy and wave function converged.


  ==> Post-Iterations <==

    Orbital Energies [Eh]
    ---------------------

    Doubly Occupied:                                                      

       1A   -489.822203     2A   -489.733521     3A    -64.962836  
       4A    -64.873554     5A    -58.317314     6A    -58.317301  
       7A    -58.317225     8A    -58.228072     9A    -58.228015  
      10A    -58.227996    11A     -9.635639    12A     -9.545872  
      13A     -7.243592    14A     -7.242954    15A     -7.242726  
      16A     -7.153426    17A     -7.153146    18A     -7.153044  
      19A     -2.985266    20A     -2.985034    21A     -2.984757  
      22A     -2.984170    23A     -2.984138    24A     -2.895168  
      25A     -2.895082    26A     -2.894955    27A     -2.894596  
      28A     -2.894586    29A     -2.373788    30A     -0.799860  
      31A     -0.698790    32A     -0.272613    33A     -0.244136  
      34A     -0.242130    35A     -0.153007    36A     -0.151771  
      37A     -0.150975  

    Virtual:                                                              

      38A      0.065529    39A      0.085400    40A      0.085859  
      41A      0.098172    42A      0.113210    43A      0.138499  
      44A      0.146082    45A      0.161955    46A      0.195631  
      47A      0.204793    48A      0.213008    49A      0.224829  
      50A      0.227294    51A      0.230812    52A      0.233351  
      53A      0.239781    54A      0.249238    55A      0.253089  
      56A      0.263665    57A      0.264854    58A      0.265288  
      59A      0.284919    60A      0.321404    61A      0.367305  
      62A      0.391001    63A      0.401381    64A      0.411379  
      65A      0.419586    66A      0.422673    67A      0.427277  
      68A      0.429168    69A      0.433370    70A      0.442567  
      71A      0.452032    72A      0.467466    73A      0.474856  
      74A      0.486856    75A      0.487914    76A      0.498413  
      77A      0.500696    78A      0.511562    79A      0.526399  
      80A      0.527386    81A      0.554322    82A      0.565070  
      83A      0.578345    84A      0.582964    85A      0.599714  
      86A      0.643390    87A      0.673843    88A      0.746081  
      89A      0.754632    90A      0.815751    91A      0.820022  
      92A      0.821168    93A      0.836593    94A      0.853401  
      95A      0.867121    96A      0.877484    97A      0.885093  
      98A      0.898869    99A      0.905034   100A      0.910456  
     101A      0.917944   102A      0.918830   103A      0.924840  
     104A      0.931269   105A      0.946220   106A      1.029926  
     107A      1.030951   108A      1.042075   109A      1.053037  
     110A      1.056637   111A      1.064240   112A      1.075407  
     113A      1.114536   114A      1.144635   115A      1.162927  
     116A      1.191452   117A      1.194829   118A      1.198126  
     119A      1.200081   120A      1.208767   121A      1.210931  
     122A      1.214680   123A      1.243509   124A      1.280868  
     125A      1.288003   126A      1.293697   127A      1.298237  
     128A      1.365412   129A      1.453689   130A      1.482621  
     131A      1.612377   132A      2.407883   133A      2.412988  
     134A      2.438232   135A      2.457217   136A      2.467068  
     137A      2.500350   138A      2.501204   139A      2.505220  
     140A      2.527812   141A      2.529041   142A      2.550141  
     143A      2.559064   144A      2.561447   145A      2.565779  
     146A      2.566638   147A      2.574550   148A      2.574690  
     149A      2.579929   150A      2.582374   151A      2.587042  
     152A      2.587045   153A      2.613072   154A      2.621036  
     155A      2.637211   156A      2.652425   157A      2.668287  
     158A      2.694990   159A      2.705355   160A      2.741846  
     161A      2.840399   162A      3.559473   163A      3.977548  
     164A      4.658434  

    Final Occupation by Irrep:
              A 
    DOCC [    37 ]
    NA   [    37 ]
    NB   [    37 ]

  @DF-RHF Final Energy: -5152.54334129095150

   => Energetics <=

    Nuclear Repulsion Energy =            171.9455646822584640
    One-Electron Energy =               -7537.2113005284618339
    Two-Electron Energy =                2212.7223945552527766
    Total Energy =                      -5152.5433412909515027

Computation Completed


Properties will be evaluated at   0.000000,   0.000000,   0.000000 [a0]

Properties computed using the SCF density matrix


 Multipole Moments:

 ------------------------------------------------------------------------------------
     Multipole            Electronic (a.u.)      Nuclear  (a.u.)        Total (a.u.)
 ------------------------------------------------------------------------------------

 L = 1.  Multiply by 2.5417464519 to convert [e a0] to [Debye]
 Dipole X            :       -294.8441203          287.1464926           -7.6976277
 Dipole Y            :       -146.5051849          143.5732463           -2.9319386
 Dipole Z            :         -0.0000000            0.0000000           -0.0000000
 Magnitude           :                                                    8.2370951

 ------------------------------------------------------------------------------------

*** tstop() called on moses-razer at Wed Jan  3 19:52:40 2024
Module time:
	user time   =      12.24 seconds =       0.20 minutes
	system time =       1.05 seconds =       0.02 minutes
	total time  =          5 seconds =       0.08 minutes
Total time:
	user time   =      50.07 seconds =       0.83 minutes
	system time =       4.04 seconds =       0.07 minutes
	total time  =         25 seconds =       0.42 minutes

*** tstart() called on moses-razer
*** at Wed Jan  3 19:52:40 2024


  //>>>>>>>>>>>>>>>>>>>>>>>>>>>>>>>>>>>//
  //               DFMP2               //
  //<<<<<<<<<<<<<<<<<<<<<<<<<<<<<<<<<<<//

   => Loading Basis Set <=

    Name: (AUG-CC-PVTZ AUX)
    Role: RIFIT
    Keyword: DF_BASIS_MP2
    atoms 1   entry LI         line    90 file /home/kchung25/anaconda3/envs/p415env/share/psi4/basis/def2-qzvpp-ri.gbs 
    atoms 2-3 entry BR         line  1248 file /home/kchung25/anaconda3/envs/p415env/share/psi4/basis/aug-cc-pvtz-ri.gbs 

	 --------------------------------------------------------
	                          DF-MP2                         
	      2nd-Order Density-Fitted Moller-Plesset Theory     
	              RMP2 Wavefunction,   6 Threads             
	                                                         
	        Rob Parrish, Justin Turney, Andy Simmonett,      
	           Ed Hohenstein, and C. David Sherrill          
	 --------------------------------------------------------

   => Auxiliary Basis Set <=

  Basis Set: (AUG-CC-PVTZ AUX)
    Blend: AUG-CC-PVTZ-RI + DEF2-QZVPP-RI
    Number of shells: 113
    Number of basis functions: 483
    Number of Cartesian functions: 652
    Spherical Harmonics?: true
    Max angular momentum: 5

	 --------------------------------------------------------
	                 NBF =   164, NAUX =   483
	 --------------------------------------------------------
	   CLASS    FOCC     OCC    AOCC    AVIR     VIR    FVIR
	   PAIRS       0      37      37     127     127       0
	 --------------------------------------------------------

	-----------------------------------------------------------
	 ==================> DF-MP2 Energies <==================== 
	-----------------------------------------------------------
	 Reference Energy          =   -5152.5433412909515027 [Eh]
	 Singles Energy            =      -0.0000000000000000 [Eh]
	 Same-Spin Energy          =      -0.1764699353222029 [Eh]
	 Opposite-Spin Energy      =      -0.4204193749018941 [Eh]
	 Correlation Energy        =      -0.5968893102240971 [Eh]
	 Total Energy              =   -5153.1402306011759720 [Eh]
	-----------------------------------------------------------
	 ================> DF-SCS-MP2 Energies <================== 
	-----------------------------------------------------------
	 SCS Same-Spin Scale       =       0.3333333333333333 [-]
	 SCS Opposite-Spin Scale   =       1.2000000000000000 [-]
	 SCS Same-Spin Energy      =      -0.0588233117740676 [Eh]
	 SCS Opposite-Spin Energy  =      -0.5045032498822729 [Eh]
	 SCS Correlation Energy    =      -0.5633265616563405 [Eh]
	 SCS Total Energy          =   -5153.1066678526076430 [Eh]
	-----------------------------------------------------------


*** tstop() called on moses-razer at Wed Jan  3 19:52:45 2024
Module time:
	user time   =       7.37 seconds =       0.12 minutes
	system time =       0.34 seconds =       0.01 minutes
	total time  =          5 seconds =       0.08 minutes
Total time:
	user time   =      57.45 seconds =       0.96 minutes
	system time =       4.38 seconds =       0.07 minutes
	total time  =         30 seconds =       0.50 minutes

    Psi4 stopped on: Wednesday, 03 January 2024 07:52PM
    Psi4 wall time for execution: 0:00:10.21


  //>>>>>>>>>>>>>>>>>>>>>>>>>>>>>>>>>>>//
  //          ManyBody Results         //
  //<<<<<<<<<<<<<<<<<<<<<<<<<<<<<<<<<<<//


   ==> N-Body: Counterpoise Corrected (CP) energies <==

        n-Body     Total Energy            Interaction Energy                          N-body Contribution to Interaction Energy
                   [Eh]                    [Eh]                  [kcal/mol]            [Eh]                  [kcal/mol]
             1  N/A                         0.000000000000        0.000000000000        0.000000000000        0.000000000000
  FULL/RTN   2  N/A                        -0.011325783861       -7.107036670821       -0.011325783861       -7.107036670821


    Psi4 stopped on: Wednesday, 03 January 2024 07:52PM
    Psi4 wall time for execution: 0:00:31.95

*** Psi4 exiting successfully. Buy a developer a beer!
