
    -----------------------------------------------------------------------
          Psi4: An Open-Source Ab Initio Electronic Structure Package
                               Psi4 1.8.2 release

                         Git: Rev {} zzzzzzz 


    D. G. A. Smith, L. A. Burns, A. C. Simmonett, R. M. Parrish,
    M. C. Schieber, R. Galvelis, P. Kraus, H. Kruse, R. Di Remigio,
    A. Alenaizan, A. M. James, S. Lehtola, J. P. Misiewicz, M. Scheurer,
    R. A. Shaw, J. B. Schriber, Y. Xie, Z. L. Glick, D. A. Sirianni,
    J. S. O'Brien, J. M. Waldrop, A. Kumar, E. G. Hohenstein,
    B. P. Pritchard, B. R. Brooks, H. F. Schaefer III, A. Yu. Sokolov,
    K. Patkowski, A. E. DePrince III, U. Bozkaya, R. A. King,
    F. A. Evangelista, J. M. Turney, T. D. Crawford, C. D. Sherrill,
    J. Chem. Phys. 152(18) 184108 (2020). https://doi.org/10.1063/5.0006002

                            Additional Code Authors
    E. T. Seidl, C. L. Janssen, E. F. Valeev, M. L. Leininger,
    J. F. Gonthier, R. M. Richard, H. R. McAlexander, M. Saitow, X. Wang,
    P. Verma, M. H. Lechner, A. Jiang, S. Behnle, A. G. Heide,
    M. F. Herbst, and D. L. Poole

             Previous Authors, Complete List of Code Contributors,
                       and Citations for Specific Modules
    https://github.com/psi4/psi4/blob/master/codemeta.json
    https://github.com/psi4/psi4/graphs/contributors
    http://psicode.org/psi4manual/master/introduction.html#citing-psifour

    -----------------------------------------------------------------------


    Psi4 started on: Monday, 22 January 2024 11:43AM

    Process ID: 43759
    Host:       ddmfs1
    PSIDATADIR: /ddmfs1b/softs/psi4conda/share/psi4
    Memory:     500.0 MiB
    Threads:    20
    
  ==> Input File <==

--------------------------------------------------------------------------
MEMORY 60 GB

molecule dimer {
-1 1
Li         0.000000     0.000000     0.000000
Br         0.000000     2.170734     0.000000
Br         2.387807     0.000000     0.000000

units ang
no_reorient
no_com
symmetry c1
}

set {
basis        aug-cc-pVTZ
scf_type     df
}

energy("mp2")
--------------------------------------------------------------------------

  Memory set to  55.879 GiB by Python driver.

Scratch directory: /ddmfs1a/scratch/
   => Libint2 <=

    Primary   basis highest AM E, G, H:  5, 4, 3
    Auxiliary basis highest AM E, G, H:  6, 5, 4
    Onebody   basis highest AM E, G, H:  6, 5, 4
    Solid Harmonics ordering:            gaussian

*** tstart() called on ddmfs1
*** at Mon Jan 22 11:43:00 2024

   => Loading Basis Set <=

    Name: AUG-CC-PVTZ
    Role: ORBITAL
    Keyword: BASIS
    atoms 1   entry LI         line    85 file /ddmfs1b/softs/psi4conda/share/psi4/basis/aug-cc-pvtz.gbs 
    atoms 2-3 entry BR         line  4208 file /ddmfs1b/softs/psi4conda/share/psi4/basis/aug-cc-pvtz.gbs 


         ---------------------------------------------------------
                                   SCF
               by Justin Turney, Rob Parrish, Andy Simmonett
                          and Daniel G. A. Smith
                              RHF Reference
                       20 Threads,  57220 MiB Core
         ---------------------------------------------------------

  ==> Geometry <==

    Molecular point group: c1
    Full point group: Cs

    Geometry (in Angstrom), charge = -1, multiplicity = 1:

       Center              X                  Y                   Z               Mass       
    ------------   -----------------  -----------------  -----------------  -----------------
         LI           0.000000000000     0.000000000000     0.000000000000     7.016003436600
         BR           0.000000000000     2.170734000000     0.000000000000    78.918337600000
         BR           2.387807000000     0.000000000000     0.000000000000    78.918337600000

  Running in c1 symmetry.

  Rotational constants: A =      0.04533  B =      0.03746  C =      0.02051 [cm^-1]
  Rotational constants: A =   1359.02064  B =   1123.15793  C =    614.94158 [MHz]
  Nuclear repulsion =  249.745403578086098

  Charge       = -1
  Multiplicity = 1
  Electrons    = 74
  Nalpha       = 37
  Nbeta        = 37

  ==> Algorithm <==

  SCF Algorithm Type is DF.
  DIIS enabled.
  MOM disabled.
  Fractional occupation disabled.
  Guess Type is SAD.
  Energy threshold   = 1.00e-08
  Density threshold  = 1.00e-08
  Integral threshold = 1.00e-12

  ==> Primary Basis <==

  Basis Set: AUG-CC-PVTZ
    Blend: AUG-CC-PVTZ
    Number of shells: 52
    Number of basis functions: 164
    Number of Cartesian functions: 193
    Spherical Harmonics?: true
    Max angular momentum: 3

   => Loading Basis Set <=

    Name: (AUG-CC-PVTZ AUX)
    Role: JKFIT
    Keyword: DF_BASIS_SCF
    atoms 1   entry LI         line    54 file /ddmfs1b/softs/psi4conda/share/psi4/basis/def2-universal-jkfit.gbs 
    atoms 2-3 entry BR         line  1492 file /ddmfs1b/softs/psi4conda/share/psi4/basis/aug-cc-pvtz-jkfit.gbs 

  ==> Integral Setup <==

  DFHelper Memory: AOs need 0.121 GiB; user supplied 41.910 GiB. 
  Using in-core AOs.

  ==> MemDFJK: Density-Fitted J/K Matrices <==

    J tasked:                   Yes
    K tasked:                   Yes
    wK tasked:                   No
    OpenMP threads:              20
    Memory [MiB]:             42915
    Algorithm:                 Core
    Schwarz Cutoff:           1E-12
    Mask sparsity (%):       0.1636
    Fitting Condition:        1E-10

   => Auxiliary Basis Set <=

  Basis Set: (AUG-CC-PVTZ AUX)
    Blend: AUG-CC-PVTZ-JKFIT + DEF2-UNIVERSAL-JKFIT
    Number of shells: 133
    Number of basis functions: 547
    Number of Cartesian functions: 718
    Spherical Harmonics?: true
    Max angular momentum: 4

  Minimum eigenvalue in the overlap matrix is 2.7006531910E-04.
  Reciprocal condition number of the overlap matrix is 3.9454771277E-05.
    Using symmetric orthogonalization.

  ==> Pre-Iterations <==

  SCF Guess: Superposition of Atomic Densities via on-the-fly atomic UHF (no occupation information).

   -------------------------
    Irrep   Nso     Nmo    
   -------------------------
     A        164     164 
   -------------------------
    Total     164     164
   -------------------------

  ==> Iterations <==

                           Total Energy        Delta E     RMS |[F,P]|

   @DF-RHF iter SAD: -5148.39317488957568   -5.14839e+03   0.00000e+00 
   @DF-RHF iter   1: -5152.02899273812272   -3.63582e+00   9.10136e-03 DIIS/ADIIS
   @DF-RHF iter   2: -5152.43117447778150   -4.02182e-01   4.92470e-03 DIIS/ADIIS
   @DF-RHF iter   3: -5152.55807230152823   -1.26898e-01   1.35129e-04 DIIS/ADIIS
   @DF-RHF iter   4: -5152.55832204021954   -2.49739e-04   3.54896e-05 DIIS
   @DF-RHF iter   5: -5152.55834840022726   -2.63600e-05   9.61568e-06 DIIS
   @DF-RHF iter   6: -5152.55835175212633   -3.35190e-06   1.98908e-06 DIIS
   @DF-RHF iter   7: -5152.55835197870329   -2.26577e-07   4.56497e-07 DIIS
   @DF-RHF iter   8: -5152.55835198457862   -5.87534e-09   1.44461e-07 DIIS
   @DF-RHF iter   9: -5152.55835198579916   -1.22054e-09   3.12945e-08 DIIS
   @DF-RHF iter  10: -5152.55835198585919   -6.00267e-11   7.06706e-09 DIIS
  Energy and wave function converged.


  ==> Post-Iterations <==

    Orbital Energies [Eh]
    ---------------------

    Doubly Occupied:                                                      

       1A   -489.768295     2A   -489.760698     3A    -64.909287  
       4A    -64.901262     5A    -58.263745     6A    -58.263732  
       7A    -58.263578     8A    -58.255781     9A    -58.255708  
      10A    -58.255596    11A     -9.582458    12A     -9.574023  
      13A     -7.190420    14A     -7.189895    15A     -7.189429  
      16A     -7.182004    17A     -7.181356    18A     -7.180925  
      19A     -2.932224    20A     -2.932111    21A     -2.931397  
      22A     -2.930848    23A     -2.930719    24A     -2.923882  
      25A     -2.923721    26A     -2.923072    27A     -2.922273  
      28A     -2.922195    29A     -2.279881    30A     -0.755271  
      31A     -0.731320    32A     -0.243463    33A     -0.210611  
      34A     -0.203656    35A     -0.194955    36A     -0.175888  
      37A     -0.144241  

    Virtual:                                                              

      38A      0.079336    39A      0.089782    40A      0.092266  
      41A      0.100989    42A      0.134487    43A      0.161882  
      44A      0.165936    45A      0.184686    46A      0.205330  
      47A      0.225927    48A      0.232929    49A      0.237589  
      50A      0.242727    51A      0.246262    52A      0.251603  
      53A      0.253014    54A      0.260056    55A      0.265556  
      56A      0.269596    57A      0.288191    58A      0.305209  
      59A      0.335458    60A      0.371950    61A      0.407281  
      62A      0.418597    63A      0.446444    64A      0.456215  
      65A      0.457136    66A      0.470584    67A      0.472907  
      68A      0.474653    69A      0.477202    70A      0.492547  
      71A      0.502850    72A      0.507719    73A      0.521079  
      74A      0.523810    75A      0.536413    76A      0.539448  
      77A      0.557131    78A      0.562291    79A      0.567622  
      80A      0.575206    81A      0.578169    82A      0.590921  
      83A      0.603060    84A      0.650290    85A      0.672146  
      86A      0.731127    87A      0.736162    88A      0.820756  
      89A      0.844498    90A      0.851913    91A      0.864650  
      92A      0.868369    93A      0.889730    94A      0.907401  
      95A      0.914022    96A      0.916502    97A      0.929963  
      98A      0.932249    99A      0.947723   100A      0.962065  
     101A      0.968784   102A      0.970607   103A      0.976130  
     104A      0.981740   105A      0.986212   106A      1.034684  
     107A      1.053143   108A      1.087856   109A      1.122708  
     110A      1.140918   111A      1.164449   112A      1.182767  
     113A      1.213027   114A      1.221507   115A      1.226183  
     116A      1.245370   117A      1.258521   118A      1.273282  
     119A      1.308876   120A      1.343076   121A      1.356324  
     122A      1.377264   123A      1.431621   124A      1.436567  
     125A      1.474060   126A      1.476671   127A      1.537999  
     128A      1.556904   129A      1.663187   130A      1.678879  
     131A      1.735525   132A      2.467036   133A      2.484007  
     134A      2.485467   135A      2.502735   136A      2.541532  
     137A      2.543907   138A      2.553714   139A      2.560258  
     140A      2.570103   141A      2.573103   142A      2.576751  
     143A      2.580867   144A      2.589654   145A      2.597842  
     146A      2.623431   147A      2.641383   148A      2.647610  
     149A      2.663448   150A      2.682920   151A      2.689399  
     152A      2.710572   153A      2.722228   154A      2.723819  
     155A      2.749915   156A      2.779992   157A      2.799466  
     158A      2.827738   159A      2.863578   160A      2.955617  
     161A      2.975679   162A      3.748581   163A      4.581131  
     164A      5.200246  

    Final Occupation by Irrep:
              A 
    DOCC [    37 ]
    NA   [    37 ]
    NB   [    37 ]

  @DF-RHF Final Energy: -5152.55835198585919

   => Energetics <=

    Nuclear Repulsion Energy =            249.7454035780860977
    One-Electron Energy =               -7693.8476584911722966
    Two-Electron Energy =                2291.5439029272274638
    Total Energy =                      -5152.5583519858591899

Computation Completed


Properties will be evaluated at   0.000000,   0.000000,   0.000000 [a0]

Properties computed using the SCF density matrix


 Multipole Moments:

 ------------------------------------------------------------------------------------
     Multipole            Electronic (a.u.)      Nuclear  (a.u.)        Total (a.u.)
 ------------------------------------------------------------------------------------

 L = 1.  Multiply by 2.5417464519 to convert [e a0] to [Debye]
 Dipole X            :       -161.3810773          157.9305445           -3.4505328
 Dipole Y            :       -146.5890211          143.5732463           -3.0157748
 Dipole Z            :         -0.0000000            0.0000000           -0.0000000
 Magnitude           :                                                    4.5826930

 ------------------------------------------------------------------------------------

*** tstop() called on ddmfs1 at Mon Jan 22 11:43:07 2024
Module time:
	user time   =      44.73 seconds =       0.75 minutes
	system time =       7.18 seconds =       0.12 minutes
	total time  =          7 seconds =       0.12 minutes
Total time:
	user time   =      44.73 seconds =       0.75 minutes
	system time =       7.18 seconds =       0.12 minutes
	total time  =          7 seconds =       0.12 minutes

*** tstart() called on ddmfs1
*** at Mon Jan 22 11:43:07 2024


  //>>>>>>>>>>>>>>>>>>>>>>>>>>>>>>>>>>>//
  //               DFMP2               //
  //<<<<<<<<<<<<<<<<<<<<<<<<<<<<<<<<<<<//

   => Loading Basis Set <=

    Name: (AUG-CC-PVTZ AUX)
    Role: RIFIT
    Keyword: DF_BASIS_MP2
    atoms 1   entry LI         line    90 file /ddmfs1b/softs/psi4conda/share/psi4/basis/def2-qzvpp-ri.gbs 
    atoms 2-3 entry BR         line  1248 file /ddmfs1b/softs/psi4conda/share/psi4/basis/aug-cc-pvtz-ri.gbs 

	 --------------------------------------------------------
	                          DF-MP2                         
	      2nd-Order Density-Fitted Moller-Plesset Theory     
	              RMP2 Wavefunction,  20 Threads             
	                                                         
	        Rob Parrish, Justin Turney, Andy Simmonett,      
	           Ed Hohenstein, and C. David Sherrill          
	 --------------------------------------------------------

   => Auxiliary Basis Set <=

  Basis Set: (AUG-CC-PVTZ AUX)
    Blend: AUG-CC-PVTZ-RI + DEF2-QZVPP-RI
    Number of shells: 113
    Number of basis functions: 483
    Number of Cartesian functions: 652
    Spherical Harmonics?: true
    Max angular momentum: 5

	 --------------------------------------------------------
	                 NBF =   164, NAUX =   483
	 --------------------------------------------------------
	   CLASS    FOCC     OCC    AOCC    AVIR     VIR    FVIR
	   PAIRS       0      37      37     127     127       0
	 --------------------------------------------------------

	-----------------------------------------------------------
	 ==================> DF-MP2 Energies <==================== 
	-----------------------------------------------------------
	 Reference Energy          =   -5152.5583519858591899 [Eh]
	 Singles Energy            =      -0.0000000000000000 [Eh]
	 Same-Spin Energy          =      -0.1821413967242431 [Eh]
	 Opposite-Spin Energy      =      -0.4289736507065310 [Eh]
	 Correlation Energy        =      -0.6111150474307740 [Eh]
	 Total Energy              =   -5153.1694670332899477 [Eh]
	-----------------------------------------------------------
	 ================> DF-SCS-MP2 Energies <================== 
	-----------------------------------------------------------
	 SCS Same-Spin Scale       =       0.3333333333333333 [-]
	 SCS Opposite-Spin Scale   =       1.2000000000000000 [-]
	 SCS Same-Spin Energy      =      -0.0607137989080810 [Eh]
	 SCS Opposite-Spin Energy  =      -0.5147683808478372 [Eh]
	 SCS Correlation Energy    =      -0.5754821797559182 [Eh]
	 SCS Total Energy          =   -5153.1338341656155535 [Eh]
	-----------------------------------------------------------


*** tstop() called on ddmfs1 at Mon Jan 22 11:43:24 2024
Module time:
	user time   =      26.05 seconds =       0.43 minutes
	system time =       1.52 seconds =       0.03 minutes
	total time  =         17 seconds =       0.28 minutes
Total time:
	user time   =      70.80 seconds =       1.18 minutes
	system time =       8.70 seconds =       0.15 minutes
	total time  =         24 seconds =       0.40 minutes

    Psi4 stopped on: Monday, 22 January 2024 11:43AM
    Psi4 wall time for execution: 0:00:23.73

*** Psi4 exiting successfully. Buy a developer a beer!
