
    -----------------------------------------------------------------------
          Psi4: An Open-Source Ab Initio Electronic Structure Package
                               Psi4 1.8.2 release

                         Git: Rev {} zzzzzzz 


    D. G. A. Smith, L. A. Burns, A. C. Simmonett, R. M. Parrish,
    M. C. Schieber, R. Galvelis, P. Kraus, H. Kruse, R. Di Remigio,
    A. Alenaizan, A. M. James, S. Lehtola, J. P. Misiewicz, M. Scheurer,
    R. A. Shaw, J. B. Schriber, Y. Xie, Z. L. Glick, D. A. Sirianni,
    J. S. O'Brien, J. M. Waldrop, A. Kumar, E. G. Hohenstein,
    B. P. Pritchard, B. R. Brooks, H. F. Schaefer III, A. Yu. Sokolov,
    K. Patkowski, A. E. DePrince III, U. Bozkaya, R. A. King,
    F. A. Evangelista, J. M. Turney, T. D. Crawford, C. D. Sherrill,
    J. Chem. Phys. 152(18) 184108 (2020). https://doi.org/10.1063/5.0006002

                            Additional Code Authors
    E. T. Seidl, C. L. Janssen, E. F. Valeev, M. L. Leininger,
    J. F. Gonthier, R. M. Richard, H. R. McAlexander, M. Saitow, X. Wang,
    P. Verma, M. H. Lechner, A. Jiang, S. Behnle, A. G. Heide,
    M. F. Herbst, and D. L. Poole

             Previous Authors, Complete List of Code Contributors,
                       and Citations for Specific Modules
    https://github.com/psi4/psi4/blob/master/codemeta.json
    https://github.com/psi4/psi4/graphs/contributors
    http://psicode.org/psi4manual/master/introduction.html#citing-psifour

    -----------------------------------------------------------------------


    Psi4 started on: Monday, 22 January 2024 11:41AM

    Process ID: 43693
    Host:       ddmfs1
    PSIDATADIR: /ddmfs1b/softs/psi4conda/share/psi4
    Memory:     500.0 MiB
    Threads:    20
    
  ==> Input File <==

--------------------------------------------------------------------------
MEMORY 60 GB

molecule dimer {
1 1
Li         0.000000     0.000000     0.000000
Gh(Br)     0.000000     2.170734     0.000000
Gh(Br)     2.387807     0.000000     0.000000

units ang
no_reorient
no_com
symmetry c1
}

set {
basis        aug-cc-pVTZ
scf_type     df
}

energy("mp2")
--------------------------------------------------------------------------

  Memory set to  55.879 GiB by Python driver.

Scratch directory: /ddmfs1a/scratch/
   => Libint2 <=

    Primary   basis highest AM E, G, H:  5, 4, 3
    Auxiliary basis highest AM E, G, H:  6, 5, 4
    Onebody   basis highest AM E, G, H:  6, 5, 4
    Solid Harmonics ordering:            gaussian

*** tstart() called on ddmfs1
*** at Mon Jan 22 11:41:50 2024

   => Loading Basis Set <=

    Name: AUG-CC-PVTZ
    Role: ORBITAL
    Keyword: BASIS
    atoms 1   entry LI         line    85 file /ddmfs1b/softs/psi4conda/share/psi4/basis/aug-cc-pvtz.gbs 
    atoms 2-3 entry BR         line  4208 file /ddmfs1b/softs/psi4conda/share/psi4/basis/aug-cc-pvtz.gbs 


         ---------------------------------------------------------
                                   SCF
               by Justin Turney, Rob Parrish, Andy Simmonett
                          and Daniel G. A. Smith
                              RHF Reference
                       20 Threads,  57220 MiB Core
         ---------------------------------------------------------

  ==> Geometry <==

    Molecular point group: c1
    Full point group: Cs

    Geometry (in Angstrom), charge = 1, multiplicity = 1:

       Center              X                  Y                   Z               Mass       
    ------------   -----------------  -----------------  -----------------  -----------------
         LI           0.000000000000     0.000000000000     0.000000000000     7.016003436600
      Gh(BR)          0.000000000000     2.170734000000     0.000000000000    78.918337600000
      Gh(BR)          2.387807000000     0.000000000000     0.000000000000    78.918337600000

  Running in c1 symmetry.

  Rotational constants: A =      0.04533  B =      0.03746  C =      0.02051 [cm^-1]
  Rotational constants: A =   1359.02064  B =   1123.15793  C =    614.94158 [MHz]
  Nuclear repulsion =    0.000000000000000

  Charge       = 1
  Multiplicity = 1
  Electrons    = 2
  Nalpha       = 1
  Nbeta        = 1

  ==> Algorithm <==

  SCF Algorithm Type is DF.
  DIIS enabled.
  MOM disabled.
  Fractional occupation disabled.
  Guess Type is SAD.
  Energy threshold   = 1.00e-08
  Density threshold  = 1.00e-08
  Integral threshold = 1.00e-12

  ==> Primary Basis <==

  Basis Set: AUG-CC-PVTZ
    Blend: AUG-CC-PVTZ
    Number of shells: 52
    Number of basis functions: 164
    Number of Cartesian functions: 193
    Spherical Harmonics?: true
    Max angular momentum: 3

   => Loading Basis Set <=

    Name: (AUG-CC-PVTZ AUX)
    Role: JKFIT
    Keyword: DF_BASIS_SCF
    atoms 1   entry LI         line    54 file /ddmfs1b/softs/psi4conda/share/psi4/basis/def2-universal-jkfit.gbs 
    atoms 2-3 entry BR         line  1492 file /ddmfs1b/softs/psi4conda/share/psi4/basis/aug-cc-pvtz-jkfit.gbs 

  ==> Integral Setup <==

  DFHelper Memory: AOs need 0.121 GiB; user supplied 41.910 GiB. 
  Using in-core AOs.

  ==> MemDFJK: Density-Fitted J/K Matrices <==

    J tasked:                   Yes
    K tasked:                   Yes
    wK tasked:                   No
    OpenMP threads:              20
    Memory [MiB]:             42915
    Algorithm:                 Core
    Schwarz Cutoff:           1E-12
    Mask sparsity (%):       0.1636
    Fitting Condition:        1E-10

   => Auxiliary Basis Set <=

  Basis Set: (AUG-CC-PVTZ AUX)
    Blend: AUG-CC-PVTZ-JKFIT + DEF2-UNIVERSAL-JKFIT
    Number of shells: 133
    Number of basis functions: 547
    Number of Cartesian functions: 718
    Spherical Harmonics?: true
    Max angular momentum: 4

  Minimum eigenvalue in the overlap matrix is 2.7006531910E-04.
  Reciprocal condition number of the overlap matrix is 3.9454771277E-05.
    Using symmetric orthogonalization.

  ==> Pre-Iterations <==

  SCF Guess: Superposition of Atomic Densities via on-the-fly atomic UHF (no occupation information).

   -------------------------
    Irrep   Nso     Nmo    
   -------------------------
     A        164     164 
   -------------------------
    Total     164     164
   -------------------------

  ==> Iterations <==

                           Total Energy        Delta E     RMS |[F,P]|

   @DF-RHF iter SAD:    -7.31444579135189   -7.31445e+00   0.00000e+00 
   @DF-RHF iter   1:    -7.23638141195701    7.80644e-02   1.38094e-05 DIIS
   @DF-RHF iter   2:    -7.23638327495034   -1.86299e-06   1.56848e-06 DIIS
   @DF-RHF iter   3:    -7.23638330285281   -2.79025e-08   7.62786e-08 DIIS
   @DF-RHF iter   4:    -7.23638330290521   -5.24008e-11   6.27654e-10 DIIS
  Energy and wave function converged.


  ==> Post-Iterations <==

    Orbital Energies [Eh]
    ---------------------

    Doubly Occupied:                                                      

       1A     -2.792369  

    Virtual:                                                              

       2A     -0.196298     3A     -0.128601     4A     -0.128600  
       5A     -0.128595     6A     -0.073706     7A     -0.056390  
       8A     -0.056379     9A     -0.056351    10A     -0.043246  
      11A     -0.041135    12A     -0.037766    13A     -0.036870  
      14A     -0.036291    15A     -0.015909    16A     -0.009922  
      17A     -0.006030    18A     -0.004713    19A      0.013268  
      20A      0.019338    21A      0.019495    22A      0.025347  
      23A      0.026817    24A      0.036190    25A      0.069257  
      26A      0.079299    27A      0.113587    28A      0.119763  
      29A      0.122345    30A      0.124756    31A      0.134180  
      32A      0.135840    33A      0.163566    34A      0.166524  
      35A      0.173709    36A      0.176104    37A      0.184965  
      38A      0.195072    39A      0.211974    40A      0.221115  
      41A      0.235851    42A      0.237163    43A      0.247206  
      44A      0.247362    45A      0.254449    46A      0.264992  
      47A      0.267650    48A      0.278032    49A      0.281043  
      50A      0.291078    51A      0.307436    52A      0.337978  
      53A      0.363469    54A      0.385363    55A      0.400349  
      56A      0.421412    57A      0.448271    58A      0.508228  
      59A      0.524381    60A      0.531922    61A      0.556786  
      62A      0.560463    63A      0.561730    64A      0.577834  
      65A      0.583068    66A      0.590088    67A      0.590388  
      68A      0.607107    69A      0.615527    70A      0.658941  
      71A      0.725327    72A      0.821437    73A      0.825305  
      74A      0.891479    75A      0.898154    76A      0.910253  
      77A      0.913198    78A      0.917676    79A      0.936513  
      80A      0.945172    81A      0.963888    82A      0.976593  
      83A      0.985030    84A      0.994788    85A      1.012350  
      86A      1.022063    87A      1.044135    88A      1.051765  
      89A      1.078705    90A      1.106426    91A      1.138825  
      92A      1.152717    93A      1.156453    94A      1.175267  
      95A      1.184690    96A      1.213619    97A      1.229825  
      98A      1.249103    99A      1.263923   100A      1.264984  
     101A      1.403696   102A      1.446194   103A      1.490989  
     104A      2.746770   105A      2.756684   106A      2.766352  
     107A      2.799341   108A      2.811040   109A      2.849245  
     110A      2.853445   111A      2.912882   112A      2.942567  
     113A      2.954649   114A      2.971136   115A      2.983620  
     116A      2.996654   117A      3.019211   118A      3.020769  
     119A      3.056226   120A      3.096900   121A      3.118507  
     122A      3.123921   123A      3.126791   124A      3.134711  
     125A      3.145421   126A      3.147202   127A      3.169227  
     128A      3.186041   129A      3.214605   130A      3.217708  
     131A      3.227070   132A      3.248802   133A      3.293386  
     134A      3.321815   135A      3.488728   136A      3.660266  
     137A      9.650311   138A     10.273866   139A     13.347289  
     140A     13.368852   141A     13.371823   142A     13.439633  
     143A     13.547757   144A     13.569876   145A     25.937687  
     146A     25.948986   147A     25.958356   148A     25.989334  
     149A     26.031111   150A     26.041500   151A     26.051182  
     152A     26.079303   153A     26.088770   154A     26.147465  
     155A     45.507940   156A     45.978281   157A    138.360497  
     158A    138.401775   159A    138.412335   160A    138.517906  
     161A    138.674538   162A    138.727432   163A    709.131933  
     164A    710.486613  

    Final Occupation by Irrep:
              A 
    DOCC [     1 ]
    NA   [     1 ]
    NB   [     1 ]

  @DF-RHF Final Energy:    -7.23638330290521

   => Energetics <=

    Nuclear Repulsion Energy =              0.0000000000000000
    One-Electron Energy =                  -8.8880281107642247
    Two-Electron Energy =                   1.6516448078590111
    Total Energy =                         -7.2363833029052138

Computation Completed


Properties will be evaluated at   0.000000,   0.000000,   0.000000 [a0]

Properties computed using the SCF density matrix


 Multipole Moments:

 ------------------------------------------------------------------------------------
     Multipole            Electronic (a.u.)      Nuclear  (a.u.)        Total (a.u.)
 ------------------------------------------------------------------------------------

 L = 1.  Multiply by 2.5417464519 to convert [e a0] to [Debye]
 Dipole X            :          0.0000515            0.0000000            0.0000515
 Dipole Y            :          0.0000272            0.0000000            0.0000272
 Dipole Z            :         -0.0000000            0.0000000           -0.0000000
 Magnitude           :                                                    0.0000583

 ------------------------------------------------------------------------------------

*** tstop() called on ddmfs1 at Mon Jan 22 11:41:55 2024
Module time:
	user time   =      25.10 seconds =       0.42 minutes
	system time =       3.94 seconds =       0.07 minutes
	total time  =          5 seconds =       0.08 minutes
Total time:
	user time   =      25.10 seconds =       0.42 minutes
	system time =       3.94 seconds =       0.07 minutes
	total time  =          5 seconds =       0.08 minutes

*** tstart() called on ddmfs1
*** at Mon Jan 22 11:41:55 2024


  //>>>>>>>>>>>>>>>>>>>>>>>>>>>>>>>>>>>//
  //               DFMP2               //
  //<<<<<<<<<<<<<<<<<<<<<<<<<<<<<<<<<<<//

   => Loading Basis Set <=

    Name: (AUG-CC-PVTZ AUX)
    Role: RIFIT
    Keyword: DF_BASIS_MP2
    atoms 1   entry LI         line    90 file /ddmfs1b/softs/psi4conda/share/psi4/basis/def2-qzvpp-ri.gbs 
    atoms 2-3 entry BR         line  1248 file /ddmfs1b/softs/psi4conda/share/psi4/basis/aug-cc-pvtz-ri.gbs 

	 --------------------------------------------------------
	                          DF-MP2                         
	      2nd-Order Density-Fitted Moller-Plesset Theory     
	              RMP2 Wavefunction,  20 Threads             
	                                                         
	        Rob Parrish, Justin Turney, Andy Simmonett,      
	           Ed Hohenstein, and C. David Sherrill          
	 --------------------------------------------------------

   => Auxiliary Basis Set <=

  Basis Set: (AUG-CC-PVTZ AUX)
    Blend: AUG-CC-PVTZ-RI + DEF2-QZVPP-RI
    Number of shells: 113
    Number of basis functions: 483
    Number of Cartesian functions: 652
    Spherical Harmonics?: true
    Max angular momentum: 5

	 --------------------------------------------------------
	                 NBF =   164, NAUX =   483
	 --------------------------------------------------------
	   CLASS    FOCC     OCC    AOCC    AVIR     VIR    FVIR
	   PAIRS       0       1       1     163     163       0
	 --------------------------------------------------------

	-----------------------------------------------------------
	 ==================> DF-MP2 Energies <==================== 
	-----------------------------------------------------------
	 Reference Energy          =      -7.2363833029052138 [Eh]
	 Singles Energy            =      -0.0000000000000000 [Eh]
	 Same-Spin Energy          =       0.0000000000000000 [Eh]
	 Opposite-Spin Energy      =      -0.0132347412894135 [Eh]
	 Correlation Energy        =      -0.0132347412894135 [Eh]
	 Total Energy              =      -7.2496180441946274 [Eh]
	-----------------------------------------------------------
	 ================> DF-SCS-MP2 Energies <================== 
	-----------------------------------------------------------
	 SCS Same-Spin Scale       =       0.3333333333333333 [-]
	 SCS Opposite-Spin Scale   =       1.2000000000000000 [-]
	 SCS Same-Spin Energy      =       0.0000000000000000 [Eh]
	 SCS Opposite-Spin Energy  =      -0.0158816895472962 [Eh]
	 SCS Correlation Energy    =      -0.0158816895472962 [Eh]
	 SCS Total Energy          =      -7.2522649924525098 [Eh]
	-----------------------------------------------------------


*** tstop() called on ddmfs1 at Mon Jan 22 11:42:11 2024
Module time:
	user time   =      24.88 seconds =       0.41 minutes
	system time =       1.46 seconds =       0.02 minutes
	total time  =         16 seconds =       0.27 minutes
Total time:
	user time   =      50.00 seconds =       0.83 minutes
	system time =       5.40 seconds =       0.09 minutes
	total time  =         21 seconds =       0.35 minutes

    Psi4 stopped on: Monday, 22 January 2024 11:42AM
    Psi4 wall time for execution: 0:00:21.70

*** Psi4 exiting successfully. Buy a developer a beer!
