
    -----------------------------------------------------------------------
          Psi4: An Open-Source Ab Initio Electronic Structure Package
                               Psi4 1.8.2 release

                         Git: Rev {} zzzzzzz 


    D. G. A. Smith, L. A. Burns, A. C. Simmonett, R. M. Parrish,
    M. C. Schieber, R. Galvelis, P. Kraus, H. Kruse, R. Di Remigio,
    A. Alenaizan, A. M. James, S. Lehtola, J. P. Misiewicz, M. Scheurer,
    R. A. Shaw, J. B. Schriber, Y. Xie, Z. L. Glick, D. A. Sirianni,
    J. S. O'Brien, J. M. Waldrop, A. Kumar, E. G. Hohenstein,
    B. P. Pritchard, B. R. Brooks, H. F. Schaefer III, A. Yu. Sokolov,
    K. Patkowski, A. E. DePrince III, U. Bozkaya, R. A. King,
    F. A. Evangelista, J. M. Turney, T. D. Crawford, C. D. Sherrill,
    J. Chem. Phys. 152(18) 184108 (2020). https://doi.org/10.1063/5.0006002

                            Additional Code Authors
    E. T. Seidl, C. L. Janssen, E. F. Valeev, M. L. Leininger,
    J. F. Gonthier, R. M. Richard, H. R. McAlexander, M. Saitow, X. Wang,
    P. Verma, M. H. Lechner, A. Jiang, S. Behnle, A. G. Heide,
    M. F. Herbst, and D. L. Poole

             Previous Authors, Complete List of Code Contributors,
                       and Citations for Specific Modules
    https://github.com/psi4/psi4/blob/master/codemeta.json
    https://github.com/psi4/psi4/graphs/contributors
    http://psicode.org/psi4manual/master/introduction.html#citing-psifour

    -----------------------------------------------------------------------


    Psi4 started on: Monday, 22 January 2024 11:52AM

    Process ID: 44418
    Host:       ddmfs1
    PSIDATADIR: /ddmfs1b/softs/psi4conda/share/psi4
    Memory:     500.0 MiB
    Threads:    20
    
  ==> Input File <==

--------------------------------------------------------------------------
MEMORY 60 GB

molecule dimer {
1 1
Gh(F)      0.000000     0.000000     0.000000
Na         0.000000     1.939580     0.000000
Gh(Na)     2.327496     0.000000     0.000000

units ang
no_reorient
no_com
symmetry c1
}

set {
basis        aug-cc-pVTZ
scf_type     df
}

energy("mp2")
--------------------------------------------------------------------------

  Memory set to  55.879 GiB by Python driver.

Scratch directory: /ddmfs1a/scratch/
   => Libint2 <=

    Primary   basis highest AM E, G, H:  5, 4, 3
    Auxiliary basis highest AM E, G, H:  6, 5, 4
    Onebody   basis highest AM E, G, H:  6, 5, 4
    Solid Harmonics ordering:            gaussian

*** tstart() called on ddmfs1
*** at Mon Jan 22 11:52:28 2024

   => Loading Basis Set <=

    Name: AUG-CC-PVTZ
    Role: ORBITAL
    Keyword: BASIS
    atoms 1   entry F          line   377 file /ddmfs1b/softs/psi4conda/share/psi4/basis/aug-cc-pvtz.gbs 
    atoms 2-3 entry NA         line   469 file /ddmfs1b/softs/psi4conda/share/psi4/basis/aug-cc-pvtz.gbs 


         ---------------------------------------------------------
                                   SCF
               by Justin Turney, Rob Parrish, Andy Simmonett
                          and Daniel G. A. Smith
                              RHF Reference
                       20 Threads,  57220 MiB Core
         ---------------------------------------------------------

  ==> Geometry <==

    Molecular point group: c1
    Full point group: Cs

    Geometry (in Angstrom), charge = 1, multiplicity = 1:

       Center              X                  Y                   Z               Mass       
    ------------   -----------------  -----------------  -----------------  -----------------
      Gh(F)           0.000000000000     0.000000000000     0.000000000000    18.998403162730
         NA           0.000000000000     1.939580000000     0.000000000000    22.989769282000
      Gh(NA)          2.327496000000     0.000000000000     0.000000000000    22.989769282000

  Running in c1 symmetry.

  Rotational constants: A =      0.19492  B =      0.13536  C =      0.07988 [cm^-1]
  Rotational constants: A =   5843.42120  B =   4057.93139  C =   2394.84476 [MHz]
  Nuclear repulsion =    0.000000000000000

  Charge       = 1
  Multiplicity = 1
  Electrons    = 10
  Nalpha       = 5
  Nbeta        = 5

  ==> Algorithm <==

  SCF Algorithm Type is DF.
  DIIS enabled.
  MOM disabled.
  Fractional occupation disabled.
  Guess Type is SAD.
  Energy threshold   = 1.00e-08
  Density threshold  = 1.00e-08
  Integral threshold = 1.00e-12

  ==> Primary Basis <==

  Basis Set: AUG-CC-PVTZ
    Blend: AUG-CC-PVTZ
    Number of shells: 46
    Number of basis functions: 146
    Number of Cartesian functions: 173
    Spherical Harmonics?: true
    Max angular momentum: 3

   => Loading Basis Set <=

    Name: (AUG-CC-PVTZ AUX)
    Role: JKFIT
    Keyword: DF_BASIS_SCF
    atoms 1   entry F          line   348 file /ddmfs1b/softs/psi4conda/share/psi4/basis/aug-cc-pvtz-jkfit.gbs 
    atoms 2-3 entry NA         line   498 file /ddmfs1b/softs/psi4conda/share/psi4/basis/def2-universal-jkfit.gbs 

  ==> Integral Setup <==

  DFHelper Memory: AOs need 0.060 GiB; user supplied 41.910 GiB. 
  Using in-core AOs.

  ==> MemDFJK: Density-Fitted J/K Matrices <==

    J tasked:                   Yes
    K tasked:                   Yes
    wK tasked:                   No
    OpenMP threads:              20
    Memory [MiB]:             42915
    Algorithm:                 Core
    Schwarz Cutoff:           1E-12
    Mask sparsity (%):       0.0000
    Fitting Condition:        1E-10

   => Auxiliary Basis Set <=

  Basis Set: (AUG-CC-PVTZ AUX)
    Blend: AUG-CC-PVTZ-JKFIT + DEF2-UNIVERSAL-JKFIT
    Number of shells: 98
    Number of basis functions: 328
    Number of Cartesian functions: 405
    Spherical Harmonics?: true
    Max angular momentum: 4

  Minimum eigenvalue in the overlap matrix is 5.9879824728E-05.
  Reciprocal condition number of the overlap matrix is 8.2930348992E-06.
    Using symmetric orthogonalization.

  ==> Pre-Iterations <==

  SCF Guess: Superposition of Atomic Densities via on-the-fly atomic UHF (no occupation information).

   -------------------------
    Irrep   Nso     Nmo    
   -------------------------
     A        146     146 
   -------------------------
    Total     146     146
   -------------------------

  ==> Iterations <==

                           Total Energy        Delta E     RMS |[F,P]|

   @DF-RHF iter SAD:  -161.74556710186562   -1.61746e+02   0.00000e+00 
   @DF-RHF iter   1:  -161.67603177016758    6.95353e-02   4.04484e-05 DIIS
   @DF-RHF iter   2:  -161.67604971182465   -1.79417e-05   7.85968e-06 DIIS
   @DF-RHF iter   3:  -161.67605017756773   -4.65743e-07   3.16433e-07 DIIS
   @DF-RHF iter   4:  -161.67605017832753   -7.59798e-10   2.99520e-08 DIIS
   @DF-RHF iter   5:  -161.67605017833409   -6.56541e-12   1.66529e-09 DIIS
  Energy and wave function converged.


  ==> Post-Iterations <==

    Orbital Energies [Eh]
    ---------------------

    Doubly Occupied:                                                      

       1A    -40.762425     2A     -3.074705     3A     -1.797977  
       4A     -1.797949     5A     -1.797860  

    Virtual:                                                              

       6A     -0.181829     7A     -0.109445     8A     -0.109439  
       9A     -0.109434    10A     -0.070047    11A     -0.054832  
      12A     -0.054812    13A     -0.054608    14A     -0.050508  
      15A     -0.050439    16A     -0.050015    17A     -0.049081  
      18A     -0.049048    19A     -0.028904    20A     -0.024704  
      21A     -0.024459    22A     -0.024255    23A     -0.021174  
      24A     -0.009972    25A     -0.009684    26A     -0.006659  
      27A     -0.006646    28A     -0.001186    29A     -0.000757  
      30A     -0.000111    31A      0.011874    32A      0.022408  
      33A      0.026401    34A      0.026840    35A      0.037321  
      36A      0.041322    37A      0.046658    38A      0.053457  
      39A      0.056482    40A      0.075608    41A      0.090051  
      42A      0.093305    43A      0.094035    44A      0.097363  
      45A      0.098156    46A      0.116991    47A      0.119149  
      48A      0.132489    49A      0.147528    50A      0.149066  
      51A      0.156974    52A      0.162154    53A      0.163602  
      54A      0.172482    55A      0.174067    56A      0.174938  
      57A      0.176966    58A      0.198732    59A      0.208938  
      60A      0.211437    61A      0.230035    62A      0.238900  
      63A      0.239665    64A      0.247260    65A      0.251309  
      66A      0.251791    67A      0.271950    68A      0.281222  
      69A      0.343063    70A      0.359017    71A      0.373818  
      72A      0.375135    73A      0.382987    74A      0.393771  
      75A      0.398052    76A      0.411583    77A      0.444454  
      78A      0.454823    79A      0.475763    80A      0.490838  
      81A      0.492441    82A      0.520081    83A      0.532932  
      84A      0.536656    85A      0.576577    86A      0.585678  
      87A      0.590561    88A      0.626616    89A      0.627604  
      90A      0.648577    91A      0.652669    92A      0.673704  
      93A      0.686121    94A      0.693510    95A      0.784999  
      96A      0.807771    97A      0.814923    98A      0.862939  
      99A      0.870454   100A      0.947982   101A      1.039016  
     102A      1.068215   103A      1.089785   104A      1.135410  
     105A      1.173920   106A      1.244367   107A      1.445430  
     108A      1.968747   109A      2.827727   110A      2.865992  
     111A      2.892921   112A      2.902415   113A      2.938998  
     114A      2.943332   115A      3.000744   116A      3.005344  
     117A      3.097308   118A      3.192501   119A      3.416422  
     120A      3.508757   121A      3.515005   122A      3.564787  
     123A      3.620189   124A      3.691144   125A      4.499234  
     126A      6.187204   127A      6.239503   128A      6.441854  
     129A      9.915642   130A      9.917249   131A      9.918834  
     132A      9.931021   133A      9.958883   134A      9.963013  
     135A     10.010613   136A     10.012408   137A     12.775830  
     138A     12.800285   139A     12.825461   140A     12.855435  
     141A     12.890943   142A     14.170650   143A     14.376337  
     144A     14.439496   145A     64.316113   146A     69.407798  

    Final Occupation by Irrep:
              A 
    DOCC [     5 ]
    NA   [     5 ]
    NB   [     5 ]

  @DF-RHF Final Energy:  -161.67605017833409

   => Energetics <=

    Nuclear Repulsion Energy =              0.0000000000000000
    One-Electron Energy =                -224.8902699512565277
    Two-Electron Energy =                  63.2142197729224478
    Total Energy =                       -161.6760501783340942

Computation Completed


Properties will be evaluated at   0.000000,   0.000000,   0.000000 [a0]

Properties computed using the SCF density matrix


 Multipole Moments:

 ------------------------------------------------------------------------------------
     Multipole            Electronic (a.u.)      Nuclear  (a.u.)        Total (a.u.)
 ------------------------------------------------------------------------------------

 L = 1.  Multiply by 2.5417464519 to convert [e a0] to [Debye]
 Dipole X            :          0.0003486            0.0000000            0.0003486
 Dipole Y            :        -36.6533007           40.3180250            3.6647243
 Dipole Z            :         -0.0000000            0.0000000           -0.0000000
 Magnitude           :                                                    3.6647243

 ------------------------------------------------------------------------------------

*** tstop() called on ddmfs1 at Mon Jan 22 11:52:31 2024
Module time:
	user time   =      24.86 seconds =       0.41 minutes
	system time =       4.42 seconds =       0.07 minutes
	total time  =          3 seconds =       0.05 minutes
Total time:
	user time   =      24.86 seconds =       0.41 minutes
	system time =       4.42 seconds =       0.07 minutes
	total time  =          3 seconds =       0.05 minutes

*** tstart() called on ddmfs1
*** at Mon Jan 22 11:52:31 2024


  //>>>>>>>>>>>>>>>>>>>>>>>>>>>>>>>>>>>//
  //               DFMP2               //
  //<<<<<<<<<<<<<<<<<<<<<<<<<<<<<<<<<<<//

   => Loading Basis Set <=

    Name: (AUG-CC-PVTZ AUX)
    Role: RIFIT
    Keyword: DF_BASIS_MP2
    atoms 1   entry F          line   322 file /ddmfs1b/softs/psi4conda/share/psi4/basis/aug-cc-pvtz-ri.gbs 
    atoms 2-3 entry NA         line   610 file /ddmfs1b/softs/psi4conda/share/psi4/basis/def2-qzvpp-ri.gbs 

	 --------------------------------------------------------
	                          DF-MP2                         
	      2nd-Order Density-Fitted Moller-Plesset Theory     
	              RMP2 Wavefunction,  20 Threads             
	                                                         
	        Rob Parrish, Justin Turney, Andy Simmonett,      
	           Ed Hohenstein, and C. David Sherrill          
	 --------------------------------------------------------

   => Auxiliary Basis Set <=

  Basis Set: (AUG-CC-PVTZ AUX)
    Blend: AUG-CC-PVTZ-RI + DEF2-QZVPP-RI
    Number of shells: 112
    Number of basis functions: 438
    Number of Cartesian functions: 564
    Spherical Harmonics?: true
    Max angular momentum: 4

	 --------------------------------------------------------
	                 NBF =   146, NAUX =   438
	 --------------------------------------------------------
	   CLASS    FOCC     OCC    AOCC    AVIR     VIR    FVIR
	   PAIRS       0       5       5     141     141       0
	 --------------------------------------------------------

	-----------------------------------------------------------
	 ==================> DF-MP2 Energies <==================== 
	-----------------------------------------------------------
	 Reference Energy          =    -161.6760501783340942 [Eh]
	 Singles Energy            =      -0.0000000000000000 [Eh]
	 Same-Spin Energy          =      -0.0030617987031065 [Eh]
	 Opposite-Spin Energy      =      -0.0109596984607939 [Eh]
	 Correlation Energy        =      -0.0140214971639004 [Eh]
	 Total Energy              =    -161.6900716754979896 [Eh]
	-----------------------------------------------------------
	 ================> DF-SCS-MP2 Energies <================== 
	-----------------------------------------------------------
	 SCS Same-Spin Scale       =       0.3333333333333333 [-]
	 SCS Opposite-Spin Scale   =       1.2000000000000000 [-]
	 SCS Same-Spin Energy      =      -0.0010205995677022 [Eh]
	 SCS Opposite-Spin Energy  =      -0.0131516381529526 [Eh]
	 SCS Correlation Energy    =      -0.0141722377206548 [Eh]
	 SCS Total Energy          =    -161.6902224160547519 [Eh]
	-----------------------------------------------------------


*** tstop() called on ddmfs1 at Mon Jan 22 11:52:36 2024
Module time:
	user time   =      11.93 seconds =       0.20 minutes
	system time =       1.02 seconds =       0.02 minutes
	total time  =          5 seconds =       0.08 minutes
Total time:
	user time   =      36.80 seconds =       0.61 minutes
	system time =       5.44 seconds =       0.09 minutes
	total time  =          8 seconds =       0.13 minutes

    Psi4 stopped on: Monday, 22 January 2024 11:52AM
    Psi4 wall time for execution: 0:00:07.63

*** Psi4 exiting successfully. Buy a developer a beer!
