
    -----------------------------------------------------------------------
          Psi4: An Open-Source Ab Initio Electronic Structure Package
                               Psi4 1.8.2 release

                         Git: Rev {} zzzzzzz 


    D. G. A. Smith, L. A. Burns, A. C. Simmonett, R. M. Parrish,
    M. C. Schieber, R. Galvelis, P. Kraus, H. Kruse, R. Di Remigio,
    A. Alenaizan, A. M. James, S. Lehtola, J. P. Misiewicz, M. Scheurer,
    R. A. Shaw, J. B. Schriber, Y. Xie, Z. L. Glick, D. A. Sirianni,
    J. S. O'Brien, J. M. Waldrop, A. Kumar, E. G. Hohenstein,
    B. P. Pritchard, B. R. Brooks, H. F. Schaefer III, A. Yu. Sokolov,
    K. Patkowski, A. E. DePrince III, U. Bozkaya, R. A. King,
    F. A. Evangelista, J. M. Turney, T. D. Crawford, C. D. Sherrill,
    J. Chem. Phys. 152(18) 184108 (2020). https://doi.org/10.1063/5.0006002

                            Additional Code Authors
    E. T. Seidl, C. L. Janssen, E. F. Valeev, M. L. Leininger,
    J. F. Gonthier, R. M. Richard, H. R. McAlexander, M. Saitow, X. Wang,
    P. Verma, M. H. Lechner, A. Jiang, S. Behnle, A. G. Heide,
    M. F. Herbst, and D. L. Poole

             Previous Authors, Complete List of Code Contributors,
                       and Citations for Specific Modules
    https://github.com/psi4/psi4/blob/master/codemeta.json
    https://github.com/psi4/psi4/graphs/contributors
    http://psicode.org/psi4manual/master/introduction.html#citing-psifour

    -----------------------------------------------------------------------


    Psi4 started on: Monday, 22 January 2024 11:51AM

    Process ID: 44244
    Host:       ddmfs1
    PSIDATADIR: /ddmfs1b/softs/psi4conda/share/psi4
    Memory:     500.0 MiB
    Threads:    20
    
  ==> Input File <==

--------------------------------------------------------------------------
MEMORY 60 GB

molecule dimer {
1 1
Gh(F)      0.000000     0.000000     0.000000
Na         0.000000     1.939580     0.000000
Gh(Na)     1.939580     0.000000     0.000000

units ang
no_reorient
no_com
symmetry c1
}

set {
basis        aug-cc-pVTZ
scf_type     df
}

energy("mp2")
--------------------------------------------------------------------------

  Memory set to  55.879 GiB by Python driver.

Scratch directory: /ddmfs1a/scratch/
   => Libint2 <=

    Primary   basis highest AM E, G, H:  5, 4, 3
    Auxiliary basis highest AM E, G, H:  6, 5, 4
    Onebody   basis highest AM E, G, H:  6, 5, 4
    Solid Harmonics ordering:            gaussian

*** tstart() called on ddmfs1
*** at Mon Jan 22 11:51:23 2024

   => Loading Basis Set <=

    Name: AUG-CC-PVTZ
    Role: ORBITAL
    Keyword: BASIS
    atoms 1   entry F          line   377 file /ddmfs1b/softs/psi4conda/share/psi4/basis/aug-cc-pvtz.gbs 
    atoms 2-3 entry NA         line   469 file /ddmfs1b/softs/psi4conda/share/psi4/basis/aug-cc-pvtz.gbs 


         ---------------------------------------------------------
                                   SCF
               by Justin Turney, Rob Parrish, Andy Simmonett
                          and Daniel G. A. Smith
                              RHF Reference
                       20 Threads,  57220 MiB Core
         ---------------------------------------------------------

  ==> Geometry <==

    Molecular point group: c1
    Full point group: C1h

    Geometry (in Angstrom), charge = 1, multiplicity = 1:

       Center              X                  Y                   Z               Mass       
    ------------   -----------------  -----------------  -----------------  -----------------
      Gh(F)           0.000000000000     0.000000000000     0.000000000000    18.998403162730
         NA           0.000000000000     1.939580000000     0.000000000000    22.989769282000
      Gh(NA)          1.939580000000     0.000000000000     0.000000000000    22.989769282000

  Running in c1 symmetry.

  Rotational constants: A =      0.19492  B =      0.19492  C =      0.09746 [cm^-1]
  Rotational constants: A =   5843.42120  B =   5843.42120  C =   2921.71060 [MHz]
  Nuclear repulsion =    0.000000000000000

  Charge       = 1
  Multiplicity = 1
  Electrons    = 10
  Nalpha       = 5
  Nbeta        = 5

  ==> Algorithm <==

  SCF Algorithm Type is DF.
  DIIS enabled.
  MOM disabled.
  Fractional occupation disabled.
  Guess Type is SAD.
  Energy threshold   = 1.00e-08
  Density threshold  = 1.00e-08
  Integral threshold = 1.00e-12

  ==> Primary Basis <==

  Basis Set: AUG-CC-PVTZ
    Blend: AUG-CC-PVTZ
    Number of shells: 46
    Number of basis functions: 146
    Number of Cartesian functions: 173
    Spherical Harmonics?: true
    Max angular momentum: 3

   => Loading Basis Set <=

    Name: (AUG-CC-PVTZ AUX)
    Role: JKFIT
    Keyword: DF_BASIS_SCF
    atoms 1   entry F          line   348 file /ddmfs1b/softs/psi4conda/share/psi4/basis/aug-cc-pvtz-jkfit.gbs 
    atoms 2-3 entry NA         line   498 file /ddmfs1b/softs/psi4conda/share/psi4/basis/def2-universal-jkfit.gbs 

  ==> Integral Setup <==

  DFHelper Memory: AOs need 0.060 GiB; user supplied 41.910 GiB. 
  Using in-core AOs.

  ==> MemDFJK: Density-Fitted J/K Matrices <==

    J tasked:                   Yes
    K tasked:                   Yes
    wK tasked:                   No
    OpenMP threads:              20
    Memory [MiB]:             42915
    Algorithm:                 Core
    Schwarz Cutoff:           1E-12
    Mask sparsity (%):       0.0000
    Fitting Condition:        1E-10

   => Auxiliary Basis Set <=

  Basis Set: (AUG-CC-PVTZ AUX)
    Blend: AUG-CC-PVTZ-JKFIT + DEF2-UNIVERSAL-JKFIT
    Number of shells: 98
    Number of basis functions: 328
    Number of Cartesian functions: 405
    Spherical Harmonics?: true
    Max angular momentum: 4

  Minimum eigenvalue in the overlap matrix is 2.8582341032E-05.
  Reciprocal condition number of the overlap matrix is 3.9137856184E-06.
    Using symmetric orthogonalization.

  ==> Pre-Iterations <==

  SCF Guess: Superposition of Atomic Densities via on-the-fly atomic UHF (no occupation information).

   -------------------------
    Irrep   Nso     Nmo    
   -------------------------
     A        146     146 
   -------------------------
    Total     146     146
   -------------------------

  ==> Iterations <==

                           Total Energy        Delta E     RMS |[F,P]|

   @DF-RHF iter SAD:  -161.74557180624356   -1.61746e+02   0.00000e+00 
   @DF-RHF iter   1:  -161.67603382599904    6.95380e-02   4.06747e-05 DIIS
   @DF-RHF iter   2:  -161.67605179224171   -1.79662e-05   7.90611e-06 DIIS
   @DF-RHF iter   3:  -161.67605225987711   -4.67635e-07   3.22426e-07 DIIS
   @DF-RHF iter   4:  -161.67605226063642   -7.59314e-10   3.11879e-08 DIIS
   @DF-RHF iter   5:  -161.67605226064339   -6.96332e-12   1.64672e-09 DIIS
  Energy and wave function converged.


  ==> Post-Iterations <==

    Orbital Energies [Eh]
    ---------------------

    Doubly Occupied:                                                      

       1A    -40.762326     2A     -3.074655     3A     -1.797929  
       4A     -1.797891     5A     -1.797835  

    Virtual:                                                              

       6A     -0.181828     7A     -0.109445     8A     -0.109438  
       9A     -0.109434    10A     -0.070056    11A     -0.054955  
      12A     -0.054943    13A     -0.054695    14A     -0.050483  
      15A     -0.050420    16A     -0.050067    17A     -0.049070  
      18A     -0.049049    19A     -0.029194    20A     -0.024522  
      21A     -0.024376    22A     -0.024266    23A     -0.020957  
      24A     -0.009854    25A     -0.009547    26A     -0.007101  
      27A     -0.007081    28A     -0.002047    29A     -0.000906  
      30A     -0.000484    31A      0.012426    32A      0.023832  
      33A      0.025388    34A      0.025740    35A      0.038789  
      36A      0.041306    37A      0.048894    38A      0.053933  
      39A      0.056413    40A      0.077173    41A      0.093000  
      42A      0.096374    43A      0.096491    44A      0.097915  
      45A      0.098621    46A      0.119331    47A      0.121760  
      48A      0.135314    49A      0.142864    50A      0.153501  
      51A      0.161819    52A      0.164413    53A      0.165030  
      54A      0.174696    55A      0.175445    56A      0.177801  
      57A      0.179611    58A      0.193431    59A      0.198316  
      60A      0.213446    61A      0.236068    62A      0.245869  
      63A      0.247915    64A      0.255446    65A      0.255493  
      66A      0.256454    67A      0.272517    68A      0.281778  
      69A      0.352783    70A      0.360395    71A      0.371703  
      72A      0.392956    73A      0.395072    74A      0.400674  
      75A      0.411052    76A      0.444517    77A      0.448675  
      78A      0.476624    79A      0.479302    80A      0.490621  
      81A      0.491272    82A      0.531809    83A      0.539949  
      84A      0.543326    85A      0.583830    86A      0.586343  
      87A      0.607990    88A      0.620603    89A      0.628289  
      90A      0.654350    91A      0.658754    92A      0.686481  
      93A      0.706629    94A      0.706808    95A      0.794765  
      96A      0.841410    97A      0.846760    98A      0.904222  
      99A      0.910145   100A      1.010162   101A      1.127203  
     102A      1.133127   103A      1.147399   104A      1.183541  
     105A      1.211172   106A      1.317562   107A      1.547540  
     108A      2.376050   109A      2.839697   110A      2.867096  
     111A      2.904836   112A      2.913881   113A      2.940157  
     114A      2.941557   115A      3.040977   116A      3.043089  
     117A      3.092268   118A      3.243298   119A      3.443541  
     120A      3.548037   121A      3.553083   122A      3.554789  
     123A      3.614233   124A      3.696091   125A      4.848580  
     126A      6.182133   127A      6.261677   128A      7.051410  
     129A      9.919528   130A      9.928509   131A      9.943370  
     132A      9.951748   133A      9.974360   134A      9.974952  
     135A     10.034451   136A     10.181623   137A     12.783692  
     138A     12.818191   139A     12.857784   140A     12.871345  
     141A     12.918050   142A     14.224246   143A     14.388143  
     144A     14.508281   145A     64.361419   146A     69.975059  

    Final Occupation by Irrep:
              A 
    DOCC [     5 ]
    NA   [     5 ]
    NB   [     5 ]

  @DF-RHF Final Energy:  -161.67605226064339

   => Energetics <=

    Nuclear Repulsion Energy =              0.0000000000000000
    One-Electron Energy =                -224.8908322226809844
    Two-Electron Energy =                  63.2147799620376176
    Total Energy =                       -161.6760522606433597

Computation Completed


Properties will be evaluated at   0.000000,   0.000000,   0.000000 [a0]

Properties computed using the SCF density matrix


 Multipole Moments:

 ------------------------------------------------------------------------------------
     Multipole            Electronic (a.u.)      Nuclear  (a.u.)        Total (a.u.)
 ------------------------------------------------------------------------------------

 L = 1.  Multiply by 2.5417464519 to convert [e a0] to [Debye]
 Dipole X            :          0.0003073            0.0000000            0.0003073
 Dipole Y            :        -36.6532629           40.3180250            3.6647621
 Dipole Z            :          0.0000000            0.0000000            0.0000000
 Magnitude           :                                                    3.6647621

 ------------------------------------------------------------------------------------

*** tstop() called on ddmfs1 at Mon Jan 22 11:51:25 2024
Module time:
	user time   =      26.96 seconds =       0.45 minutes
	system time =       4.49 seconds =       0.07 minutes
	total time  =          2 seconds =       0.03 minutes
Total time:
	user time   =      26.96 seconds =       0.45 minutes
	system time =       4.49 seconds =       0.07 minutes
	total time  =          2 seconds =       0.03 minutes

*** tstart() called on ddmfs1
*** at Mon Jan 22 11:51:25 2024


  //>>>>>>>>>>>>>>>>>>>>>>>>>>>>>>>>>>>//
  //               DFMP2               //
  //<<<<<<<<<<<<<<<<<<<<<<<<<<<<<<<<<<<//

   => Loading Basis Set <=

    Name: (AUG-CC-PVTZ AUX)
    Role: RIFIT
    Keyword: DF_BASIS_MP2
    atoms 1   entry F          line   322 file /ddmfs1b/softs/psi4conda/share/psi4/basis/aug-cc-pvtz-ri.gbs 
    atoms 2-3 entry NA         line   610 file /ddmfs1b/softs/psi4conda/share/psi4/basis/def2-qzvpp-ri.gbs 

	 --------------------------------------------------------
	                          DF-MP2                         
	      2nd-Order Density-Fitted Moller-Plesset Theory     
	              RMP2 Wavefunction,  20 Threads             
	                                                         
	        Rob Parrish, Justin Turney, Andy Simmonett,      
	           Ed Hohenstein, and C. David Sherrill          
	 --------------------------------------------------------

   => Auxiliary Basis Set <=

  Basis Set: (AUG-CC-PVTZ AUX)
    Blend: AUG-CC-PVTZ-RI + DEF2-QZVPP-RI
    Number of shells: 112
    Number of basis functions: 438
    Number of Cartesian functions: 564
    Spherical Harmonics?: true
    Max angular momentum: 4

	 --------------------------------------------------------
	                 NBF =   146, NAUX =   438
	 --------------------------------------------------------
	   CLASS    FOCC     OCC    AOCC    AVIR     VIR    FVIR
	   PAIRS       0       5       5     141     141       0
	 --------------------------------------------------------

	-----------------------------------------------------------
	 ==================> DF-MP2 Energies <==================== 
	-----------------------------------------------------------
	 Reference Energy          =    -161.6760522606433881 [Eh]
	 Singles Energy            =      -0.0000000000000000 [Eh]
	 Same-Spin Energy          =      -0.0031367609820246 [Eh]
	 Opposite-Spin Energy      =      -0.0111678027860449 [Eh]
	 Correlation Energy        =      -0.0143045637680695 [Eh]
	 Total Energy              =    -161.6903568244114524 [Eh]
	-----------------------------------------------------------
	 ================> DF-SCS-MP2 Energies <================== 
	-----------------------------------------------------------
	 SCS Same-Spin Scale       =       0.3333333333333333 [-]
	 SCS Opposite-Spin Scale   =       1.2000000000000000 [-]
	 SCS Same-Spin Energy      =      -0.0010455869940082 [Eh]
	 SCS Opposite-Spin Energy  =      -0.0134013633432539 [Eh]
	 SCS Correlation Energy    =      -0.0144469503372621 [Eh]
	 SCS Total Energy          =    -161.6904992109806471 [Eh]
	-----------------------------------------------------------


*** tstop() called on ddmfs1 at Mon Jan 22 11:51:30 2024
Module time:
	user time   =      13.13 seconds =       0.22 minutes
	system time =       1.02 seconds =       0.02 minutes
	total time  =          5 seconds =       0.08 minutes
Total time:
	user time   =      40.11 seconds =       0.67 minutes
	system time =       5.51 seconds =       0.09 minutes
	total time  =          7 seconds =       0.12 minutes

    Psi4 stopped on: Monday, 22 January 2024 11:51AM
    Psi4 wall time for execution: 0:00:07.61

*** Psi4 exiting successfully. Buy a developer a beer!
