
    -----------------------------------------------------------------------
          Psi4: An Open-Source Ab Initio Electronic Structure Package
                               Psi4 1.8.2 release

                         Git: Rev {} zzzzzzz 


    D. G. A. Smith, L. A. Burns, A. C. Simmonett, R. M. Parrish,
    M. C. Schieber, R. Galvelis, P. Kraus, H. Kruse, R. Di Remigio,
    A. Alenaizan, A. M. James, S. Lehtola, J. P. Misiewicz, M. Scheurer,
    R. A. Shaw, J. B. Schriber, Y. Xie, Z. L. Glick, D. A. Sirianni,
    J. S. O'Brien, J. M. Waldrop, A. Kumar, E. G. Hohenstein,
    B. P. Pritchard, B. R. Brooks, H. F. Schaefer III, A. Yu. Sokolov,
    K. Patkowski, A. E. DePrince III, U. Bozkaya, R. A. King,
    F. A. Evangelista, J. M. Turney, T. D. Crawford, C. D. Sherrill,
    J. Chem. Phys. 152(18) 184108 (2020). https://doi.org/10.1063/5.0006002

                            Additional Code Authors
    E. T. Seidl, C. L. Janssen, E. F. Valeev, M. L. Leininger,
    J. F. Gonthier, R. M. Richard, H. R. McAlexander, M. Saitow, X. Wang,
    P. Verma, M. H. Lechner, A. Jiang, S. Behnle, A. G. Heide,
    M. F. Herbst, and D. L. Poole

             Previous Authors, Complete List of Code Contributors,
                       and Citations for Specific Modules
    https://github.com/psi4/psi4/blob/master/codemeta.json
    https://github.com/psi4/psi4/graphs/contributors
    http://psicode.org/psi4manual/master/introduction.html#citing-psifour

    -----------------------------------------------------------------------


    Psi4 started on: Monday, 22 January 2024 11:57AM

    Process ID: 45329
    Host:       ddmfs1
    PSIDATADIR: /ddmfs1b/softs/psi4conda/share/psi4
    Memory:     500.0 MiB
    Threads:    20
    
  ==> Input File <==

--------------------------------------------------------------------------
MEMORY 60 GB

molecule dimer {
-1 1
Na         0.000000     0.000000     0.000000
F          0.000000     1.939580     0.000000
F          2.909370     0.000000     0.000000

units ang
no_reorient
no_com
symmetry c1
}

set {
basis        aug-cc-pVTZ
scf_type     df
}

energy("mp2")
--------------------------------------------------------------------------

  Memory set to  55.879 GiB by Python driver.

Scratch directory: /ddmfs1a/scratch/
   => Libint2 <=

    Primary   basis highest AM E, G, H:  5, 4, 3
    Auxiliary basis highest AM E, G, H:  6, 5, 4
    Onebody   basis highest AM E, G, H:  6, 5, 4
    Solid Harmonics ordering:            gaussian

*** tstart() called on ddmfs1
*** at Mon Jan 22 11:57:04 2024

   => Loading Basis Set <=

    Name: AUG-CC-PVTZ
    Role: ORBITAL
    Keyword: BASIS
    atoms 1   entry NA         line   469 file /ddmfs1b/softs/psi4conda/share/psi4/basis/aug-cc-pvtz.gbs 
    atoms 2-3 entry F          line   377 file /ddmfs1b/softs/psi4conda/share/psi4/basis/aug-cc-pvtz.gbs 


         ---------------------------------------------------------
                                   SCF
               by Justin Turney, Rob Parrish, Andy Simmonett
                          and Daniel G. A. Smith
                              RHF Reference
                       20 Threads,  57220 MiB Core
         ---------------------------------------------------------

  ==> Geometry <==

    Molecular point group: c1
    Full point group: Cs

    Geometry (in Angstrom), charge = -1, multiplicity = 1:

       Center              X                  Y                   Z               Mass       
    ------------   -----------------  -----------------  -----------------  -----------------
         NA           0.000000000000     0.000000000000     0.000000000000    22.989769282000
         F            0.000000000000     1.939580000000     0.000000000000    18.998403162730
         F            2.909370000000     0.000000000000     0.000000000000    18.998403162730

  Running in c1 symmetry.

  Rotational constants: A =      0.23587  B =      0.10483  C =      0.07257 [cm^-1]
  Rotational constants: A =   7071.06298  B =   3142.69466  C =   2175.71169 [MHz]
  Nuclear repulsion =   57.275570314641335

  Charge       = -1
  Multiplicity = 1
  Electrons    = 30
  Nalpha       = 15
  Nbeta        = 15

  ==> Algorithm <==

  SCF Algorithm Type is DF.
  DIIS enabled.
  MOM disabled.
  Fractional occupation disabled.
  Guess Type is SAD.
  Energy threshold   = 1.00e-08
  Density threshold  = 1.00e-08
  Integral threshold = 1.00e-12

  ==> Primary Basis <==

  Basis Set: AUG-CC-PVTZ
    Blend: AUG-CC-PVTZ
    Number of shells: 44
    Number of basis functions: 142
    Number of Cartesian functions: 169
    Spherical Harmonics?: true
    Max angular momentum: 3

   => Loading Basis Set <=

    Name: (AUG-CC-PVTZ AUX)
    Role: JKFIT
    Keyword: DF_BASIS_SCF
    atoms 1   entry NA         line   498 file /ddmfs1b/softs/psi4conda/share/psi4/basis/def2-universal-jkfit.gbs 
    atoms 2-3 entry F          line   348 file /ddmfs1b/softs/psi4conda/share/psi4/basis/aug-cc-pvtz-jkfit.gbs 

  ==> Integral Setup <==

  DFHelper Memory: AOs need 0.054 GiB; user supplied 41.910 GiB. 
  Using in-core AOs.

  ==> MemDFJK: Density-Fitted J/K Matrices <==

    J tasked:                   Yes
    K tasked:                   Yes
    wK tasked:                   No
    OpenMP threads:              20
    Memory [MiB]:             42915
    Algorithm:                 Core
    Schwarz Cutoff:           1E-12
    Mask sparsity (%):       3.1244
    Fitting Condition:        1E-10

   => Auxiliary Basis Set <=

  Basis Set: (AUG-CC-PVTZ AUX)
    Blend: AUG-CC-PVTZ-JKFIT + DEF2-UNIVERSAL-JKFIT
    Number of shells: 94
    Number of basis functions: 320
    Number of Cartesian functions: 399
    Spherical Harmonics?: true
    Max angular momentum: 4

  Minimum eigenvalue in the overlap matrix is 1.0503296222E-04.
  Reciprocal condition number of the overlap matrix is 2.1198569027E-05.
    Using symmetric orthogonalization.

  ==> Pre-Iterations <==

  SCF Guess: Superposition of Atomic Densities via on-the-fly atomic UHF (no occupation information).

   -------------------------
    Irrep   Nso     Nmo    
   -------------------------
     A        142     142 
   -------------------------
    Total     142     142
   -------------------------

  ==> Iterations <==

                           Total Energy        Delta E     RMS |[F,P]|

   @DF-RHF iter SAD:  -359.46783888000044   -3.59468e+02   0.00000e+00 
   @DF-RHF iter   1:  -360.63588103737845   -1.16804e+00   5.38953e-03 DIIS/ADIIS
   @DF-RHF iter   2:  -360.71893246789290   -8.30514e-02   4.95254e-03 DIIS/ADIIS
   @DF-RHF iter   3:  -360.85079776719215   -1.31865e-01   1.77224e-04 DIIS/ADIIS
   @DF-RHF iter   4:  -360.85095967632049   -1.61909e-04   1.05087e-04 DIIS/ADIIS
   @DF-RHF iter   5:  -360.85101863777794   -5.89615e-05   2.41711e-05 DIIS
   @DF-RHF iter   6:  -360.85102409711874   -5.45934e-06   3.95498e-06 DIIS
   @DF-RHF iter   7:  -360.85102463591124   -5.38793e-07   1.02978e-06 DIIS
   @DF-RHF iter   8:  -360.85102467659726   -4.06860e-08   2.17132e-07 DIIS
   @DF-RHF iter   9:  -360.85102467840773   -1.81046e-09   5.40779e-08 DIIS
   @DF-RHF iter  10:  -360.85102467852948   -1.21759e-10   1.45549e-08 DIIS
   @DF-RHF iter  11:  -360.85102467853795   -8.46967e-12   2.29603e-09 DIIS
  Energy and wave function converged.


  ==> Post-Iterations <==

    Orbital Energies [Eh]
    ---------------------

    Doubly Occupied:                                                      

       1A    -40.283744     2A    -25.916235     3A    -25.864538  
       4A     -2.608126     5A     -1.334818     6A     -1.332451  
       7A     -1.329979     8A     -1.169684     9A     -1.107154  
      10A     -0.287499    11A     -0.275333    12A     -0.274837  
      13A     -0.212716    14A     -0.211941    15A     -0.211378  

    Virtual:                                                              

      16A      0.069685    17A      0.085180    18A      0.086729  
      19A      0.104696    20A      0.118110    21A      0.134767  
      22A      0.141223    23A      0.159152    24A      0.171623  
      25A      0.171844    26A      0.190767    27A      0.192120  
      28A      0.200320    29A      0.242533    30A      0.256320  
      31A      0.265321    32A      0.312670    33A      0.350314  
      34A      0.353773    35A      0.356572    36A      0.366551  
      37A      0.376597    38A      0.400951    39A      0.411447  
      40A      0.413335    41A      0.430487    42A      0.455400  
      43A      0.465340    44A      0.472903    45A      0.479010  
      46A      0.485714    47A      0.503604    48A      0.507978  
      49A      0.514969    50A      0.529576    51A      0.543668  
      52A      0.573027    53A      0.613715    54A      0.720179  
      55A      0.732574    56A      0.743837    57A      0.747070  
      58A      0.756031    59A      0.774226    60A      0.863731  
      61A      0.875016    62A      0.886202    63A      0.899221  
      64A      0.928254    65A      0.934615    66A      0.974205  
      67A      1.135953    68A      1.226260    69A      1.233411  
      70A      1.278699    71A      1.295528    72A      1.312068  
      73A      1.368335    74A      1.374315    75A      1.391245  
      76A      1.398527    77A      1.426289    78A      1.558589  
      79A      1.561767    80A      1.702609    81A      1.758380  
      82A      1.838801    83A      1.923433    84A      2.245830  
      85A      2.356342    86A      2.582760    87A      3.219007  
      88A      3.223672    89A      3.226364    90A      3.228508  
      91A      3.248850    92A      3.248986    93A      3.253453  
      94A      3.274502    95A      3.276205    96A      3.296559  
      97A      3.297991    98A      3.304251    99A      3.304475  
     100A      3.306319   101A      3.307627   102A      3.322982  
     103A      3.341144   104A      3.371292   105A      3.404735  
     106A      3.413244   107A      3.446001   108A      3.460852  
     109A      3.483980   110A      3.552653   111A      5.681886  
     112A      5.684154   113A      5.775074   114A      5.775637  
     115A      5.844314   116A      5.979094   117A      9.189925  
     118A      9.190772   119A      9.209783   120A      9.209998  
     121A      9.214448   122A      9.216114   123A      9.224737  
     124A      9.246638   125A      9.247019   126A      9.251831  
     127A      9.252207   128A      9.269093   129A      9.271605  
     130A      9.293350   131A      9.716638   132A      9.724044  
     133A      9.744481   134A      9.751830   135A      9.778523  
     136A      9.794173   137A      9.807418   138A      9.825783  
     139A      9.839874   140A      9.864504   141A     11.619446  
     142A     12.259891  

    Final Occupation by Irrep:
              A 
    DOCC [    15 ]
    NA   [    15 ]
    NB   [    15 ]

  @DF-RHF Final Energy:  -360.85102467853795

   => Energetics <=

    Nuclear Repulsion Energy =             57.2755703146413353
    One-Electron Energy =                -631.4123258574289821
    Two-Electron Energy =                 213.2857308642497571
    Total Energy =                       -360.8510246785378968

Computation Completed


Properties will be evaluated at   0.000000,   0.000000,   0.000000 [a0]

Properties computed using the SCF density matrix


 Multipole Moments:

 ------------------------------------------------------------------------------------
     Multipole            Electronic (a.u.)      Nuclear  (a.u.)        Total (a.u.)
 ------------------------------------------------------------------------------------

 L = 1.  Multiply by 2.5417464519 to convert [e a0] to [Debye]
 Dipole X            :        -54.6975393           49.4812125           -5.2163268
 Dipole Y            :        -36.3143121           32.9874750           -3.3268371
 Dipole Z            :          0.0000000            0.0000000            0.0000000
 Magnitude           :                                                    6.1869144

 ------------------------------------------------------------------------------------

*** tstop() called on ddmfs1 at Mon Jan 22 11:57:06 2024
Module time:
	user time   =      28.89 seconds =       0.48 minutes
	system time =       4.51 seconds =       0.08 minutes
	total time  =          2 seconds =       0.03 minutes
Total time:
	user time   =      28.89 seconds =       0.48 minutes
	system time =       4.51 seconds =       0.08 minutes
	total time  =          2 seconds =       0.03 minutes

*** tstart() called on ddmfs1
*** at Mon Jan 22 11:57:06 2024


  //>>>>>>>>>>>>>>>>>>>>>>>>>>>>>>>>>>>//
  //               DFMP2               //
  //<<<<<<<<<<<<<<<<<<<<<<<<<<<<<<<<<<<//

   => Loading Basis Set <=

    Name: (AUG-CC-PVTZ AUX)
    Role: RIFIT
    Keyword: DF_BASIS_MP2
    atoms 1   entry NA         line   610 file /ddmfs1b/softs/psi4conda/share/psi4/basis/def2-qzvpp-ri.gbs 
    atoms 2-3 entry F          line   322 file /ddmfs1b/softs/psi4conda/share/psi4/basis/aug-cc-pvtz-ri.gbs 

	 --------------------------------------------------------
	                          DF-MP2                         
	      2nd-Order Density-Fitted Moller-Plesset Theory     
	              RMP2 Wavefunction,  20 Threads             
	                                                         
	        Rob Parrish, Justin Turney, Andy Simmonett,      
	           Ed Hohenstein, and C. David Sherrill          
	 --------------------------------------------------------

   => Auxiliary Basis Set <=

  Basis Set: (AUG-CC-PVTZ AUX)
    Blend: AUG-CC-PVTZ-RI + DEF2-QZVPP-RI
    Number of shells: 98
    Number of basis functions: 378
    Number of Cartesian functions: 486
    Spherical Harmonics?: true
    Max angular momentum: 4

	 --------------------------------------------------------
	                 NBF =   142, NAUX =   378
	 --------------------------------------------------------
	   CLASS    FOCC     OCC    AOCC    AVIR     VIR    FVIR
	   PAIRS       0      15      15     127     127       0
	 --------------------------------------------------------

	-----------------------------------------------------------
	 ==================> DF-MP2 Energies <==================== 
	-----------------------------------------------------------
	 Reference Energy          =    -360.8510246785379536 [Eh]
	 Singles Energy            =      -0.0000000000000000 [Eh]
	 Same-Spin Energy          =      -0.1646756398557477 [Eh]
	 Opposite-Spin Energy      =      -0.4605279279822895 [Eh]
	 Correlation Energy        =      -0.6252035678380372 [Eh]
	 Total Energy              =    -361.4762282463759675 [Eh]
	-----------------------------------------------------------
	 ================> DF-SCS-MP2 Energies <================== 
	-----------------------------------------------------------
	 SCS Same-Spin Scale       =       0.3333333333333333 [-]
	 SCS Opposite-Spin Scale   =       1.2000000000000000 [-]
	 SCS Same-Spin Energy      =      -0.0548918799519159 [Eh]
	 SCS Opposite-Spin Energy  =      -0.5526335135787473 [Eh]
	 SCS Correlation Energy    =      -0.6075253935306633 [Eh]
	 SCS Total Energy          =    -361.4585500720685900 [Eh]
	-----------------------------------------------------------


*** tstop() called on ddmfs1 at Mon Jan 22 11:57:09 2024
Module time:
	user time   =       9.89 seconds =       0.16 minutes
	system time =       0.97 seconds =       0.02 minutes
	total time  =          3 seconds =       0.05 minutes
Total time:
	user time   =      38.79 seconds =       0.65 minutes
	system time =       5.48 seconds =       0.09 minutes
	total time  =          5 seconds =       0.08 minutes

    Psi4 stopped on: Monday, 22 January 2024 11:57AM
    Psi4 wall time for execution: 0:00:04.87

*** Psi4 exiting successfully. Buy a developer a beer!
