
    -----------------------------------------------------------------------
          Psi4: An Open-Source Ab Initio Electronic Structure Package
                               Psi4 1.8.2 release

                         Git: Rev {} zzzzzzz 


    D. G. A. Smith, L. A. Burns, A. C. Simmonett, R. M. Parrish,
    M. C. Schieber, R. Galvelis, P. Kraus, H. Kruse, R. Di Remigio,
    A. Alenaizan, A. M. James, S. Lehtola, J. P. Misiewicz, M. Scheurer,
    R. A. Shaw, J. B. Schriber, Y. Xie, Z. L. Glick, D. A. Sirianni,
    J. S. O'Brien, J. M. Waldrop, A. Kumar, E. G. Hohenstein,
    B. P. Pritchard, B. R. Brooks, H. F. Schaefer III, A. Yu. Sokolov,
    K. Patkowski, A. E. DePrince III, U. Bozkaya, R. A. King,
    F. A. Evangelista, J. M. Turney, T. D. Crawford, C. D. Sherrill,
    J. Chem. Phys. 152(18) 184108 (2020). https://doi.org/10.1063/5.0006002

                            Additional Code Authors
    E. T. Seidl, C. L. Janssen, E. F. Valeev, M. L. Leininger,
    J. F. Gonthier, R. M. Richard, H. R. McAlexander, M. Saitow, X. Wang,
    P. Verma, M. H. Lechner, A. Jiang, S. Behnle, A. G. Heide,
    M. F. Herbst, and D. L. Poole

             Previous Authors, Complete List of Code Contributors,
                       and Citations for Specific Modules
    https://github.com/psi4/psi4/blob/master/codemeta.json
    https://github.com/psi4/psi4/graphs/contributors
    http://psicode.org/psi4manual/master/introduction.html#citing-psifour

    -----------------------------------------------------------------------


    Psi4 started on: Monday, 22 January 2024 11:56AM

    Process ID: 45285
    Host:       ddmfs1
    PSIDATADIR: /ddmfs1b/softs/psi4conda/share/psi4
    Memory:     500.0 MiB
    Threads:    20
    
  ==> Input File <==

--------------------------------------------------------------------------
MEMORY 60 GB

molecule dimer {
-1 1
Gh(Na)     0.000000     0.000000     0.000000
F          0.000000     1.939580     0.000000
Gh(F)      2.909370     0.000000     0.000000

units ang
no_reorient
no_com
symmetry c1
}

set {
basis        aug-cc-pVTZ
scf_type     df
}

energy("mp2")
--------------------------------------------------------------------------

  Memory set to  55.879 GiB by Python driver.

Scratch directory: /ddmfs1a/scratch/
   => Libint2 <=

    Primary   basis highest AM E, G, H:  5, 4, 3
    Auxiliary basis highest AM E, G, H:  6, 5, 4
    Onebody   basis highest AM E, G, H:  6, 5, 4
    Solid Harmonics ordering:            gaussian

*** tstart() called on ddmfs1
*** at Mon Jan 22 11:56:54 2024

   => Loading Basis Set <=

    Name: AUG-CC-PVTZ
    Role: ORBITAL
    Keyword: BASIS
    atoms 1   entry NA         line   469 file /ddmfs1b/softs/psi4conda/share/psi4/basis/aug-cc-pvtz.gbs 
    atoms 2-3 entry F          line   377 file /ddmfs1b/softs/psi4conda/share/psi4/basis/aug-cc-pvtz.gbs 


         ---------------------------------------------------------
                                   SCF
               by Justin Turney, Rob Parrish, Andy Simmonett
                          and Daniel G. A. Smith
                              RHF Reference
                       20 Threads,  57220 MiB Core
         ---------------------------------------------------------

  ==> Geometry <==

    Molecular point group: c1
    Full point group: Cs

    Geometry (in Angstrom), charge = -1, multiplicity = 1:

       Center              X                  Y                   Z               Mass       
    ------------   -----------------  -----------------  -----------------  -----------------
      Gh(NA)          0.000000000000     0.000000000000     0.000000000000    22.989769282000
         F            0.000000000000     1.939580000000     0.000000000000    18.998403162730
      Gh(F)           2.909370000000     0.000000000000     0.000000000000    18.998403162730

  Running in c1 symmetry.

  Rotational constants: A =      0.23587  B =      0.10483  C =      0.07257 [cm^-1]
  Rotational constants: A =   7071.06298  B =   3142.69466  C =   2175.71169 [MHz]
  Nuclear repulsion =    0.000000000000000

  Charge       = -1
  Multiplicity = 1
  Electrons    = 10
  Nalpha       = 5
  Nbeta        = 5

  ==> Algorithm <==

  SCF Algorithm Type is DF.
  DIIS enabled.
  MOM disabled.
  Fractional occupation disabled.
  Guess Type is SAD.
  Energy threshold   = 1.00e-08
  Density threshold  = 1.00e-08
  Integral threshold = 1.00e-12

  ==> Primary Basis <==

  Basis Set: AUG-CC-PVTZ
    Blend: AUG-CC-PVTZ
    Number of shells: 44
    Number of basis functions: 142
    Number of Cartesian functions: 169
    Spherical Harmonics?: true
    Max angular momentum: 3

   => Loading Basis Set <=

    Name: (AUG-CC-PVTZ AUX)
    Role: JKFIT
    Keyword: DF_BASIS_SCF
    atoms 1   entry NA         line   498 file /ddmfs1b/softs/psi4conda/share/psi4/basis/def2-universal-jkfit.gbs 
    atoms 2-3 entry F          line   348 file /ddmfs1b/softs/psi4conda/share/psi4/basis/aug-cc-pvtz-jkfit.gbs 

  ==> Integral Setup <==

  DFHelper Memory: AOs need 0.054 GiB; user supplied 41.910 GiB. 
  Using in-core AOs.

  ==> MemDFJK: Density-Fitted J/K Matrices <==

    J tasked:                   Yes
    K tasked:                   Yes
    wK tasked:                   No
    OpenMP threads:              20
    Memory [MiB]:             42915
    Algorithm:                 Core
    Schwarz Cutoff:           1E-12
    Mask sparsity (%):       3.1244
    Fitting Condition:        1E-10

   => Auxiliary Basis Set <=

  Basis Set: (AUG-CC-PVTZ AUX)
    Blend: AUG-CC-PVTZ-JKFIT + DEF2-UNIVERSAL-JKFIT
    Number of shells: 94
    Number of basis functions: 320
    Number of Cartesian functions: 399
    Spherical Harmonics?: true
    Max angular momentum: 4

  Minimum eigenvalue in the overlap matrix is 1.0503296222E-04.
  Reciprocal condition number of the overlap matrix is 2.1198569027E-05.
    Using symmetric orthogonalization.

  ==> Pre-Iterations <==

  SCF Guess: Superposition of Atomic Densities via on-the-fly atomic UHF (no occupation information).

   -------------------------
    Irrep   Nso     Nmo    
   -------------------------
     A        142     142 
   -------------------------
    Total     142     142
   -------------------------

  ==> Iterations <==

                           Total Energy        Delta E     RMS |[F,P]|

   @DF-RHF iter SAD:   -98.82535132331670   -9.88254e+01   0.00000e+00 
   @DF-RHF iter   1:   -99.33775985536688   -5.12409e-01   3.84633e-03 DIIS/ADIIS
   @DF-RHF iter   2:   -99.37261532463330   -3.48555e-02   3.75935e-03 DIIS/ADIIS
   @DF-RHF iter   3:   -99.45078423497523   -7.81689e-02   1.15365e-04 DIIS/ADIIS
   @DF-RHF iter   4:   -99.45085051091293   -6.62759e-05   4.45552e-05 DIIS
   @DF-RHF iter   5:   -99.45086089135850   -1.03804e-05   2.95106e-06 DIIS
   @DF-RHF iter   6:   -99.45086099498488   -1.03626e-07   2.46694e-07 DIIS
   @DF-RHF iter   7:   -99.45086099581140   -8.26518e-10   3.06417e-08 DIIS
   @DF-RHF iter   8:   -99.45086099583396   -2.25668e-11   2.90967e-09 DIIS
  Energy and wave function converged.


  ==> Post-Iterations <==

    Orbital Energies [Eh]
    ---------------------

    Doubly Occupied:                                                      

       1A    -25.833847     2A     -1.076089     3A     -0.181037  
       4A     -0.181019     5A     -0.181015  

    Virtual:                                                              

       6A      0.079902     7A      0.087583     8A      0.088399  
       9A      0.100654    10A      0.148171    11A      0.152156  
      12A      0.154541    13A      0.175827    14A      0.176731  
      15A      0.179945    16A      0.192076    17A      0.193917  
      18A      0.204455    19A      0.268954    20A      0.295072  
      21A      0.296741    22A      0.327300    23A      0.353108  
      24A      0.354463    25A      0.365202    26A      0.396113  
      27A      0.398350    28A      0.403066    29A      0.407275  
      30A      0.410198    31A      0.446943    32A      0.449938  
      33A      0.457002    34A      0.473635    35A      0.481989  
      36A      0.498366    37A      0.516834    38A      0.521846  
      39A      0.526045    40A      0.534460    41A      0.555389  
      42A      0.617461    43A      0.636587    44A      0.692370  
      45A      0.832879    46A      0.877981    47A      0.900591  
      48A      0.900802    49A      0.906432    50A      0.922308  
      51A      0.922697    52A      0.944168    53A      0.957116  
      54A      0.984321    55A      1.017112    56A      1.042611  
      57A      1.046761    58A      1.067364    59A      1.069461  
      60A      1.132977    61A      1.140703    62A      1.147472  
      63A      1.184436    64A      1.281244    65A      1.285990  
      66A      1.326251    67A      1.380573    68A      1.393773  
      69A      1.465880    70A      1.467007    71A      1.516213  
      72A      1.585880    73A      1.867690    74A      1.916576  
      75A      2.002030    76A      2.638203    77A      3.198091  
      78A      3.204166    79A      3.231784    80A      3.232420  
      81A      3.237427    82A      3.242857    83A      3.251199  
      84A      3.278182    85A      3.284421    86A      3.320130  
      87A      3.331140    88A      3.334971    89A      3.342375  
      90A      3.344150    91A      3.350123    92A      3.357277  
      93A      3.369737    94A      3.416806    95A      3.437439  
      96A      3.454451    97A      3.491714    98A      3.552726  
      99A      3.596425   100A      3.718854   101A      3.733054  
     102A      3.806979   103A      3.837885   104A      3.928252  
     105A      4.815659   106A      5.864990   107A      5.885945  
     108A      5.914847   109A      6.586076   110A      6.746217  
     111A      7.460132   112A      9.280425   113A      9.280428  
     114A      9.315206   115A      9.315987   116A      9.317125  
     117A      9.325888   118A      9.377666   119A      9.719576  
     120A      9.809057   121A      9.820802   122A      9.917624  
     123A      9.925174   124A      9.926419   125A     10.305068  
     126A     10.305639   127A     10.312053   128A     10.313008  
     129A     10.331613   130A     10.340265   131A     10.348285  
     132A     12.310049   133A     13.105497   134A     13.111689  
     135A     13.155386   136A     13.174365   137A     13.216412  
     138A     14.396203   139A     14.407360   140A     14.526392  
     141A     64.778679   142A     67.791571  

    Final Occupation by Irrep:
              A 
    DOCC [     5 ]
    NA   [     5 ]
    NB   [     5 ]

  @DF-RHF Final Energy:   -99.45086099583396

   => Energetics <=

    Nuclear Repulsion Energy =              0.0000000000000000
    One-Electron Energy =                -143.9957068100043500
    Two-Electron Energy =                  44.5448458141703796
    Total Energy =                        -99.4508609958339775

Computation Completed


Properties will be evaluated at   0.000000,   0.000000,   0.000000 [a0]

Properties computed using the SCF density matrix


 Multipole Moments:

 ------------------------------------------------------------------------------------
     Multipole            Electronic (a.u.)      Nuclear  (a.u.)        Total (a.u.)
 ------------------------------------------------------------------------------------

 L = 1.  Multiply by 2.5417464519 to convert [e a0] to [Debye]
 Dipole X            :          0.0000082            0.0000000            0.0000082
 Dipole Y            :        -36.6535305           32.9874750           -3.6660555
 Dipole Z            :          0.0000000            0.0000000            0.0000000
 Magnitude           :                                                    3.6660555

 ------------------------------------------------------------------------------------

*** tstop() called on ddmfs1 at Mon Jan 22 11:56:55 2024
Module time:
	user time   =      19.70 seconds =       0.33 minutes
	system time =       2.61 seconds =       0.04 minutes
	total time  =          1 seconds =       0.02 minutes
Total time:
	user time   =      19.70 seconds =       0.33 minutes
	system time =       2.61 seconds =       0.04 minutes
	total time  =          1 seconds =       0.02 minutes

*** tstart() called on ddmfs1
*** at Mon Jan 22 11:56:55 2024


  //>>>>>>>>>>>>>>>>>>>>>>>>>>>>>>>>>>>//
  //               DFMP2               //
  //<<<<<<<<<<<<<<<<<<<<<<<<<<<<<<<<<<<//

   => Loading Basis Set <=

    Name: (AUG-CC-PVTZ AUX)
    Role: RIFIT
    Keyword: DF_BASIS_MP2
    atoms 1   entry NA         line   610 file /ddmfs1b/softs/psi4conda/share/psi4/basis/def2-qzvpp-ri.gbs 
    atoms 2-3 entry F          line   322 file /ddmfs1b/softs/psi4conda/share/psi4/basis/aug-cc-pvtz-ri.gbs 

	 --------------------------------------------------------
	                          DF-MP2                         
	      2nd-Order Density-Fitted Moller-Plesset Theory     
	              RMP2 Wavefunction,  20 Threads             
	                                                         
	        Rob Parrish, Justin Turney, Andy Simmonett,      
	           Ed Hohenstein, and C. David Sherrill          
	 --------------------------------------------------------

   => Auxiliary Basis Set <=

  Basis Set: (AUG-CC-PVTZ AUX)
    Blend: AUG-CC-PVTZ-RI + DEF2-QZVPP-RI
    Number of shells: 98
    Number of basis functions: 378
    Number of Cartesian functions: 486
    Spherical Harmonics?: true
    Max angular momentum: 4

	 --------------------------------------------------------
	                 NBF =   142, NAUX =   378
	 --------------------------------------------------------
	   CLASS    FOCC     OCC    AOCC    AVIR     VIR    FVIR
	   PAIRS       0       5       5     137     137       0
	 --------------------------------------------------------

	-----------------------------------------------------------
	 ==================> DF-MP2 Energies <==================== 
	-----------------------------------------------------------
	 Reference Energy          =     -99.4508609958339633 [Eh]
	 Singles Energy            =      -0.0000000000000000 [Eh]
	 Same-Spin Energy          =      -0.0817164477705428 [Eh]
	 Opposite-Spin Energy      =      -0.2272495505745986 [Eh]
	 Correlation Energy        =      -0.3089659983451414 [Eh]
	 Total Energy              =     -99.7598269941791074 [Eh]
	-----------------------------------------------------------
	 ================> DF-SCS-MP2 Energies <================== 
	-----------------------------------------------------------
	 SCS Same-Spin Scale       =       0.3333333333333333 [-]
	 SCS Opposite-Spin Scale   =       1.2000000000000000 [-]
	 SCS Same-Spin Energy      =      -0.0272388159235143 [Eh]
	 SCS Opposite-Spin Energy  =      -0.2726994606895183 [Eh]
	 SCS Correlation Energy    =      -0.2999382766130326 [Eh]
	 SCS Total Energy          =     -99.7507992724469972 [Eh]
	-----------------------------------------------------------


*** tstop() called on ddmfs1 at Mon Jan 22 11:56:58 2024
Module time:
	user time   =       9.39 seconds =       0.16 minutes
	system time =       1.10 seconds =       0.02 minutes
	total time  =          3 seconds =       0.05 minutes
Total time:
	user time   =      29.11 seconds =       0.49 minutes
	system time =       3.71 seconds =       0.06 minutes
	total time  =          4 seconds =       0.07 minutes

    Psi4 stopped on: Monday, 22 January 2024 11:56AM
    Psi4 wall time for execution: 0:00:04.22

*** Psi4 exiting successfully. Buy a developer a beer!
