
    -----------------------------------------------------------------------
          Psi4: An Open-Source Ab Initio Electronic Structure Package
                               Psi4 1.8.2 release

                         Git: Rev {} zzzzzzz 


    D. G. A. Smith, L. A. Burns, A. C. Simmonett, R. M. Parrish,
    M. C. Schieber, R. Galvelis, P. Kraus, H. Kruse, R. Di Remigio,
    A. Alenaizan, A. M. James, S. Lehtola, J. P. Misiewicz, M. Scheurer,
    R. A. Shaw, J. B. Schriber, Y. Xie, Z. L. Glick, D. A. Sirianni,
    J. S. O'Brien, J. M. Waldrop, A. Kumar, E. G. Hohenstein,
    B. P. Pritchard, B. R. Brooks, H. F. Schaefer III, A. Yu. Sokolov,
    K. Patkowski, A. E. DePrince III, U. Bozkaya, R. A. King,
    F. A. Evangelista, J. M. Turney, T. D. Crawford, C. D. Sherrill,
    J. Chem. Phys. 152(18) 184108 (2020). https://doi.org/10.1063/5.0006002

                            Additional Code Authors
    E. T. Seidl, C. L. Janssen, E. F. Valeev, M. L. Leininger,
    J. F. Gonthier, R. M. Richard, H. R. McAlexander, M. Saitow, X. Wang,
    P. Verma, M. H. Lechner, A. Jiang, S. Behnle, A. G. Heide,
    M. F. Herbst, and D. L. Poole

             Previous Authors, Complete List of Code Contributors,
                       and Citations for Specific Modules
    https://github.com/psi4/psi4/blob/master/codemeta.json
    https://github.com/psi4/psi4/graphs/contributors
    http://psicode.org/psi4manual/master/introduction.html#citing-psifour

    -----------------------------------------------------------------------


    Psi4 started on: Monday, 22 January 2024 11:56AM

    Process ID: 45242
    Host:       ddmfs1
    PSIDATADIR: /ddmfs1b/softs/psi4conda/share/psi4
    Memory:     500.0 MiB
    Threads:    20
    
  ==> Input File <==

--------------------------------------------------------------------------
MEMORY 60 GB

molecule dimer {
-1 1
Na         0.000000     0.000000     0.000000
F          0.000000     1.939580     0.000000
F          2.715412     0.000000     0.000000

units ang
no_reorient
no_com
symmetry c1
}

set {
basis        aug-cc-pVTZ
scf_type     df
}

energy("mp2")
--------------------------------------------------------------------------

  Memory set to  55.879 GiB by Python driver.

Scratch directory: /ddmfs1a/scratch/
   => Libint2 <=

    Primary   basis highest AM E, G, H:  5, 4, 3
    Auxiliary basis highest AM E, G, H:  6, 5, 4
    Onebody   basis highest AM E, G, H:  6, 5, 4
    Solid Harmonics ordering:            gaussian

*** tstart() called on ddmfs1
*** at Mon Jan 22 11:56:43 2024

   => Loading Basis Set <=

    Name: AUG-CC-PVTZ
    Role: ORBITAL
    Keyword: BASIS
    atoms 1   entry NA         line   469 file /ddmfs1b/softs/psi4conda/share/psi4/basis/aug-cc-pvtz.gbs 
    atoms 2-3 entry F          line   377 file /ddmfs1b/softs/psi4conda/share/psi4/basis/aug-cc-pvtz.gbs 


         ---------------------------------------------------------
                                   SCF
               by Justin Turney, Rob Parrish, Andy Simmonett
                          and Daniel G. A. Smith
                              RHF Reference
                       20 Threads,  57220 MiB Core
         ---------------------------------------------------------

  ==> Geometry <==

    Molecular point group: c1
    Full point group: Cs

    Geometry (in Angstrom), charge = -1, multiplicity = 1:

       Center              X                  Y                   Z               Mass       
    ------------   -----------------  -----------------  -----------------  -----------------
         NA           0.000000000000     0.000000000000     0.000000000000    22.989769282000
         F            0.000000000000     1.939580000000     0.000000000000    18.998403162730
         F            2.715412000000     0.000000000000     0.000000000000    18.998403162730

  Running in c1 symmetry.

  Rotational constants: A =      0.23587  B =      0.12034  C =      0.07968 [cm^-1]
  Rotational constants: A =   7071.06298  B =   3607.68519  C =   2388.87263 [MHz]
  Nuclear repulsion =   59.148243855987133

  Charge       = -1
  Multiplicity = 1
  Electrons    = 30
  Nalpha       = 15
  Nbeta        = 15

  ==> Algorithm <==

  SCF Algorithm Type is DF.
  DIIS enabled.
  MOM disabled.
  Fractional occupation disabled.
  Guess Type is SAD.
  Energy threshold   = 1.00e-08
  Density threshold  = 1.00e-08
  Integral threshold = 1.00e-12

  ==> Primary Basis <==

  Basis Set: AUG-CC-PVTZ
    Blend: AUG-CC-PVTZ
    Number of shells: 44
    Number of basis functions: 142
    Number of Cartesian functions: 169
    Spherical Harmonics?: true
    Max angular momentum: 3

   => Loading Basis Set <=

    Name: (AUG-CC-PVTZ AUX)
    Role: JKFIT
    Keyword: DF_BASIS_SCF
    atoms 1   entry NA         line   498 file /ddmfs1b/softs/psi4conda/share/psi4/basis/def2-universal-jkfit.gbs 
    atoms 2-3 entry F          line   348 file /ddmfs1b/softs/psi4conda/share/psi4/basis/aug-cc-pvtz-jkfit.gbs 

  ==> Integral Setup <==

  DFHelper Memory: AOs need 0.055 GiB; user supplied 41.910 GiB. 
  Using in-core AOs.

  ==> MemDFJK: Density-Fitted J/K Matrices <==

    J tasked:                   Yes
    K tasked:                   Yes
    wK tasked:                   No
    OpenMP threads:              20
    Memory [MiB]:             42915
    Algorithm:                 Core
    Schwarz Cutoff:           1E-12
    Mask sparsity (%):       2.7078
    Fitting Condition:        1E-10

   => Auxiliary Basis Set <=

  Basis Set: (AUG-CC-PVTZ AUX)
    Blend: AUG-CC-PVTZ-JKFIT + DEF2-UNIVERSAL-JKFIT
    Number of shells: 94
    Number of basis functions: 320
    Number of Cartesian functions: 399
    Spherical Harmonics?: true
    Max angular momentum: 4

  Minimum eigenvalue in the overlap matrix is 1.0382375027E-04.
  Reciprocal condition number of the overlap matrix is 2.0702151452E-05.
    Using symmetric orthogonalization.

  ==> Pre-Iterations <==

  SCF Guess: Superposition of Atomic Densities via on-the-fly atomic UHF (no occupation information).

   -------------------------
    Irrep   Nso     Nmo    
   -------------------------
     A        142     142 
   -------------------------
    Total     142     142
   -------------------------

  ==> Iterations <==

                           Total Energy        Delta E     RMS |[F,P]|

   @DF-RHF iter SAD:  -359.47086617574951   -3.59471e+02   0.00000e+00 
   @DF-RHF iter   1:  -360.64124795987584   -1.17038e+00   5.38594e-03 DIIS/ADIIS
   @DF-RHF iter   2:  -360.72564253464162   -8.43946e-02   4.92589e-03 DIIS/ADIIS
   @DF-RHF iter   3:  -360.85576476778908   -1.30122e-01   1.71005e-04 DIIS/ADIIS
   @DF-RHF iter   4:  -360.85592567615612   -1.60908e-04   9.72947e-05 DIIS
   @DF-RHF iter   5:  -360.85597695931381   -5.12832e-05   2.43403e-05 DIIS
   @DF-RHF iter   6:  -360.85598257025504   -5.61094e-06   4.13414e-06 DIIS
   @DF-RHF iter   7:  -360.85598315387102   -5.83616e-07   1.06276e-06 DIIS
   @DF-RHF iter   8:  -360.85598319669987   -4.28288e-08   2.20925e-07 DIIS
   @DF-RHF iter   9:  -360.85598319854358   -1.84372e-09   5.54586e-08 DIIS
   @DF-RHF iter  10:  -360.85598319866898   -1.25397e-10   1.43147e-08 DIIS
   @DF-RHF iter  11:  -360.85598319867711   -8.12861e-12   2.24840e-09 DIIS
  Energy and wave function converged.


  ==> Post-Iterations <==

    Orbital Energies [Eh]
    ---------------------

    Doubly Occupied:                                                      

       1A    -40.270622     2A    -25.909366     3A    -25.868662  
       4A     -2.595291     5A     -1.322321     6A     -1.319732  
       7A     -1.316853     8A     -1.162609     9A     -1.111960  
      10A     -0.280767    11A     -0.268513    12A     -0.268273  
      13A     -0.218098    14A     -0.216508    15A     -0.215732  

    Virtual:                                                              

      16A      0.070731    17A      0.085638    18A      0.086840  
      19A      0.104741    20A      0.120256    21A      0.136665  
      22A      0.142838    23A      0.161617    24A      0.173084  
      25A      0.173696    26A      0.191367    27A      0.191714  
      28A      0.200666    29A      0.246852    30A      0.260908  
      31A      0.267680    32A      0.318708    33A      0.354615  
      34A      0.358429    35A      0.360814    36A      0.370091  
      37A      0.379275    38A      0.403713    39A      0.414962  
      40A      0.417741    41A      0.433944    42A      0.460284  
      43A      0.472030    44A      0.476631    45A      0.483540  
      46A      0.489900    47A      0.505207    48A      0.513030  
      49A      0.515947    50A      0.535374    51A      0.548463  
      52A      0.587537    53A      0.615380    54A      0.726109  
      55A      0.737509    56A      0.751177    57A      0.754626  
      58A      0.765874    59A      0.792182    60A      0.870728  
      61A      0.883157    62A      0.896293    63A      0.913811  
      64A      0.943384    65A      0.950493    66A      0.990644  
      67A      1.146048    68A      1.233300    69A      1.237238  
      70A      1.290268    71A      1.307590    72A      1.325743  
      73A      1.385448    74A      1.397872    75A      1.401962  
      76A      1.411566    77A      1.421168    78A      1.573030  
      79A      1.579517    80A      1.766843    81A      1.772989  
      82A      1.854765    83A      1.951878    84A      2.312126  
      85A      2.365186    86A      2.606074    87A      3.225914  
      88A      3.227678    89A      3.232511    90A      3.234536  
      91A      3.253050    92A      3.254773    93A      3.262073  
      94A      3.274867    95A      3.277239    96A      3.290692  
      97A      3.296660    98A      3.300843    99A      3.303903  
     100A      3.304892   101A      3.306377   102A      3.333371  
     103A      3.353567   104A      3.388352   105A      3.429133  
     106A      3.450420   107A      3.463305   108A      3.471963  
     109A      3.503216   110A      3.568272   111A      5.690492  
     112A      5.690787   113A      5.782637   114A      5.811862  
     115A      5.892897   116A      5.991912   117A      9.196837  
     118A      9.197756   119A      9.214942   120A      9.216019  
     121A      9.218205   122A      9.223149   123A      9.231613  
     124A      9.242716   125A      9.243308   126A      9.251290  
     127A      9.253852   128A      9.270802   129A      9.276039  
     130A      9.309903   131A      9.723819   132A      9.724458  
     133A      9.745550   134A      9.758071   135A      9.785646  
     136A      9.805114   137A      9.823585   138A      9.833020  
     139A      9.848966   140A      9.879906   141A     11.677998  
     142A     12.309600  

    Final Occupation by Irrep:
              A 
    DOCC [    15 ]
    NA   [    15 ]
    NB   [    15 ]

  @DF-RHF Final Energy:  -360.85598319867711

   => Energetics <=

    Nuclear Repulsion Energy =             59.1482438559871326
    One-Electron Energy =                -635.3178388528034475
    Two-Electron Energy =                 215.3136117981391919
    Total Energy =                       -360.8559831986771087

Computation Completed


Properties will be evaluated at   0.000000,   0.000000,   0.000000 [a0]

Properties computed using the SCF density matrix


 Multipole Moments:

 ------------------------------------------------------------------------------------
     Multipole            Electronic (a.u.)      Nuclear  (a.u.)        Total (a.u.)
 ------------------------------------------------------------------------------------

 L = 1.  Multiply by 2.5417464519 to convert [e a0] to [Debye]
 Dipole X            :        -51.0090020           46.1824650           -4.8265370
 Dipole Y            :        -36.3130919           32.9874750           -3.3256170
 Dipole Z            :          0.0000000            0.0000000            0.0000000
 Magnitude           :                                                    5.8613298

 ------------------------------------------------------------------------------------

*** tstop() called on ddmfs1 at Mon Jan 22 11:56:45 2024
Module time:
	user time   =      29.48 seconds =       0.49 minutes
	system time =       4.75 seconds =       0.08 minutes
	total time  =          2 seconds =       0.03 minutes
Total time:
	user time   =      29.48 seconds =       0.49 minutes
	system time =       4.75 seconds =       0.08 minutes
	total time  =          2 seconds =       0.03 minutes

*** tstart() called on ddmfs1
*** at Mon Jan 22 11:56:45 2024


  //>>>>>>>>>>>>>>>>>>>>>>>>>>>>>>>>>>>//
  //               DFMP2               //
  //<<<<<<<<<<<<<<<<<<<<<<<<<<<<<<<<<<<//

   => Loading Basis Set <=

    Name: (AUG-CC-PVTZ AUX)
    Role: RIFIT
    Keyword: DF_BASIS_MP2
    atoms 1   entry NA         line   610 file /ddmfs1b/softs/psi4conda/share/psi4/basis/def2-qzvpp-ri.gbs 
    atoms 2-3 entry F          line   322 file /ddmfs1b/softs/psi4conda/share/psi4/basis/aug-cc-pvtz-ri.gbs 

	 --------------------------------------------------------
	                          DF-MP2                         
	      2nd-Order Density-Fitted Moller-Plesset Theory     
	              RMP2 Wavefunction,  20 Threads             
	                                                         
	        Rob Parrish, Justin Turney, Andy Simmonett,      
	           Ed Hohenstein, and C. David Sherrill          
	 --------------------------------------------------------

   => Auxiliary Basis Set <=

  Basis Set: (AUG-CC-PVTZ AUX)
    Blend: AUG-CC-PVTZ-RI + DEF2-QZVPP-RI
    Number of shells: 98
    Number of basis functions: 378
    Number of Cartesian functions: 486
    Spherical Harmonics?: true
    Max angular momentum: 4

	 --------------------------------------------------------
	                 NBF =   142, NAUX =   378
	 --------------------------------------------------------
	   CLASS    FOCC     OCC    AOCC    AVIR     VIR    FVIR
	   PAIRS       0      15      15     127     127       0
	 --------------------------------------------------------

	-----------------------------------------------------------
	 ==================> DF-MP2 Energies <==================== 
	-----------------------------------------------------------
	 Reference Energy          =    -360.8559831986771087 [Eh]
	 Singles Energy            =      -0.0000000000000000 [Eh]
	 Same-Spin Energy          =      -0.1647300978909556 [Eh]
	 Opposite-Spin Energy      =      -0.4606902829734772 [Eh]
	 Correlation Energy        =      -0.6254203808644327 [Eh]
	 Total Energy              =    -361.4814035795415634 [Eh]
	-----------------------------------------------------------
	 ================> DF-SCS-MP2 Energies <================== 
	-----------------------------------------------------------
	 SCS Same-Spin Scale       =       0.3333333333333333 [-]
	 SCS Opposite-Spin Scale   =       1.2000000000000000 [-]
	 SCS Same-Spin Energy      =      -0.0549100326303185 [Eh]
	 SCS Opposite-Spin Energy  =      -0.5528283395681726 [Eh]
	 SCS Correlation Energy    =      -0.6077383721984911 [Eh]
	 SCS Total Energy          =    -361.4637215708755775 [Eh]
	-----------------------------------------------------------


*** tstop() called on ddmfs1 at Mon Jan 22 11:56:48 2024
Module time:
	user time   =       9.89 seconds =       0.16 minutes
	system time =       1.04 seconds =       0.02 minutes
	total time  =          3 seconds =       0.05 minutes
Total time:
	user time   =      39.38 seconds =       0.66 minutes
	system time =       5.79 seconds =       0.10 minutes
	total time  =          5 seconds =       0.08 minutes

    Psi4 stopped on: Monday, 22 January 2024 11:56AM
    Psi4 wall time for execution: 0:00:04.91

*** Psi4 exiting successfully. Buy a developer a beer!
