
    -----------------------------------------------------------------------
          Psi4: An Open-Source Ab Initio Electronic Structure Package
                               Psi4 1.8.2 release

                         Git: Rev {} zzzzzzz 


    D. G. A. Smith, L. A. Burns, A. C. Simmonett, R. M. Parrish,
    M. C. Schieber, R. Galvelis, P. Kraus, H. Kruse, R. Di Remigio,
    A. Alenaizan, A. M. James, S. Lehtola, J. P. Misiewicz, M. Scheurer,
    R. A. Shaw, J. B. Schriber, Y. Xie, Z. L. Glick, D. A. Sirianni,
    J. S. O'Brien, J. M. Waldrop, A. Kumar, E. G. Hohenstein,
    B. P. Pritchard, B. R. Brooks, H. F. Schaefer III, A. Yu. Sokolov,
    K. Patkowski, A. E. DePrince III, U. Bozkaya, R. A. King,
    F. A. Evangelista, J. M. Turney, T. D. Crawford, C. D. Sherrill,
    J. Chem. Phys. 152(18) 184108 (2020). https://doi.org/10.1063/5.0006002

                            Additional Code Authors
    E. T. Seidl, C. L. Janssen, E. F. Valeev, M. L. Leininger,
    J. F. Gonthier, R. M. Richard, H. R. McAlexander, M. Saitow, X. Wang,
    P. Verma, M. H. Lechner, A. Jiang, S. Behnle, A. G. Heide,
    M. F. Herbst, and D. L. Poole

             Previous Authors, Complete List of Code Contributors,
                       and Citations for Specific Modules
    https://github.com/psi4/psi4/blob/master/codemeta.json
    https://github.com/psi4/psi4/graphs/contributors
    http://psicode.org/psi4manual/master/introduction.html#citing-psifour

    -----------------------------------------------------------------------


    Psi4 started on: Monday, 22 January 2024 12:01PM

    Process ID: 45980
    Host:       ddmfs1
    PSIDATADIR: /ddmfs1b/softs/psi4conda/share/psi4
    Memory:     500.0 MiB
    Threads:    20
    
  ==> Input File <==

--------------------------------------------------------------------------
MEMORY 60 GB

molecule dimer {
1 1
Gh(Cl)     0.000000     0.000000     0.000000
Na         0.000000     2.370103     0.000000
Gh(Na)     4.740206     0.000000     0.000000

units ang
no_reorient
no_com
symmetry c1
}

set {
basis        aug-cc-pVTZ
scf_type     df
}

energy("mp2")
--------------------------------------------------------------------------

  Memory set to  55.879 GiB by Python driver.

Scratch directory: /ddmfs1a/scratch/
   => Libint2 <=

    Primary   basis highest AM E, G, H:  5, 4, 3
    Auxiliary basis highest AM E, G, H:  6, 5, 4
    Onebody   basis highest AM E, G, H:  6, 5, 4
    Solid Harmonics ordering:            gaussian

*** tstart() called on ddmfs1
*** at Mon Jan 22 12:01:50 2024

   => Loading Basis Set <=

    Name: AUG-CC-PVTZ
    Role: ORBITAL
    Keyword: BASIS
    atoms 1   entry CL         line   988 file /ddmfs1b/softs/psi4conda/share/psi4/basis/aug-cc-pvtz.gbs 
    atoms 2-3 entry NA         line   469 file /ddmfs1b/softs/psi4conda/share/psi4/basis/aug-cc-pvtz.gbs 


         ---------------------------------------------------------
                                   SCF
               by Justin Turney, Rob Parrish, Andy Simmonett
                          and Daniel G. A. Smith
                              RHF Reference
                       20 Threads,  57220 MiB Core
         ---------------------------------------------------------

  ==> Geometry <==

    Molecular point group: c1
    Full point group: Cs

    Geometry (in Angstrom), charge = 1, multiplicity = 1:

       Center              X                  Y                   Z               Mass       
    ------------   -----------------  -----------------  -----------------  -----------------
      Gh(CL)          0.000000000000     0.000000000000     0.000000000000    34.968852682000
         NA           0.000000000000     2.370103000000     0.000000000000    22.989769282000
      Gh(NA)          4.740206000000     0.000000000000     0.000000000000    22.989769282000

  Running in c1 symmetry.

  Rotational constants: A =      0.13054  B =      0.03263  C =      0.02611 [cm^-1]
  Rotational constants: A =   3913.34509  B =    978.33627  C =    782.66902 [MHz]
  Nuclear repulsion =    0.000000000000000

  Charge       = 1
  Multiplicity = 1
  Electrons    = 10
  Nalpha       = 5
  Nbeta        = 5

  ==> Algorithm <==

  SCF Algorithm Type is DF.
  DIIS enabled.
  MOM disabled.
  Fractional occupation disabled.
  Guess Type is SAD.
  Energy threshold   = 1.00e-08
  Density threshold  = 1.00e-08
  Integral threshold = 1.00e-12

  ==> Primary Basis <==

  Basis Set: AUG-CC-PVTZ
    Blend: AUG-CC-PVTZ
    Number of shells: 48
    Number of basis functions: 150
    Number of Cartesian functions: 177
    Spherical Harmonics?: true
    Max angular momentum: 3

   => Loading Basis Set <=

    Name: (AUG-CC-PVTZ AUX)
    Role: JKFIT
    Keyword: DF_BASIS_SCF
    atoms 1   entry CL         line   816 file /ddmfs1b/softs/psi4conda/share/psi4/basis/aug-cc-pvtz-jkfit.gbs 
    atoms 2-3 entry NA         line   498 file /ddmfs1b/softs/psi4conda/share/psi4/basis/def2-universal-jkfit.gbs 

  ==> Integral Setup <==

  DFHelper Memory: AOs need 0.071 GiB; user supplied 41.910 GiB. 
  Using in-core AOs.

  ==> MemDFJK: Density-Fitted J/K Matrices <==

    J tasked:                   Yes
    K tasked:                   Yes
    wK tasked:                   No
    OpenMP threads:              20
    Memory [MiB]:             42915
    Algorithm:                 Core
    Schwarz Cutoff:           1E-12
    Mask sparsity (%):       0.0000
    Fitting Condition:        1E-10

   => Auxiliary Basis Set <=

  Basis Set: (AUG-CC-PVTZ AUX)
    Blend: AUG-CC-PVTZ-JKFIT + DEF2-UNIVERSAL-JKFIT
    Number of shells: 110
    Number of basis functions: 370
    Number of Cartesian functions: 454
    Spherical Harmonics?: true
    Max angular momentum: 4

  Minimum eigenvalue in the overlap matrix is 5.7694858996E-05.
  Reciprocal condition number of the overlap matrix is 8.3924524065E-06.
    Using symmetric orthogonalization.

  ==> Pre-Iterations <==

  SCF Guess: Superposition of Atomic Densities via on-the-fly atomic UHF (no occupation information).

   -------------------------
    Irrep   Nso     Nmo    
   -------------------------
     A        150     150 
   -------------------------
    Total     150     150
   -------------------------

  ==> Iterations <==

                           Total Energy        Delta E     RMS |[F,P]|

   @DF-RHF iter SAD:  -161.74556610408817   -1.61746e+02   0.00000e+00 
   @DF-RHF iter   1:  -161.67602061579160    6.95455e-02   3.87943e-05 DIIS
   @DF-RHF iter   2:  -161.67603846479480   -1.78490e-05   7.47849e-06 DIIS
   @DF-RHF iter   3:  -161.67603891688191   -4.52087e-07   3.01136e-07 DIIS
   @DF-RHF iter   4:  -161.67603891764446   -7.62554e-10   2.55616e-08 DIIS
   @DF-RHF iter   5:  -161.67603891764955   -5.08749e-12   1.53651e-09 DIIS
  Energy and wave function converged.


  ==> Post-Iterations <==

    Orbital Energies [Eh]
    ---------------------

    Doubly Occupied:                                                      

       1A    -40.762981     2A     -3.074994     3A     -1.798274  
       4A     -1.798150     5A     -1.798132  

    Virtual:                                                              

       6A     -0.181838     7A     -0.109448     8A     -0.109439  
       9A     -0.109436    10A     -0.070038    11A     -0.054526  
      12A     -0.053703    13A     -0.053618    14A     -0.050662  
      15A     -0.050625    16A     -0.049620    17A     -0.049090  
      18A     -0.049051    19A     -0.029417    20A     -0.026219  
      21A     -0.026025    22A     -0.024493    23A     -0.017862  
      24A     -0.010174    25A     -0.009425    26A     -0.006083  
      27A     -0.001723    28A     -0.001164    29A      0.002109  
      30A      0.002992    31A      0.006302    32A      0.017191  
      33A      0.024454    34A      0.024685    35A      0.026846  
      36A      0.033576    37A      0.034478    38A      0.040772  
      39A      0.055077    40A      0.061351    41A      0.062816  
      42A      0.066867    43A      0.072915    44A      0.076469  
      45A      0.081854    46A      0.098499    47A      0.105261  
      48A      0.118228    49A      0.126027    50A      0.132672  
      51A      0.133809    52A      0.153105    53A      0.155818  
      54A      0.157731    55A      0.158681    56A      0.163056  
      57A      0.167342    58A      0.171984    59A      0.184149  
      60A      0.186751    61A      0.193388    62A      0.193716  
      63A      0.196454    64A      0.198665    65A      0.209629  
      66A      0.220284    67A      0.243241    68A      0.261554  
      69A      0.263839    70A      0.284676    71A      0.314817  
      72A      0.315667    73A      0.318984    74A      0.324926  
      75A      0.342061    76A      0.361714    77A      0.362505  
      78A      0.374414    79A      0.381606    80A      0.389298  
      81A      0.397283    82A      0.433671    83A      0.454812  
      84A      0.475500    85A      0.504195    86A      0.511070  
      87A      0.518554    88A      0.520915    89A      0.532957  
      90A      0.551922    91A      0.575732    92A      0.593401  
      93A      0.608284    94A      0.623603    95A      0.624205  
      96A      0.637484    97A      0.654973    98A      0.677585  
      99A      0.677699   100A      0.687591   101A      0.690323  
     102A      0.698066   103A      0.706682   104A      0.718366  
     105A      0.723566   106A      0.823554   107A      0.848804  
     108A      1.103804   109A      1.125265   110A      1.136811  
     111A      1.183388   112A      1.203487   113A      1.208150  
     114A      1.221979   115A      1.304379   116A      1.353857  
     117A      1.386741   118A      1.397014   119A      1.405707  
     120A      1.479109   121A      1.489853   122A      1.501428  
     123A      1.733037   124A      2.025851   125A      3.728116  
     126A      3.733638   127A      3.758635   128A      3.778052  
     129A      3.779932   130A      3.796379   131A      3.816047  
     132A      3.948576   133A      3.951927   134A      3.955780  
     135A      4.237211   136A      4.415582   137A      4.497071  
     138A      4.530349   139A      4.551866   140A      4.563366  
     141A      4.716731   142A      6.209857   143A      6.211594  
     144A      6.238260   145A     14.754110   146A     27.614549  
     147A     27.637665   148A     27.824109   149A     64.257289  
     150A    160.667351  

    Final Occupation by Irrep:
              A 
    DOCC [     5 ]
    NA   [     5 ]
    NB   [     5 ]

  @DF-RHF Final Energy:  -161.67603891764955

   => Energetics <=

    Nuclear Repulsion Energy =              0.0000000000000000
    One-Electron Energy =                -224.8870165717474663
    Two-Electron Energy =                  63.2109776540979027
    Total Energy =                       -161.6760389176495778

Computation Completed


Properties will be evaluated at   0.000000,   0.000000,   0.000000 [a0]

Properties computed using the SCF density matrix


 Multipole Moments:

 ------------------------------------------------------------------------------------
     Multipole            Electronic (a.u.)      Nuclear  (a.u.)        Total (a.u.)
 ------------------------------------------------------------------------------------

 L = 1.  Multiply by 2.5417464519 to convert [e a0] to [Debye]
 Dipole X            :          0.0000898            0.0000000            0.0000898
 Dipole Y            :        -44.7890433           49.2673012            4.4782579
 Dipole Z            :          0.0000000            0.0000000            0.0000000
 Magnitude           :                                                    4.4782579

 ------------------------------------------------------------------------------------

*** tstop() called on ddmfs1 at Mon Jan 22 12:01:52 2024
Module time:
	user time   =      25.82 seconds =       0.43 minutes
	system time =       4.27 seconds =       0.07 minutes
	total time  =          2 seconds =       0.03 minutes
Total time:
	user time   =      25.82 seconds =       0.43 minutes
	system time =       4.27 seconds =       0.07 minutes
	total time  =          2 seconds =       0.03 minutes

*** tstart() called on ddmfs1
*** at Mon Jan 22 12:01:52 2024


  //>>>>>>>>>>>>>>>>>>>>>>>>>>>>>>>>>>>//
  //               DFMP2               //
  //<<<<<<<<<<<<<<<<<<<<<<<<<<<<<<<<<<<//

   => Loading Basis Set <=

    Name: (AUG-CC-PVTZ AUX)
    Role: RIFIT
    Keyword: DF_BASIS_MP2
    atoms 1   entry CL         line   742 file /ddmfs1b/softs/psi4conda/share/psi4/basis/aug-cc-pvtz-ri.gbs 
    atoms 2-3 entry NA         line   610 file /ddmfs1b/softs/psi4conda/share/psi4/basis/def2-qzvpp-ri.gbs 

	 --------------------------------------------------------
	                          DF-MP2                         
	      2nd-Order Density-Fitted Moller-Plesset Theory     
	              RMP2 Wavefunction,  20 Threads             
	                                                         
	        Rob Parrish, Justin Turney, Andy Simmonett,      
	           Ed Hohenstein, and C. David Sherrill          
	 --------------------------------------------------------

   => Auxiliary Basis Set <=

  Basis Set: (AUG-CC-PVTZ AUX)
    Blend: AUG-CC-PVTZ-RI + DEF2-QZVPP-RI
    Number of shells: 121
    Number of basis functions: 479
    Number of Cartesian functions: 619
    Spherical Harmonics?: true
    Max angular momentum: 4

	 --------------------------------------------------------
	                 NBF =   150, NAUX =   479
	 --------------------------------------------------------
	   CLASS    FOCC     OCC    AOCC    AVIR     VIR    FVIR
	   PAIRS       0       5       5     145     145       0
	 --------------------------------------------------------

	-----------------------------------------------------------
	 ==================> DF-MP2 Energies <==================== 
	-----------------------------------------------------------
	 Reference Energy          =    -161.6760389176495494 [Eh]
	 Singles Energy            =      -0.0000000000000000 [Eh]
	 Same-Spin Energy          =      -0.0026117894585733 [Eh]
	 Opposite-Spin Energy      =      -0.0097107505272607 [Eh]
	 Correlation Energy        =      -0.0123225399858340 [Eh]
	 Total Energy              =    -161.6883614576353807 [Eh]
	-----------------------------------------------------------
	 ================> DF-SCS-MP2 Energies <================== 
	-----------------------------------------------------------
	 SCS Same-Spin Scale       =       0.3333333333333333 [-]
	 SCS Opposite-Spin Scale   =       1.2000000000000000 [-]
	 SCS Same-Spin Energy      =      -0.0008705964861911 [Eh]
	 SCS Opposite-Spin Energy  =      -0.0116529006327128 [Eh]
	 SCS Correlation Energy    =      -0.0125234971189039 [Eh]
	 SCS Total Energy          =    -161.6885624147684553 [Eh]
	-----------------------------------------------------------


*** tstop() called on ddmfs1 at Mon Jan 22 12:01:59 2024
Module time:
	user time   =      14.40 seconds =       0.24 minutes
	system time =       1.06 seconds =       0.02 minutes
	total time  =          7 seconds =       0.12 minutes
Total time:
	user time   =      40.24 seconds =       0.67 minutes
	system time =       5.33 seconds =       0.09 minutes
	total time  =          9 seconds =       0.15 minutes

    Psi4 stopped on: Monday, 22 January 2024 12:01PM
    Psi4 wall time for execution: 0:00:09.69

*** Psi4 exiting successfully. Buy a developer a beer!
