
    -----------------------------------------------------------------------
          Psi4: An Open-Source Ab Initio Electronic Structure Package
                               Psi4 1.8.2 release

                         Git: Rev {} zzzzzzz 


    D. G. A. Smith, L. A. Burns, A. C. Simmonett, R. M. Parrish,
    M. C. Schieber, R. Galvelis, P. Kraus, H. Kruse, R. Di Remigio,
    A. Alenaizan, A. M. James, S. Lehtola, J. P. Misiewicz, M. Scheurer,
    R. A. Shaw, J. B. Schriber, Y. Xie, Z. L. Glick, D. A. Sirianni,
    J. S. O'Brien, J. M. Waldrop, A. Kumar, E. G. Hohenstein,
    B. P. Pritchard, B. R. Brooks, H. F. Schaefer III, A. Yu. Sokolov,
    K. Patkowski, A. E. DePrince III, U. Bozkaya, R. A. King,
    F. A. Evangelista, J. M. Turney, T. D. Crawford, C. D. Sherrill,
    J. Chem. Phys. 152(18) 184108 (2020). https://doi.org/10.1063/5.0006002

                            Additional Code Authors
    E. T. Seidl, C. L. Janssen, E. F. Valeev, M. L. Leininger,
    J. F. Gonthier, R. M. Richard, H. R. McAlexander, M. Saitow, X. Wang,
    P. Verma, M. H. Lechner, A. Jiang, S. Behnle, A. G. Heide,
    M. F. Herbst, and D. L. Poole

             Previous Authors, Complete List of Code Contributors,
                       and Citations for Specific Modules
    https://github.com/psi4/psi4/blob/master/codemeta.json
    https://github.com/psi4/psi4/graphs/contributors
    http://psicode.org/psi4manual/master/introduction.html#citing-psifour

    -----------------------------------------------------------------------


    Psi4 started on: Monday, 22 January 2024 11:59AM

    Process ID: 45741
    Host:       ddmfs1
    PSIDATADIR: /ddmfs1b/softs/psi4conda/share/psi4
    Memory:     500.0 MiB
    Threads:    20
    
  ==> Input File <==

--------------------------------------------------------------------------
MEMORY 60 GB

molecule dimer {
1 1
Gh(Cl)     0.000000     0.000000     0.000000
Gh(Na)     0.000000     2.370103     0.000000
Na         3.081134     0.000000     0.000000

units ang
no_reorient
no_com
symmetry c1
}

set {
basis        aug-cc-pVTZ
scf_type     df
}

energy("mp2")
--------------------------------------------------------------------------

  Memory set to  55.879 GiB by Python driver.

Scratch directory: /ddmfs1a/scratch/
   => Libint2 <=

    Primary   basis highest AM E, G, H:  5, 4, 3
    Auxiliary basis highest AM E, G, H:  6, 5, 4
    Onebody   basis highest AM E, G, H:  6, 5, 4
    Solid Harmonics ordering:            gaussian

*** tstart() called on ddmfs1
*** at Mon Jan 22 11:59:55 2024

   => Loading Basis Set <=

    Name: AUG-CC-PVTZ
    Role: ORBITAL
    Keyword: BASIS
    atoms 1   entry CL         line   988 file /ddmfs1b/softs/psi4conda/share/psi4/basis/aug-cc-pvtz.gbs 
    atoms 2-3 entry NA         line   469 file /ddmfs1b/softs/psi4conda/share/psi4/basis/aug-cc-pvtz.gbs 


         ---------------------------------------------------------
                                   SCF
               by Justin Turney, Rob Parrish, Andy Simmonett
                          and Daniel G. A. Smith
                              RHF Reference
                       20 Threads,  57220 MiB Core
         ---------------------------------------------------------

  ==> Geometry <==

    Molecular point group: c1
    Full point group: Cs

    Geometry (in Angstrom), charge = 1, multiplicity = 1:

       Center              X                  Y                   Z               Mass       
    ------------   -----------------  -----------------  -----------------  -----------------
      Gh(CL)          0.000000000000     0.000000000000     0.000000000000    34.968852682000
      Gh(NA)          0.000000000000     2.370103000000     0.000000000000    22.989769282000
         NA           3.081134000000     0.000000000000     0.000000000000    22.989769282000

  Running in c1 symmetry.

  Rotational constants: A =      0.13054  B =      0.07724  C =      0.04853 [cm^-1]
  Rotational constants: A =   3913.34509  B =   2315.58866  C =   1454.77507 [MHz]
  Nuclear repulsion =    0.000000000000000

  Charge       = 1
  Multiplicity = 1
  Electrons    = 10
  Nalpha       = 5
  Nbeta        = 5

  ==> Algorithm <==

  SCF Algorithm Type is DF.
  DIIS enabled.
  MOM disabled.
  Fractional occupation disabled.
  Guess Type is SAD.
  Energy threshold   = 1.00e-08
  Density threshold  = 1.00e-08
  Integral threshold = 1.00e-12

  ==> Primary Basis <==

  Basis Set: AUG-CC-PVTZ
    Blend: AUG-CC-PVTZ
    Number of shells: 48
    Number of basis functions: 150
    Number of Cartesian functions: 177
    Spherical Harmonics?: true
    Max angular momentum: 3

   => Loading Basis Set <=

    Name: (AUG-CC-PVTZ AUX)
    Role: JKFIT
    Keyword: DF_BASIS_SCF
    atoms 1   entry CL         line   816 file /ddmfs1b/softs/psi4conda/share/psi4/basis/aug-cc-pvtz-jkfit.gbs 
    atoms 2-3 entry NA         line   498 file /ddmfs1b/softs/psi4conda/share/psi4/basis/def2-universal-jkfit.gbs 

  ==> Integral Setup <==

  DFHelper Memory: AOs need 0.071 GiB; user supplied 41.910 GiB. 
  Using in-core AOs.

  ==> MemDFJK: Density-Fitted J/K Matrices <==

    J tasked:                   Yes
    K tasked:                   Yes
    wK tasked:                   No
    OpenMP threads:              20
    Memory [MiB]:             42915
    Algorithm:                 Core
    Schwarz Cutoff:           1E-12
    Mask sparsity (%):       0.0000
    Fitting Condition:        1E-10

   => Auxiliary Basis Set <=

  Basis Set: (AUG-CC-PVTZ AUX)
    Blend: AUG-CC-PVTZ-JKFIT + DEF2-UNIVERSAL-JKFIT
    Number of shells: 110
    Number of basis functions: 370
    Number of Cartesian functions: 454
    Spherical Harmonics?: true
    Max angular momentum: 4

  Minimum eigenvalue in the overlap matrix is 5.0306613758E-05.
  Reciprocal condition number of the overlap matrix is 6.7822853339E-06.
    Using symmetric orthogonalization.

  ==> Pre-Iterations <==

  SCF Guess: Superposition of Atomic Densities via on-the-fly atomic UHF (no occupation information).

   -------------------------
    Irrep   Nso     Nmo    
   -------------------------
     A        150     150 
   -------------------------
    Total     150     150
   -------------------------

  ==> Iterations <==

                           Total Energy        Delta E     RMS |[F,P]|

   @DF-RHF iter SAD:  -161.74556350863966   -1.61746e+02   0.00000e+00 
   @DF-RHF iter   1:  -161.67601732675638    6.95462e-02   3.85094e-05 DIIS
   @DF-RHF iter   2:  -161.67603504456662   -1.77178e-05   7.45562e-06 DIIS
   @DF-RHF iter   3:  -161.67603549040811   -4.45841e-07   2.87540e-07 DIIS
   @DF-RHF iter   4:  -161.67603549114048   -7.32371e-10   2.05430e-08 DIIS
   @DF-RHF iter   5:  -161.67603549114446   -3.97904e-12   1.31034e-09 DIIS
  Energy and wave function converged.


  ==> Post-Iterations <==

    Orbital Energies [Eh]
    ---------------------

    Doubly Occupied:                                                      

       1A    -40.763015     2A     -3.075005     3A     -1.798272  
       4A     -1.798170     5A     -1.798139  

    Virtual:                                                              

       6A     -0.181839     7A     -0.109447     8A     -0.109439  
       9A     -0.109437    10A     -0.070050    11A     -0.054525  
      12A     -0.054430    13A     -0.054389    14A     -0.050627  
      15A     -0.050600    16A     -0.049839    17A     -0.049076  
      18A     -0.049048    19A     -0.028920    20A     -0.025724  
      21A     -0.024888    22A     -0.024774    23A     -0.020703  
      24A     -0.011135    25A     -0.009942    26A     -0.006587  
      27A     -0.004958    28A     -0.001416    29A      0.000261  
      30A      0.001083    31A      0.008421    32A      0.020110  
      33A      0.025812    34A      0.026644    35A      0.030443  
      36A      0.035375    37A      0.038616    38A      0.045971  
      39A      0.047632    40A      0.063321    41A      0.067602  
      42A      0.074770    43A      0.076959    44A      0.080325  
      45A      0.085257    46A      0.103675    47A      0.107816  
      48A      0.113930    49A      0.128992    50A      0.137025  
      51A      0.144946    52A      0.150108    53A      0.156442  
      54A      0.157551    55A      0.160389    56A      0.166090  
      57A      0.171420    58A      0.177351    59A      0.194308  
      60A      0.206713    61A      0.208145    62A      0.211013  
      63A      0.215373    64A      0.225228    65A      0.234602  
      66A      0.236131    67A      0.257520    68A      0.268667  
      69A      0.284727    70A      0.312436    71A      0.314427  
      72A      0.325487    73A      0.341310    74A      0.343565  
      75A      0.363013    76A      0.377555    77A      0.382054  
      78A      0.391162    79A      0.401512    80A      0.419659  
      81A      0.447472    82A      0.460632    83A      0.469909  
      84A      0.491578    85A      0.496514    86A      0.502933  
      87A      0.506791    88A      0.525904    89A      0.528754  
      90A      0.560650    91A      0.564797    92A      0.580708  
      93A      0.611815    94A      0.625033    95A      0.627071  
      96A      0.649198    97A      0.660757    98A      0.667912  
      99A      0.680985   100A      0.706189   101A      0.716362  
     102A      0.733637   103A      0.744149   104A      0.754013  
     105A      0.807467   106A      0.852278   107A      1.114200  
     108A      1.213767   109A      1.237321   110A      1.259206  
     111A      1.276817   112A      1.281334   113A      1.330564  
     114A      1.345421   115A      1.393819   116A      1.459095  
     117A      1.488329   118A      1.501586   119A      1.526919  
     120A      1.543108   121A      1.564401   122A      1.596791  
     123A      1.921482   124A      2.041612   125A      3.806296  
     126A      3.823774   127A      3.828398   128A      3.839411  
     129A      3.872066   130A      3.880501   131A      3.988058  
     132A      4.014897   133A      4.028345   134A      4.073008  
     135A      4.307073   136A      4.577554   137A      4.585188  
     138A      4.611972   139A      4.628674   140A      4.642010  
     141A      4.888667   142A      6.199339   143A      6.246839  
     144A      6.990553   145A     14.944466   146A     27.680267  
     147A     27.861382   148A     27.923637   149A     64.345862  
     150A    160.732486  

    Final Occupation by Irrep:
              A 
    DOCC [     5 ]
    NA   [     5 ]
    NB   [     5 ]

  @DF-RHF Final Energy:  -161.67603549114446

   => Energetics <=

    Nuclear Repulsion Energy =              0.0000000000000000
    One-Electron Energy =                -224.8868676839900047
    Two-Electron Energy =                  63.2108321928455368
    Total Energy =                       -161.6760354911444608

Computation Completed


Properties will be evaluated at   0.000000,   0.000000,   0.000000 [a0]

Properties computed using the SCF density matrix


 Multipole Moments:

 ------------------------------------------------------------------------------------
     Multipole            Electronic (a.u.)      Nuclear  (a.u.)        Total (a.u.)
 ------------------------------------------------------------------------------------

 L = 1.  Multiply by 2.5417464519 to convert [e a0] to [Debye]
 Dipole X            :        -58.2256257           64.0474936            5.8218678
 Dipole Y            :          0.0001027            0.0000000            0.0001027
 Dipole Z            :         -0.0000000            0.0000000           -0.0000000
 Magnitude           :                                                    5.8218678

 ------------------------------------------------------------------------------------

*** tstop() called on ddmfs1 at Mon Jan 22 11:59:58 2024
Module time:
	user time   =      25.48 seconds =       0.42 minutes
	system time =       4.41 seconds =       0.07 minutes
	total time  =          3 seconds =       0.05 minutes
Total time:
	user time   =      25.48 seconds =       0.42 minutes
	system time =       4.41 seconds =       0.07 minutes
	total time  =          3 seconds =       0.05 minutes

*** tstart() called on ddmfs1
*** at Mon Jan 22 11:59:58 2024


  //>>>>>>>>>>>>>>>>>>>>>>>>>>>>>>>>>>>//
  //               DFMP2               //
  //<<<<<<<<<<<<<<<<<<<<<<<<<<<<<<<<<<<//

   => Loading Basis Set <=

    Name: (AUG-CC-PVTZ AUX)
    Role: RIFIT
    Keyword: DF_BASIS_MP2
    atoms 1   entry CL         line   742 file /ddmfs1b/softs/psi4conda/share/psi4/basis/aug-cc-pvtz-ri.gbs 
    atoms 2-3 entry NA         line   610 file /ddmfs1b/softs/psi4conda/share/psi4/basis/def2-qzvpp-ri.gbs 

	 --------------------------------------------------------
	                          DF-MP2                         
	      2nd-Order Density-Fitted Moller-Plesset Theory     
	              RMP2 Wavefunction,  20 Threads             
	                                                         
	        Rob Parrish, Justin Turney, Andy Simmonett,      
	           Ed Hohenstein, and C. David Sherrill          
	 --------------------------------------------------------

   => Auxiliary Basis Set <=

  Basis Set: (AUG-CC-PVTZ AUX)
    Blend: AUG-CC-PVTZ-RI + DEF2-QZVPP-RI
    Number of shells: 121
    Number of basis functions: 479
    Number of Cartesian functions: 619
    Spherical Harmonics?: true
    Max angular momentum: 4

	 --------------------------------------------------------
	                 NBF =   150, NAUX =   479
	 --------------------------------------------------------
	   CLASS    FOCC     OCC    AOCC    AVIR     VIR    FVIR
	   PAIRS       0       5       5     145     145       0
	 --------------------------------------------------------

	-----------------------------------------------------------
	 ==================> DF-MP2 Energies <==================== 
	-----------------------------------------------------------
	 Reference Energy          =    -161.6760354911444608 [Eh]
	 Singles Energy            =      -0.0000000000000000 [Eh]
	 Same-Spin Energy          =      -0.0023446253270424 [Eh]
	 Opposite-Spin Energy      =      -0.0090107837005777 [Eh]
	 Correlation Energy        =      -0.0113554090276201 [Eh]
	 Total Energy              =    -161.6873909001720904 [Eh]
	-----------------------------------------------------------
	 ================> DF-SCS-MP2 Energies <================== 
	-----------------------------------------------------------
	 SCS Same-Spin Scale       =       0.3333333333333333 [-]
	 SCS Opposite-Spin Scale   =       1.2000000000000000 [-]
	 SCS Same-Spin Energy      =      -0.0007815417756808 [Eh]
	 SCS Opposite-Spin Energy  =      -0.0108129404406933 [Eh]
	 SCS Correlation Energy    =      -0.0115944822163741 [Eh]
	 SCS Total Energy          =    -161.6876299733608278 [Eh]
	-----------------------------------------------------------


*** tstop() called on ddmfs1 at Mon Jan 22 12:00:05 2024
Module time:
	user time   =      14.19 seconds =       0.24 minutes
	system time =       1.15 seconds =       0.02 minutes
	total time  =          7 seconds =       0.12 minutes
Total time:
	user time   =      39.69 seconds =       0.66 minutes
	system time =       5.56 seconds =       0.09 minutes
	total time  =         10 seconds =       0.17 minutes

    Psi4 stopped on: Monday, 22 January 2024 12:00PM
    Psi4 wall time for execution: 0:00:09.56

*** Psi4 exiting successfully. Buy a developer a beer!
