
    -----------------------------------------------------------------------
          Psi4: An Open-Source Ab Initio Electronic Structure Package
                               Psi4 1.9 release

                         Git: Rev {} zzzzzzz 


    D. G. A. Smith, L. A. Burns, A. C. Simmonett, R. M. Parrish,
    M. C. Schieber, R. Galvelis, P. Kraus, H. Kruse, R. Di Remigio,
    A. Alenaizan, A. M. James, S. Lehtola, J. P. Misiewicz, M. Scheurer,
    R. A. Shaw, J. B. Schriber, Y. Xie, Z. L. Glick, D. A. Sirianni,
    J. S. O'Brien, J. M. Waldrop, A. Kumar, E. G. Hohenstein,
    B. P. Pritchard, B. R. Brooks, H. F. Schaefer III, A. Yu. Sokolov,
    K. Patkowski, A. E. DePrince III, U. Bozkaya, R. A. King,
    F. A. Evangelista, J. M. Turney, T. D. Crawford, C. D. Sherrill,
    J. Chem. Phys. 152(18) 184108 (2020). https://doi.org/10.1063/5.0006002

                            Additional Code Authors
    E. T. Seidl, C. L. Janssen, E. F. Valeev, M. L. Leininger,
    J. F. Gonthier, R. M. Richard, H. R. McAlexander, M. Saitow, X. Wang,
    P. Verma, M. H. Lechner, A. Jiang, S. Behnle, A. G. Heide,
    M. F. Herbst, and D. L. Poole

             Previous Authors, Complete List of Code Contributors,
                       and Citations for Specific Modules
    https://github.com/psi4/psi4/blob/master/codemeta.json
    https://github.com/psi4/psi4/graphs/contributors
    http://psicode.org/psi4manual/master/introduction.html#citing-psifour

    -----------------------------------------------------------------------


    Psi4 started on: Wednesday, 03 January 2024 07:55PM

    Process ID: 435166
    Host:       moses-razer
    PSIDATADIR: /home/kchung25/anaconda3/envs/psi4_19/share/psi4
    Memory:     500.0 MiB
    Threads:    6
    
  ==> Input File <==

--------------------------------------------------------------------------
MEMORY 60 GB

molecule dimer {
0 1
Cl     0.000000     0.000000     0.000000
Na     0.000000     2.370103     0.000000
--
1 1
Na     2.607113     0.000000     0.000000

units ang
no_reorient
no_com
symmetry c1
}

set {
basis        aug-cc-pVTZ
scf_type     df
}

energy("mp2", bsse_type="cp")
--------------------------------------------------------------------------

  Memory set to  55.879 GiB by Python driver.

Scratch directory: /scratch/

  //>>>>>>>>>>>>>>>>>>>>>>>>>>>>>>>>>>>>>//
  // ManyBody Setup: N-Body Levels [1, 2]//
  //<<<<<<<<<<<<<<<<<<<<<<<<<<<<<<<<<<<<<//

        Number of 1-body computations:     2
        Number of 2-body computations:     1

    -----------------------------------------------------------------------
          Psi4: An Open-Source Ab Initio Electronic Structure Package
                               Psi4 1.9 release

                         Git: Rev {} zzzzzzz 


    D. G. A. Smith, L. A. Burns, A. C. Simmonett, R. M. Parrish,
    M. C. Schieber, R. Galvelis, P. Kraus, H. Kruse, R. Di Remigio,
    A. Alenaizan, A. M. James, S. Lehtola, J. P. Misiewicz, M. Scheurer,
    R. A. Shaw, J. B. Schriber, Y. Xie, Z. L. Glick, D. A. Sirianni,
    J. S. O'Brien, J. M. Waldrop, A. Kumar, E. G. Hohenstein,
    B. P. Pritchard, B. R. Brooks, H. F. Schaefer III, A. Yu. Sokolov,
    K. Patkowski, A. E. DePrince III, U. Bozkaya, R. A. King,
    F. A. Evangelista, J. M. Turney, T. D. Crawford, C. D. Sherrill,
    J. Chem. Phys. 152(18) 184108 (2020). https://doi.org/10.1063/5.0006002

                            Additional Code Authors
    E. T. Seidl, C. L. Janssen, E. F. Valeev, M. L. Leininger,
    J. F. Gonthier, R. M. Richard, H. R. McAlexander, M. Saitow, X. Wang,
    P. Verma, M. H. Lechner, A. Jiang, S. Behnle, A. G. Heide,
    M. F. Herbst, and D. L. Poole

             Previous Authors, Complete List of Code Contributors,
                       and Citations for Specific Modules
    https://github.com/psi4/psi4/blob/master/codemeta.json
    https://github.com/psi4/psi4/graphs/contributors
    http://psicode.org/psi4manual/master/introduction.html#citing-psifour

    -----------------------------------------------------------------------


    Psi4 started on: Wednesday, 03 January 2024 07:55PM

    Process ID: 435166
    Host:       moses-razer
    PSIDATADIR: /home/kchung25/anaconda3/envs/psi4_19/share/psi4
    Memory:     55.9 GiB
    Threads:    6
    
  ==> Input QCSchema <==

--------------------------------------------------------------------------
{'driver': 'energy',
 'extras': {'psiapi': True, 'wfn_qcvars_only': True},
 'id': None,
 'keywords': {'SCF_TYPE': 'DF', 'function_kwargs': {}},
 'model': {'basis': 'aug-cc-pvtz', 'method': 'mp2'},
 'molecule': {'atom_labels': ['', '', ''],
              'atomic_numbers': [17, 11, 11],
              'extras': {},
              'fix_com': True,
              'fix_orientation': True,
              'fix_symmetry': 'c1',
              'fragment_charges': [0.0, 1.0],
              'fragment_multiplicities': [1, 1],
              'fragments': [[0, 1], [2]],
              'geometry': [0.0, 0.0, 0.0, 0.0, 4.478845559125975, 0.0, 4.9267295481207345, 0.0, 0.0],
              'mass_numbers': [35, 23, 23],
              'masses': [34.968852682, 22.989769282, 22.989769282],
              'molecular_charge': 1.0,
              'molecular_multiplicity': 1,
              'name': 'dimer',
              'provenance': {'creator': 'QCElemental',
                             'routine': 'qcelemental.molparse.from_string',
                             'version': '0.27.1'},
              'real': [False, False, True],
              'schema_name': 'qcschema_molecule',
              'schema_version': 2,
              'symbols': ['Cl', 'Na', 'Na'],
              'validated': True},
 'protocols': {'stdout': True},
 'provenance': {'creator': 'QCElemental', 'routine': 'qcelemental.models.results', 'version': '0.27.1'},
 'schema_name': 'qcschema_input',
 'schema_version': 1}
--------------------------------------------------------------------------

Scratch directory: /scratch/
   => Libint2 <=

    Primary   basis highest AM E, G, H:  5, 4, 3
    Auxiliary basis highest AM E, G, H:  6, 5, 4
    Onebody   basis highest AM E, G, H:  6, 5, 4
    Solid Harmonics ordering:            gaussian

*** tstart() called on moses-razer
*** at Wed Jan  3 19:55:25 2024

   => Loading Basis Set <=

    Name: AUG-CC-PVTZ
    Role: ORBITAL
    Keyword: BASIS
    atoms 1   entry CL         line   988 file /home/kchung25/anaconda3/envs/p415env/share/psi4/basis/aug-cc-pvtz.gbs 
    atoms 2-3 entry NA         line   469 file /home/kchung25/anaconda3/envs/p415env/share/psi4/basis/aug-cc-pvtz.gbs 


         ---------------------------------------------------------
                                   SCF
               by Justin Turney, Rob Parrish, Andy Simmonett
                          and Daniel G. A. Smith
                              RHF Reference
                        6 Threads,  57220 MiB Core
         ---------------------------------------------------------

  ==> Geometry <==

    Molecular point group: c1
    Full point group: Cs

    Geometry (in Bohr), charge = 1, multiplicity = 1:

       Center              X                  Y                   Z               Mass       
    ------------   -----------------  -----------------  -----------------  -----------------
      Gh(CL)          0.000000000000     0.000000000000     0.000000000000    34.968852682000
      Gh(NA)          0.000000000000     4.478845559126     0.000000000000    22.989769282000
         NA           4.926729548121     0.000000000000     0.000000000000    22.989769282000

  Running in c1 symmetry.

  Rotational constants: A =      0.13054  B =      0.10788  C =      0.05907 [cm^-1]
  Rotational constants: A =   3913.34509  B =   3234.17024  C =   1770.74461 [MHz]
  Nuclear repulsion =    0.000000000000000

  Charge       = 1
  Multiplicity = 1
  Electrons    = 10
  Nalpha       = 5
  Nbeta        = 5

  ==> Algorithm <==

  SCF Algorithm Type is DF.
  DIIS enabled.
  MOM disabled.
  Fractional occupation disabled.
  Guess Type is SAD.
  Energy threshold   = 1.00e-08
  Density threshold  = 1.00e-08
  Integral threshold = 1.00e-12

  ==> Primary Basis <==

  Basis Set: AUG-CC-PVTZ
    Blend: AUG-CC-PVTZ
    Number of shells: 48
    Number of basis functions: 150
    Number of Cartesian functions: 177
    Spherical Harmonics?: true
    Max angular momentum: 3

   => Loading Basis Set <=

    Name: (AUG-CC-PVTZ AUX)
    Role: JKFIT
    Keyword: DF_BASIS_SCF
    atoms 1   entry CL         line   816 file /home/kchung25/anaconda3/envs/p415env/share/psi4/basis/aug-cc-pvtz-jkfit.gbs 
    atoms 2-3 entry NA         line   498 file /home/kchung25/anaconda3/envs/p415env/share/psi4/basis/def2-universal-jkfit.gbs 

  ==> Integral Setup <==

  DFHelper Memory: AOs need 0.069 GiB; user supplied 41.910 GiB. 
  Using in-core AOs.

  ==> MemDFJK: Density-Fitted J/K Matrices <==

    J tasked:                   Yes
    K tasked:                   Yes
    wK tasked:                   No
    OpenMP threads:               6
    Memory [MiB]:             42915
    Algorithm:                 Core
    Schwarz Cutoff:           1E-12
    Mask sparsity (%):       0.0000
    Fitting Condition:        1E-10

   => Auxiliary Basis Set <=

  Basis Set: (AUG-CC-PVTZ AUX)
    Blend: AUG-CC-PVTZ-JKFIT + DEF2-UNIVERSAL-JKFIT
    Number of shells: 110
    Number of basis functions: 370
    Number of Cartesian functions: 454
    Spherical Harmonics?: true
    Max angular momentum: 4

  Minimum eigenvalue in the overlap matrix is 4.3401576347E-05.
  Reciprocal condition number of the overlap matrix is 5.7471220214E-06.
    Using symmetric orthogonalization.

  ==> Pre-Iterations <==

  SCF Guess: Superposition of Atomic Densities via on-the-fly atomic UHF (no occupation information).

   -------------------------
    Irrep   Nso     Nmo    
   -------------------------
     A        150     150 
   -------------------------
    Total     150     150
   -------------------------

  ==> Iterations <==

                           Total Energy        Delta E     RMS |[F,P]|

   @DF-RHF iter SAD:  -161.74557491432799   -1.61746e+02   0.00000e+00 
   @DF-RHF iter   1:  -161.67602238311804    6.95525e-02   3.88077e-05 DIIS
   @DF-RHF iter   2:  -161.67604018229633   -1.77992e-05   7.52940e-06 DIIS
   @DF-RHF iter   3:  -161.67604063312163   -4.50825e-07   2.86969e-07 DIIS
   @DF-RHF iter   4:  -161.67604063384724   -7.25606e-10   2.24545e-08 DIIS
   @DF-RHF iter   5:  -161.67604063385173   -4.49063e-12   1.42997e-09 DIIS
  Energy and wave function converged.


  ==> Post-Iterations <==

    Orbital Energies [Eh]
    ---------------------

    Doubly Occupied:                                                      

       1A    -40.762851     2A     -3.074923     3A     -1.798184  
       4A     -1.798117     5A     -1.798066  

    Virtual:                                                              

       6A     -0.181836     7A     -0.109446     8A     -0.109439  
       9A     -0.109436    10A     -0.070057    11A     -0.054603  
      12A     -0.054580    13A     -0.054560    14A     -0.050684  
      15A     -0.050649    16A     -0.049915    17A     -0.049087  
      18A     -0.049046    19A     -0.028897    20A     -0.025456  
      21A     -0.024596    22A     -0.024472    23A     -0.021036  
      24A     -0.010851    25A     -0.009994    26A     -0.007187  
      27A     -0.005772    28A     -0.001675    29A     -0.000080  
      30A      0.000446    31A      0.009197    32A      0.020630  
      33A      0.025933    34A      0.026706    35A      0.030322  
      36A      0.033406    37A      0.037603    38A      0.043539  
      39A      0.044350    40A      0.064864    41A      0.069143  
      42A      0.075284    43A      0.078951    44A      0.084480  
      45A      0.088742    46A      0.101624    47A      0.110313  
      48A      0.121409    49A      0.136101    50A      0.140235  
      51A      0.151336    52A      0.152676    53A      0.158025  
      54A      0.159511    55A      0.164817    56A      0.165926  
      57A      0.172702    58A      0.178406    59A      0.194817  
      60A      0.204246    61A      0.206521    62A      0.218282  
      63A      0.218371    64A      0.222796    65A      0.237047  
      66A      0.239734    67A      0.257285    68A      0.264394  
      69A      0.275458    70A      0.330829    71A      0.332434  
      72A      0.339162    73A      0.339274    74A      0.350242  
      75A      0.358027    76A      0.376992    77A      0.384762  
      78A      0.392963    79A      0.395514    80A      0.433518  
      81A      0.461840    82A      0.468990    83A      0.478318  
      84A      0.496582    85A      0.503169    86A      0.511461  
      87A      0.516434    88A      0.535760    89A      0.542408  
      90A      0.582342    91A      0.584418    92A      0.600719  
      93A      0.623284    94A      0.628742    95A      0.633249  
      96A      0.647388    97A      0.666326    98A      0.670073  
      99A      0.688984   100A      0.705081   101A      0.733092  
     102A      0.755150   103A      0.767882   104A      0.773005  
     105A      0.822435   106A      0.894870   107A      1.112427  
     108A      1.206706   109A      1.232980   110A      1.252874  
     111A      1.274848   112A      1.326152   113A      1.360354  
     114A      1.387979   115A      1.458480   116A      1.472131  
     117A      1.480464   118A      1.511076   119A      1.524088  
     120A      1.561490   121A      1.571788   122A      1.629407  
     123A      2.010516   124A      2.169134   125A      3.783582  
     126A      3.810217   127A      3.813225   128A      3.828455  
     129A      3.907427   130A      3.920262   131A      3.971016  
     132A      3.988884   133A      4.011771   134A      4.090040  
     135A      4.456300   136A      4.562340   137A      4.568924  
     138A      4.593517   139A      4.623847   140A      4.652629  
     141A      4.905012   142A      6.192728   143A      6.270781  
     144A      7.062838   145A     15.159230   146A     27.672677  
     147A     27.871096   148A     27.982450   149A     64.339997  
     150A    160.733268  

    Final Occupation by Irrep:
              A 
    DOCC [     5 ]
    NA   [     5 ]
    NB   [     5 ]

  @DF-RHF Final Energy:  -161.67604063385173

   => Energetics <=

    Nuclear Repulsion Energy =              0.0000000000000000
    One-Electron Energy =                -224.8878017786985879
    Two-Electron Energy =                  63.2117611448468750
    Total Energy =                       -161.6760406338516987

Computation Completed


Properties will be evaluated at   0.000000,   0.000000,   0.000000 [a0]

Properties computed using the SCF density matrix


 Multipole Moments:

 ------------------------------------------------------------------------------------
     Multipole            Electronic (a.u.)      Nuclear  (a.u.)        Total (a.u.)
 ------------------------------------------------------------------------------------

 L = 1.  Multiply by 2.5417464519 to convert [e a0] to [Debye]
 Dipole X            :        -49.2678900           54.1940250            4.9261350
 Dipole Y            :          0.0001353            0.0000000            0.0001353
 Dipole Z            :          0.0000000            0.0000000            0.0000000
 Magnitude           :                                                    4.9261350

 ------------------------------------------------------------------------------------

*** tstop() called on moses-razer at Wed Jan  3 19:55:27 2024
Module time:
	user time   =       6.60 seconds =       0.11 minutes
	system time =       0.70 seconds =       0.01 minutes
	total time  =          2 seconds =       0.03 minutes
Total time:
	user time   =       6.60 seconds =       0.11 minutes
	system time =       0.70 seconds =       0.01 minutes
	total time  =          2 seconds =       0.03 minutes

*** tstart() called on moses-razer
*** at Wed Jan  3 19:55:27 2024


  //>>>>>>>>>>>>>>>>>>>>>>>>>>>>>>>>>>>//
  //               DFMP2               //
  //<<<<<<<<<<<<<<<<<<<<<<<<<<<<<<<<<<<//

   => Loading Basis Set <=

    Name: (AUG-CC-PVTZ AUX)
    Role: RIFIT
    Keyword: DF_BASIS_MP2
    atoms 1   entry CL         line   742 file /home/kchung25/anaconda3/envs/p415env/share/psi4/basis/aug-cc-pvtz-ri.gbs 
    atoms 2-3 entry NA         line   610 file /home/kchung25/anaconda3/envs/p415env/share/psi4/basis/def2-qzvpp-ri.gbs 

	 --------------------------------------------------------
	                          DF-MP2                         
	      2nd-Order Density-Fitted Moller-Plesset Theory     
	              RMP2 Wavefunction,   6 Threads             
	                                                         
	        Rob Parrish, Justin Turney, Andy Simmonett,      
	           Ed Hohenstein, and C. David Sherrill          
	 --------------------------------------------------------

   => Auxiliary Basis Set <=

  Basis Set: (AUG-CC-PVTZ AUX)
    Blend: AUG-CC-PVTZ-RI + DEF2-QZVPP-RI
    Number of shells: 121
    Number of basis functions: 479
    Number of Cartesian functions: 619
    Spherical Harmonics?: true
    Max angular momentum: 4

	 --------------------------------------------------------
	                 NBF =   150, NAUX =   479
	 --------------------------------------------------------
	   CLASS    FOCC     OCC    AOCC    AVIR     VIR    FVIR
	   PAIRS       0       5       5     145     145       0
	 --------------------------------------------------------

	-----------------------------------------------------------
	 ==================> DF-MP2 Energies <==================== 
	-----------------------------------------------------------
	 Reference Energy          =    -161.6760406338517271 [Eh]
	 Singles Energy            =      -0.0000000000000000 [Eh]
	 Same-Spin Energy          =      -0.0024795186275531 [Eh]
	 Opposite-Spin Energy      =      -0.0093699879942255 [Eh]
	 Correlation Energy        =      -0.0118495066217785 [Eh]
	 Total Energy              =    -161.6878901404735132 [Eh]
	-----------------------------------------------------------
	 ================> DF-SCS-MP2 Energies <================== 
	-----------------------------------------------------------
	 SCS Same-Spin Scale       =       0.3333333333333333 [-]
	 SCS Opposite-Spin Scale   =       1.2000000000000000 [-]
	 SCS Same-Spin Energy      =      -0.0008265062091844 [Eh]
	 SCS Opposite-Spin Energy  =      -0.0112439855930706 [Eh]
	 SCS Correlation Energy    =      -0.0120704918022549 [Eh]
	 SCS Total Energy          =    -161.6881111256539896 [Eh]
	-----------------------------------------------------------


*** tstop() called on moses-razer at Wed Jan  3 19:55:29 2024
Module time:
	user time   =       3.71 seconds =       0.06 minutes
	system time =       0.23 seconds =       0.00 minutes
	total time  =          2 seconds =       0.03 minutes
Total time:
	user time   =      10.31 seconds =       0.17 minutes
	system time =       0.93 seconds =       0.02 minutes
	total time  =          4 seconds =       0.07 minutes

    Psi4 stopped on: Wednesday, 03 January 2024 07:55PM
    Psi4 wall time for execution: 0:00:04.18


    -----------------------------------------------------------------------
          Psi4: An Open-Source Ab Initio Electronic Structure Package
                               Psi4 1.9 release

                         Git: Rev {} zzzzzzz 


    D. G. A. Smith, L. A. Burns, A. C. Simmonett, R. M. Parrish,
    M. C. Schieber, R. Galvelis, P. Kraus, H. Kruse, R. Di Remigio,
    A. Alenaizan, A. M. James, S. Lehtola, J. P. Misiewicz, M. Scheurer,
    R. A. Shaw, J. B. Schriber, Y. Xie, Z. L. Glick, D. A. Sirianni,
    J. S. O'Brien, J. M. Waldrop, A. Kumar, E. G. Hohenstein,
    B. P. Pritchard, B. R. Brooks, H. F. Schaefer III, A. Yu. Sokolov,
    K. Patkowski, A. E. DePrince III, U. Bozkaya, R. A. King,
    F. A. Evangelista, J. M. Turney, T. D. Crawford, C. D. Sherrill,
    J. Chem. Phys. 152(18) 184108 (2020). https://doi.org/10.1063/5.0006002

                            Additional Code Authors
    E. T. Seidl, C. L. Janssen, E. F. Valeev, M. L. Leininger,
    J. F. Gonthier, R. M. Richard, H. R. McAlexander, M. Saitow, X. Wang,
    P. Verma, M. H. Lechner, A. Jiang, S. Behnle, A. G. Heide,
    M. F. Herbst, and D. L. Poole

             Previous Authors, Complete List of Code Contributors,
                       and Citations for Specific Modules
    https://github.com/psi4/psi4/blob/master/codemeta.json
    https://github.com/psi4/psi4/graphs/contributors
    http://psicode.org/psi4manual/master/introduction.html#citing-psifour

    -----------------------------------------------------------------------


    Psi4 started on: Wednesday, 03 January 2024 07:55PM

    Process ID: 435166
    Host:       moses-razer
    PSIDATADIR: /home/kchung25/anaconda3/envs/psi4_19/share/psi4
    Memory:     55.9 GiB
    Threads:    6
    
  ==> Input QCSchema <==

--------------------------------------------------------------------------
{'driver': 'energy',
 'extras': {'psiapi': True, 'wfn_qcvars_only': True},
 'id': None,
 'keywords': {'SCF_TYPE': 'DF', 'function_kwargs': {}},
 'model': {'basis': 'aug-cc-pvtz', 'method': 'mp2'},
 'molecule': {'atom_labels': ['', '', ''],
              'atomic_numbers': [17, 11, 11],
              'extras': {},
              'fix_com': True,
              'fix_orientation': True,
              'fix_symmetry': 'c1',
              'fragment_charges': [0.0, 0.0],
              'fragment_multiplicities': [1, 1],
              'fragments': [[0, 1], [2]],
              'geometry': [0.0, 0.0, 0.0, 0.0, 4.478845559125975, 0.0, 4.9267295481207345, 0.0, 0.0],
              'mass_numbers': [35, 23, 23],
              'masses': [34.968852682, 22.989769282, 22.989769282],
              'molecular_charge': 0.0,
              'molecular_multiplicity': 1,
              'name': 'dimer',
              'provenance': {'creator': 'QCElemental',
                             'routine': 'qcelemental.molparse.from_string',
                             'version': '0.27.1'},
              'real': [True, True, False],
              'schema_name': 'qcschema_molecule',
              'schema_version': 2,
              'symbols': ['Cl', 'Na', 'Na'],
              'validated': True},
 'protocols': {'stdout': True},
 'provenance': {'creator': 'QCElemental', 'routine': 'qcelemental.models.results', 'version': '0.27.1'},
 'schema_name': 'qcschema_input',
 'schema_version': 1}
--------------------------------------------------------------------------

Scratch directory: /scratch/
   => Libint2 <=

    Primary   basis highest AM E, G, H:  5, 4, 3
    Auxiliary basis highest AM E, G, H:  6, 5, 4
    Onebody   basis highest AM E, G, H:  6, 5, 4
    Solid Harmonics ordering:            gaussian

*** tstart() called on moses-razer
*** at Wed Jan  3 19:55:29 2024

   => Loading Basis Set <=

    Name: AUG-CC-PVTZ
    Role: ORBITAL
    Keyword: BASIS
    atoms 1   entry CL         line   988 file /home/kchung25/anaconda3/envs/p415env/share/psi4/basis/aug-cc-pvtz.gbs 
    atoms 2-3 entry NA         line   469 file /home/kchung25/anaconda3/envs/p415env/share/psi4/basis/aug-cc-pvtz.gbs 


         ---------------------------------------------------------
                                   SCF
               by Justin Turney, Rob Parrish, Andy Simmonett
                          and Daniel G. A. Smith
                              RHF Reference
                        6 Threads,  57220 MiB Core
         ---------------------------------------------------------

  ==> Geometry <==

    Molecular point group: c1
    Full point group: Cs

    Geometry (in Bohr), charge = 0, multiplicity = 1:

       Center              X                  Y                   Z               Mass       
    ------------   -----------------  -----------------  -----------------  -----------------
         CL           0.000000000000     0.000000000000     0.000000000000    34.968852682000
         NA           0.000000000000     4.478845559126     0.000000000000    22.989769282000
      Gh(NA)          4.926729548121     0.000000000000     0.000000000000    22.989769282000

  Running in c1 symmetry.

  Rotational constants: A =      0.13054  B =      0.10788  C =      0.05907 [cm^-1]
  Rotational constants: A =   3913.34509  B =   3234.17024  C =   1770.74461 [MHz]
  Nuclear repulsion =   41.751830361503281

  Charge       = 0
  Multiplicity = 1
  Electrons    = 28
  Nalpha       = 14
  Nbeta        = 14

  ==> Algorithm <==

  SCF Algorithm Type is DF.
  DIIS enabled.
  MOM disabled.
  Fractional occupation disabled.
  Guess Type is SAD.
  Energy threshold   = 1.00e-08
  Density threshold  = 1.00e-08
  Integral threshold = 1.00e-12

  ==> Primary Basis <==

  Basis Set: AUG-CC-PVTZ
    Blend: AUG-CC-PVTZ
    Number of shells: 48
    Number of basis functions: 150
    Number of Cartesian functions: 177
    Spherical Harmonics?: true
    Max angular momentum: 3

   => Loading Basis Set <=

    Name: (AUG-CC-PVTZ AUX)
    Role: JKFIT
    Keyword: DF_BASIS_SCF
    atoms 1   entry CL         line   816 file /home/kchung25/anaconda3/envs/p415env/share/psi4/basis/aug-cc-pvtz-jkfit.gbs 
    atoms 2-3 entry NA         line   498 file /home/kchung25/anaconda3/envs/p415env/share/psi4/basis/def2-universal-jkfit.gbs 

  ==> Integral Setup <==

  DFHelper Memory: AOs need 0.069 GiB; user supplied 41.910 GiB. 
  Using in-core AOs.

  ==> MemDFJK: Density-Fitted J/K Matrices <==

    J tasked:                   Yes
    K tasked:                   Yes
    wK tasked:                   No
    OpenMP threads:               6
    Memory [MiB]:             42915
    Algorithm:                 Core
    Schwarz Cutoff:           1E-12
    Mask sparsity (%):       0.0000
    Fitting Condition:        1E-10

   => Auxiliary Basis Set <=

  Basis Set: (AUG-CC-PVTZ AUX)
    Blend: AUG-CC-PVTZ-JKFIT + DEF2-UNIVERSAL-JKFIT
    Number of shells: 110
    Number of basis functions: 370
    Number of Cartesian functions: 454
    Spherical Harmonics?: true
    Max angular momentum: 4

  Minimum eigenvalue in the overlap matrix is 4.3401576347E-05.
  Reciprocal condition number of the overlap matrix is 5.7471220214E-06.
    Using symmetric orthogonalization.

  ==> Pre-Iterations <==

  SCF Guess: Superposition of Atomic Densities via on-the-fly atomic UHF (no occupation information).

   -------------------------
    Irrep   Nso     Nmo    
   -------------------------
     A        150     150 
   -------------------------
    Total     150     150
   -------------------------

  ==> Iterations <==

                           Total Energy        Delta E     RMS |[F,P]|

   @DF-RHF iter SAD:  -620.93810056023744   -6.20938e+02   0.00000e+00 
   @DF-RHF iter   1:  -621.40310687344436   -4.65006e-01   1.93368e-03 DIIS/ADIIS
   @DF-RHF iter   2:  -621.44815919142911   -4.50523e-02   9.08465e-04 DIIS/ADIIS
   @DF-RHF iter   3:  -621.45484108591359   -6.68189e-03   5.97741e-05 DIIS
   @DF-RHF iter   4:  -621.45489561896829   -5.45331e-05   1.29424e-05 DIIS
   @DF-RHF iter   5:  -621.45490078501314   -5.16604e-06   3.35879e-06 DIIS
   @DF-RHF iter   6:  -621.45490116945803   -3.84445e-07   9.87067e-07 DIIS
   @DF-RHF iter   7:  -621.45490123407126   -6.46132e-08   1.80818e-07 DIIS
   @DF-RHF iter   8:  -621.45490123620198   -2.13072e-09   2.98467e-08 DIIS
   @DF-RHF iter   9:  -621.45490123625314   -5.11591e-11   5.75967e-09 DIIS
  Energy and wave function converged.


  ==> Post-Iterations <==

    Orbital Energies [Eh]
    ---------------------

    Doubly Occupied:                                                      

       1A   -104.703558     2A    -40.499832     3A    -10.428616  
       4A     -7.894829     5A     -7.894532     6A     -7.894512  
       7A     -2.821659     8A     -1.544601     9A     -1.544534  
      10A     -1.544152    11A     -0.941563    12A     -0.369235  
      13A     -0.352939    14A     -0.352906  

    Virtual:                                                              

      15A     -0.020515    16A      0.008626    17A      0.010797  
      18A      0.011302    19A      0.016443    20A      0.023903  
      21A      0.026144    22A      0.030939    23A      0.036536  
      24A      0.040623    25A      0.043790    26A      0.053151  
      27A      0.059737    28A      0.063430    29A      0.064459  
      30A      0.072078    31A      0.072819    32A      0.076852  
      33A      0.082715    34A      0.088372    35A      0.093072  
      36A      0.094803    37A      0.102419    38A      0.109385  
      39A      0.110808    40A      0.111612    41A      0.121680  
      42A      0.121889    43A      0.140089    44A      0.166798  
      45A      0.170450    46A      0.184320    47A      0.187610  
      48A      0.209871    49A      0.209900    50A      0.211873  
      51A      0.212500    52A      0.228547    53A      0.234937  
      54A      0.242979    55A      0.251527    56A      0.258140  
      57A      0.268266    58A      0.272124    59A      0.282626  
      60A      0.285795    61A      0.297218    62A      0.305892  
      63A      0.307681    64A      0.309961    65A      0.314576  
      66A      0.323678    67A      0.336239    68A      0.341603  
      69A      0.345703    70A      0.349233    71A      0.362269  
      72A      0.371324    73A      0.382314    74A      0.389092  
      75A      0.420928    76A      0.425373    77A      0.431709  
      78A      0.449903    79A      0.477660    80A      0.499547  
      81A      0.512038    82A      0.522735    83A      0.532954  
      84A      0.549358    85A      0.567097    86A      0.573078  
      87A      0.596756    88A      0.613164    89A      0.636603  
      90A      0.637282    91A      0.657214    92A      0.660929  
      93A      0.689876    94A      0.694449    95A      0.717880  
      96A      0.742177    97A      0.754213    98A      0.757654  
      99A      0.771469   100A      0.777568   101A      0.790275  
     102A      0.799584   103A      0.820651   104A      0.825027  
     105A      0.843525   106A      0.857130   107A      0.891608  
     108A      0.918608   109A      0.932351   110A      0.937815  
     111A      0.951959   112A      1.012626   113A      1.049834  
     114A      1.093111   115A      1.159207   116A      1.170721  
     117A      1.202971   118A      1.215636   119A      1.253103  
     120A      1.348469   121A      1.401626   122A      1.424143  
     123A      1.551507   124A      1.562919   125A      1.611265  
     126A      1.616022   127A      1.767412   128A      1.962955  
     129A      2.326523   130A      2.734535   131A      2.736536  
     132A      2.775093   133A      2.799858   134A      2.878654  
     135A      2.946883   136A      3.081551   137A      3.131838  
     138A      3.264573   139A      3.290914   140A      3.333602  
     141A      3.350314   142A      3.397127   143A      3.414088  
     144A      3.497761   145A      4.767636   146A      6.394584  
     147A      6.444785   148A      6.600364   149A      6.876650  
     150A     64.526409  

    Final Occupation by Irrep:
              A 
    DOCC [    14 ]
    NA   [    14 ]
    NB   [    14 ]

  @DF-RHF Final Energy:  -621.45490123625314

   => Energetics <=

    Nuclear Repulsion Energy =             41.7518303615032806
    One-Electron Energy =                -948.8385275985057206
    Two-Electron Energy =                 285.6317960007494321
    Total Energy =                       -621.4549012362530220

Computation Completed


Properties will be evaluated at   0.000000,   0.000000,   0.000000 [a0]

Properties computed using the SCF density matrix


 Multipole Moments:

 ------------------------------------------------------------------------------------
     Multipole            Electronic (a.u.)      Nuclear  (a.u.)        Total (a.u.)
 ------------------------------------------------------------------------------------

 L = 1.  Multiply by 2.5417464519 to convert [e a0] to [Debye]
 Dipole X            :          0.0002792            0.0000000            0.0002792
 Dipole Y            :        -45.5837363           49.2673012            3.6835649
 Dipole Z            :         -0.0000000            0.0000000           -0.0000000
 Magnitude           :                                                    3.6835649

 ------------------------------------------------------------------------------------

*** tstop() called on moses-razer at Wed Jan  3 19:55:31 2024
Module time:
	user time   =       8.51 seconds =       0.14 minutes
	system time =       0.78 seconds =       0.01 minutes
	total time  =          2 seconds =       0.03 minutes
Total time:
	user time   =      19.04 seconds =       0.32 minutes
	system time =       1.71 seconds =       0.03 minutes
	total time  =          6 seconds =       0.10 minutes

*** tstart() called on moses-razer
*** at Wed Jan  3 19:55:31 2024


  //>>>>>>>>>>>>>>>>>>>>>>>>>>>>>>>>>>>//
  //               DFMP2               //
  //<<<<<<<<<<<<<<<<<<<<<<<<<<<<<<<<<<<//

   => Loading Basis Set <=

    Name: (AUG-CC-PVTZ AUX)
    Role: RIFIT
    Keyword: DF_BASIS_MP2
    atoms 1   entry CL         line   742 file /home/kchung25/anaconda3/envs/p415env/share/psi4/basis/aug-cc-pvtz-ri.gbs 
    atoms 2-3 entry NA         line   610 file /home/kchung25/anaconda3/envs/p415env/share/psi4/basis/def2-qzvpp-ri.gbs 

	 --------------------------------------------------------
	                          DF-MP2                         
	      2nd-Order Density-Fitted Moller-Plesset Theory     
	              RMP2 Wavefunction,   6 Threads             
	                                                         
	        Rob Parrish, Justin Turney, Andy Simmonett,      
	           Ed Hohenstein, and C. David Sherrill          
	 --------------------------------------------------------

   => Auxiliary Basis Set <=

  Basis Set: (AUG-CC-PVTZ AUX)
    Blend: AUG-CC-PVTZ-RI + DEF2-QZVPP-RI
    Number of shells: 121
    Number of basis functions: 479
    Number of Cartesian functions: 619
    Spherical Harmonics?: true
    Max angular momentum: 4

	 --------------------------------------------------------
	                 NBF =   150, NAUX =   479
	 --------------------------------------------------------
	   CLASS    FOCC     OCC    AOCC    AVIR     VIR    FVIR
	   PAIRS       0      14      14     136     136       0
	 --------------------------------------------------------

	-----------------------------------------------------------
	 ==================> DF-MP2 Energies <==================== 
	-----------------------------------------------------------
	 Reference Energy          =    -621.4549012362531357 [Eh]
	 Singles Energy            =      -0.0000000000000000 [Eh]
	 Same-Spin Energy          =      -0.0658715030589639 [Eh]
	 Opposite-Spin Energy      =      -0.1908639118941471 [Eh]
	 Correlation Energy        =      -0.2567354149531110 [Eh]
	 Total Energy              =    -621.7116366512062768 [Eh]
	-----------------------------------------------------------
	 ================> DF-SCS-MP2 Energies <================== 
	-----------------------------------------------------------
	 SCS Same-Spin Scale       =       0.3333333333333333 [-]
	 SCS Opposite-Spin Scale   =       1.2000000000000000 [-]
	 SCS Same-Spin Energy      =      -0.0219571676863213 [Eh]
	 SCS Opposite-Spin Energy  =      -0.2290366942729765 [Eh]
	 SCS Correlation Energy    =      -0.2509938619592978 [Eh]
	 SCS Total Energy          =    -621.7058950982124088 [Eh]
	-----------------------------------------------------------


*** tstop() called on moses-razer at Wed Jan  3 19:55:33 2024
Module time:
	user time   =       3.83 seconds =       0.06 minutes
	system time =       0.23 seconds =       0.00 minutes
	total time  =          2 seconds =       0.03 minutes
Total time:
	user time   =      22.87 seconds =       0.38 minutes
	system time =       1.94 seconds =       0.03 minutes
	total time  =          8 seconds =       0.13 minutes

    Psi4 stopped on: Wednesday, 03 January 2024 07:55PM
    Psi4 wall time for execution: 0:00:04.54


    -----------------------------------------------------------------------
          Psi4: An Open-Source Ab Initio Electronic Structure Package
                               Psi4 1.9 release

                         Git: Rev {} zzzzzzz 


    D. G. A. Smith, L. A. Burns, A. C. Simmonett, R. M. Parrish,
    M. C. Schieber, R. Galvelis, P. Kraus, H. Kruse, R. Di Remigio,
    A. Alenaizan, A. M. James, S. Lehtola, J. P. Misiewicz, M. Scheurer,
    R. A. Shaw, J. B. Schriber, Y. Xie, Z. L. Glick, D. A. Sirianni,
    J. S. O'Brien, J. M. Waldrop, A. Kumar, E. G. Hohenstein,
    B. P. Pritchard, B. R. Brooks, H. F. Schaefer III, A. Yu. Sokolov,
    K. Patkowski, A. E. DePrince III, U. Bozkaya, R. A. King,
    F. A. Evangelista, J. M. Turney, T. D. Crawford, C. D. Sherrill,
    J. Chem. Phys. 152(18) 184108 (2020). https://doi.org/10.1063/5.0006002

                            Additional Code Authors
    E. T. Seidl, C. L. Janssen, E. F. Valeev, M. L. Leininger,
    J. F. Gonthier, R. M. Richard, H. R. McAlexander, M. Saitow, X. Wang,
    P. Verma, M. H. Lechner, A. Jiang, S. Behnle, A. G. Heide,
    M. F. Herbst, and D. L. Poole

             Previous Authors, Complete List of Code Contributors,
                       and Citations for Specific Modules
    https://github.com/psi4/psi4/blob/master/codemeta.json
    https://github.com/psi4/psi4/graphs/contributors
    http://psicode.org/psi4manual/master/introduction.html#citing-psifour

    -----------------------------------------------------------------------


    Psi4 started on: Wednesday, 03 January 2024 07:55PM

    Process ID: 435166
    Host:       moses-razer
    PSIDATADIR: /home/kchung25/anaconda3/envs/psi4_19/share/psi4
    Memory:     55.9 GiB
    Threads:    6
    
  ==> Input QCSchema <==

--------------------------------------------------------------------------
{'driver': 'energy',
 'extras': {'psiapi': True, 'wfn_qcvars_only': True},
 'id': None,
 'keywords': {'SCF_TYPE': 'DF', 'function_kwargs': {}},
 'model': {'basis': 'aug-cc-pvtz', 'method': 'mp2'},
 'molecule': {'atom_labels': ['', '', ''],
              'atomic_numbers': [17, 11, 11],
              'extras': {},
              'fix_com': True,
              'fix_orientation': True,
              'fix_symmetry': 'c1',
              'fragment_charges': [0.0, 1.0],
              'fragment_multiplicities': [1, 1],
              'fragments': [[0, 1], [2]],
              'geometry': [0.0, 0.0, 0.0, 0.0, 4.478845559125975, 0.0, 4.9267295481207345, 0.0, 0.0],
              'mass_numbers': [35, 23, 23],
              'masses': [34.968852682, 22.989769282, 22.989769282],
              'molecular_charge': 1.0,
              'molecular_multiplicity': 1,
              'name': 'dimer',
              'provenance': {'creator': 'QCElemental',
                             'routine': 'qcelemental.molparse.from_string',
                             'version': '0.27.1'},
              'real': [True, True, True],
              'schema_name': 'qcschema_molecule',
              'schema_version': 2,
              'symbols': ['Cl', 'Na', 'Na'],
              'validated': True},
 'protocols': {'stdout': True},
 'provenance': {'creator': 'QCElemental', 'routine': 'qcelemental.models.results', 'version': '0.27.1'},
 'schema_name': 'qcschema_input',
 'schema_version': 1}
--------------------------------------------------------------------------

Scratch directory: /scratch/
   => Libint2 <=

    Primary   basis highest AM E, G, H:  5, 4, 3
    Auxiliary basis highest AM E, G, H:  6, 5, 4
    Onebody   basis highest AM E, G, H:  6, 5, 4
    Solid Harmonics ordering:            gaussian

*** tstart() called on moses-razer
*** at Wed Jan  3 19:55:33 2024

   => Loading Basis Set <=

    Name: AUG-CC-PVTZ
    Role: ORBITAL
    Keyword: BASIS
    atoms 1   entry CL         line   988 file /home/kchung25/anaconda3/envs/p415env/share/psi4/basis/aug-cc-pvtz.gbs 
    atoms 2-3 entry NA         line   469 file /home/kchung25/anaconda3/envs/p415env/share/psi4/basis/aug-cc-pvtz.gbs 


         ---------------------------------------------------------
                                   SCF
               by Justin Turney, Rob Parrish, Andy Simmonett
                          and Daniel G. A. Smith
                              RHF Reference
                        6 Threads,  57220 MiB Core
         ---------------------------------------------------------

  ==> Geometry <==

    Molecular point group: c1
    Full point group: Cs

    Geometry (in Bohr), charge = 1, multiplicity = 1:

       Center              X                  Y                   Z               Mass       
    ------------   -----------------  -----------------  -----------------  -----------------
         CL           0.000000000000     0.000000000000     0.000000000000    34.968852682000
         NA           0.000000000000     4.478845559126     0.000000000000    22.989769282000
         NA           4.926729548121     0.000000000000     0.000000000000    22.989769282000

  Running in c1 symmetry.

  Rotational constants: A =      0.13054  B =      0.10788  C =      0.05907 [cm^-1]
  Rotational constants: A =   3913.34509  B =   3234.17024  C =   1770.74461 [MHz]
  Nuclear repulsion =   97.880899659536595

  Charge       = 1
  Multiplicity = 1
  Electrons    = 38
  Nalpha       = 19
  Nbeta        = 19

  ==> Algorithm <==

  SCF Algorithm Type is DF.
  DIIS enabled.
  MOM disabled.
  Fractional occupation disabled.
  Guess Type is SAD.
  Energy threshold   = 1.00e-08
  Density threshold  = 1.00e-08
  Integral threshold = 1.00e-12

  ==> Primary Basis <==

  Basis Set: AUG-CC-PVTZ
    Blend: AUG-CC-PVTZ
    Number of shells: 48
    Number of basis functions: 150
    Number of Cartesian functions: 177
    Spherical Harmonics?: true
    Max angular momentum: 3

   => Loading Basis Set <=

    Name: (AUG-CC-PVTZ AUX)
    Role: JKFIT
    Keyword: DF_BASIS_SCF
    atoms 1   entry CL         line   816 file /home/kchung25/anaconda3/envs/p415env/share/psi4/basis/aug-cc-pvtz-jkfit.gbs 
    atoms 2-3 entry NA         line   498 file /home/kchung25/anaconda3/envs/p415env/share/psi4/basis/def2-universal-jkfit.gbs 

  ==> Integral Setup <==

  DFHelper Memory: AOs need 0.069 GiB; user supplied 41.910 GiB. 
  Using in-core AOs.

  ==> MemDFJK: Density-Fitted J/K Matrices <==

    J tasked:                   Yes
    K tasked:                   Yes
    wK tasked:                   No
    OpenMP threads:               6
    Memory [MiB]:             42915
    Algorithm:                 Core
    Schwarz Cutoff:           1E-12
    Mask sparsity (%):       0.0000
    Fitting Condition:        1E-10

   => Auxiliary Basis Set <=

  Basis Set: (AUG-CC-PVTZ AUX)
    Blend: AUG-CC-PVTZ-JKFIT + DEF2-UNIVERSAL-JKFIT
    Number of shells: 110
    Number of basis functions: 370
    Number of Cartesian functions: 454
    Spherical Harmonics?: true
    Max angular momentum: 4

  Minimum eigenvalue in the overlap matrix is 4.3401576347E-05.
  Reciprocal condition number of the overlap matrix is 5.7471220214E-06.
    Using symmetric orthogonalization.

  ==> Pre-Iterations <==

  SCF Guess: Superposition of Atomic Densities via on-the-fly atomic UHF (no occupation information).

   -------------------------
    Irrep   Nso     Nmo    
   -------------------------
     A        150     150 
   -------------------------
    Total     150     150
   -------------------------

  ==> Iterations <==

                           Total Energy        Delta E     RMS |[F,P]|

   @DF-RHF iter SAD:  -782.75952936190856   -7.82760e+02   0.00000e+00 
   @DF-RHF iter   1:  -783.13525950575104   -3.75730e-01   1.85599e-03 DIIS/ADIIS
   @DF-RHF iter   2:  -783.17560530192122   -4.03458e-02   8.37894e-04 DIIS/ADIIS
   @DF-RHF iter   3:  -783.18125469504150   -5.64939e-03   5.97138e-05 DIIS
   @DF-RHF iter   4:  -783.18132530367768   -7.06086e-05   1.50386e-05 DIIS
   @DF-RHF iter   5:  -783.18133362266417   -8.31899e-06   4.41882e-06 DIIS
   @DF-RHF iter   6:  -783.18133431045555   -6.87791e-07   1.23909e-06 DIIS
   @DF-RHF iter   7:  -783.18133440350675   -9.30512e-08   2.15362e-07 DIIS
   @DF-RHF iter   8:  -783.18133440608210   -2.57535e-09   3.77324e-08 DIIS
   @DF-RHF iter   9:  -783.18133440615190   -6.98037e-11   6.66533e-09 DIIS
  Energy and wave function converged.


  ==> Post-Iterations <==

    Orbital Energies [Eh]
    ---------------------

    Doubly Occupied:                                                      

       1A   -104.896223     2A    -40.677628     3A    -40.654019  
       4A    -10.621816     5A     -8.087944     6A     -8.087805  
       7A     -8.087605     8A     -2.994683     9A     -2.975290  
      10A     -1.718536    11A     -1.717872    12A     -1.716754  
      13A     -1.698895    14A     -1.698262    15A     -1.697995  
      16A     -1.138319    17A     -0.561816    18A     -0.558884  
      19A     -0.545074  

    Virtual:                                                              

      20A     -0.151383    21A     -0.118167    22A     -0.091398  
      23A     -0.085526    24A     -0.067833    25A     -0.064282  
      26A     -0.057842    27A     -0.056900    28A     -0.050503  
      29A     -0.043196    30A     -0.039420    31A     -0.033127  
      32A     -0.032565    33A     -0.030811    34A     -0.028150  
      35A     -0.027065    36A     -0.022266    37A     -0.018513  
      38A     -0.014213    39A     -0.012212    40A     -0.011039  
      41A     -0.008805    42A     -0.001964    43A      0.003344  
      44A      0.009872    45A      0.010470    46A      0.017612  
      47A      0.018413    48A      0.024100    49A      0.028327  
      50A      0.037909    51A      0.052501    52A      0.064665  
      53A      0.076464    54A      0.076674    55A      0.084193  
      56A      0.085105    57A      0.093472    58A      0.094833  
      59A      0.107290    60A      0.107756    61A      0.116669  
      62A      0.127347    63A      0.131635    64A      0.136680  
      65A      0.137129    66A      0.150185    67A      0.160640  
      68A      0.160968    69A      0.171094    70A      0.183085  
      71A      0.183553    72A      0.188973    73A      0.192870  
      74A      0.198475    75A      0.202919    76A      0.205075  
      77A      0.217658    78A      0.220798    79A      0.232393  
      80A      0.235490    81A      0.260053    82A      0.281738  
      83A      0.282780    84A      0.313713    85A      0.321071  
      86A      0.335956    87A      0.360898    88A      0.363921  
      89A      0.379266    90A      0.398616    91A      0.406666  
      92A      0.416399    93A      0.448162    94A      0.457432  
      95A      0.460398    96A      0.470677    97A      0.470980  
      98A      0.475340    99A      0.497295   100A      0.498473  
     101A      0.505380   102A      0.535287   103A      0.536120  
     104A      0.549822   105A      0.552839   106A      0.582394  
     107A      0.587829   108A      0.605925   109A      0.610925  
     110A      0.627355   111A      0.657144   112A      0.674338  
     113A      0.693493   114A      0.714481   115A      0.734729  
     116A      0.749475   117A      0.777786   118A      0.874560  
     119A      0.969260   120A      0.982495   121A      1.014836  
     122A      1.016202   123A      1.037807   124A      1.101376  
     125A      1.197282   126A      1.231506   127A      1.339606  
     128A      1.356133   129A      1.409170   130A      1.426727  
     131A      1.519467   132A      1.656152   133A      2.025846  
     134A      2.270334   135A      2.546358   136A      2.547241  
     137A      2.583489   138A      2.606369   139A      2.706890  
     140A      2.756634   141A      2.892922   142A      2.944631  
     143A      3.070711   144A      3.103535   145A      3.140990  
     146A      3.152593   147A      3.207825   148A      3.219301  
     149A      3.334396   150A      6.611386  

    Final Occupation by Irrep:
              A 
    DOCC [    19 ]
    NA   [    19 ]
    NB   [    19 ]

  @DF-RHF Final Energy:  -783.18133440615190

   => Energetics <=

    Nuclear Repulsion Energy =             97.8808996595365954
    One-Electron Energy =               -1281.8536302703819274
    Two-Electron Energy =                 400.7913962046933420
    Total Energy =                       -783.1813344061519047

Computation Completed


Properties will be evaluated at   0.000000,   0.000000,   0.000000 [a0]

Properties computed using the SCF density matrix


 Multipole Moments:

 ------------------------------------------------------------------------------------
     Multipole            Electronic (a.u.)      Nuclear  (a.u.)        Total (a.u.)
 ------------------------------------------------------------------------------------

 L = 1.  Multiply by 2.5417464519 to convert [e a0] to [Debye]
 Dipole X            :        -50.0083725           54.1940250            4.1856525
 Dipole Y            :        -45.5257397           49.2673012            3.7415614
 Dipole Z            :         -0.0000000            0.0000000           -0.0000000
 Magnitude           :                                                    5.6141757

 ------------------------------------------------------------------------------------

*** tstop() called on moses-razer at Wed Jan  3 19:55:36 2024
Module time:
	user time   =       8.06 seconds =       0.13 minutes
	system time =       0.83 seconds =       0.01 minutes
	total time  =          3 seconds =       0.05 minutes
Total time:
	user time   =      31.16 seconds =       0.52 minutes
	system time =       2.77 seconds =       0.05 minutes
	total time  =         11 seconds =       0.18 minutes

*** tstart() called on moses-razer
*** at Wed Jan  3 19:55:36 2024


  //>>>>>>>>>>>>>>>>>>>>>>>>>>>>>>>>>>>//
  //               DFMP2               //
  //<<<<<<<<<<<<<<<<<<<<<<<<<<<<<<<<<<<//

   => Loading Basis Set <=

    Name: (AUG-CC-PVTZ AUX)
    Role: RIFIT
    Keyword: DF_BASIS_MP2
    atoms 1   entry CL         line   742 file /home/kchung25/anaconda3/envs/p415env/share/psi4/basis/aug-cc-pvtz-ri.gbs 
    atoms 2-3 entry NA         line   610 file /home/kchung25/anaconda3/envs/p415env/share/psi4/basis/def2-qzvpp-ri.gbs 

	 --------------------------------------------------------
	                          DF-MP2                         
	      2nd-Order Density-Fitted Moller-Plesset Theory     
	              RMP2 Wavefunction,   6 Threads             
	                                                         
	        Rob Parrish, Justin Turney, Andy Simmonett,      
	           Ed Hohenstein, and C. David Sherrill          
	 --------------------------------------------------------

   => Auxiliary Basis Set <=

  Basis Set: (AUG-CC-PVTZ AUX)
    Blend: AUG-CC-PVTZ-RI + DEF2-QZVPP-RI
    Number of shells: 121
    Number of basis functions: 479
    Number of Cartesian functions: 619
    Spherical Harmonics?: true
    Max angular momentum: 4

	 --------------------------------------------------------
	                 NBF =   150, NAUX =   479
	 --------------------------------------------------------
	   CLASS    FOCC     OCC    AOCC    AVIR     VIR    FVIR
	   PAIRS       0      19      19     131     131       0
	 --------------------------------------------------------

	-----------------------------------------------------------
	 ==================> DF-MP2 Energies <==================== 
	-----------------------------------------------------------
	 Reference Energy          =    -783.1813344061519047 [Eh]
	 Singles Energy            =      -0.0000000000000000 [Eh]
	 Same-Spin Energy          =      -0.0684656940306688 [Eh]
	 Opposite-Spin Energy      =      -0.2002227695310975 [Eh]
	 Correlation Energy        =      -0.2686884635617663 [Eh]
	 Total Energy              =    -783.4500228697136208 [Eh]
	-----------------------------------------------------------
	 ================> DF-SCS-MP2 Energies <================== 
	-----------------------------------------------------------
	 SCS Same-Spin Scale       =       0.3333333333333333 [-]
	 SCS Opposite-Spin Scale   =       1.2000000000000000 [-]
	 SCS Same-Spin Energy      =      -0.0228218980102229 [Eh]
	 SCS Opposite-Spin Energy  =      -0.2402673234373169 [Eh]
	 SCS Correlation Energy    =      -0.2630892214475399 [Eh]
	 SCS Total Energy          =    -783.4444236275994626 [Eh]
	-----------------------------------------------------------


*** tstop() called on moses-razer at Wed Jan  3 19:55:38 2024
Module time:
	user time   =       4.02 seconds =       0.07 minutes
	system time =       0.22 seconds =       0.00 minutes
	total time  =          2 seconds =       0.03 minutes
Total time:
	user time   =      35.19 seconds =       0.59 minutes
	system time =       2.99 seconds =       0.05 minutes
	total time  =         13 seconds =       0.22 minutes

    Psi4 stopped on: Wednesday, 03 January 2024 07:55PM
    Psi4 wall time for execution: 0:00:04.50


  //>>>>>>>>>>>>>>>>>>>>>>>>>>>>>>>>>>>//
  //          ManyBody Results         //
  //<<<<<<<<<<<<<<<<<<<<<<<<<<<<<<<<<<<//


   ==> N-Body: Counterpoise Corrected (CP) energies <==

        n-Body     Total Energy            Interaction Energy                          N-body Contribution to Interaction Energy
                   [Eh]                    [Eh]                  [kcal/mol]            [Eh]                  [kcal/mol]
             1  N/A                         0.000000000000        0.000000000000        0.000000000000        0.000000000000
  FULL/RTN   2  N/A                        -0.050496078034      -31.686767354821       -0.050496078034      -31.686767354821


    Psi4 stopped on: Wednesday, 03 January 2024 07:55PM
    Psi4 wall time for execution: 0:00:14.74

*** Psi4 exiting successfully. Buy a developer a beer!
