
    -----------------------------------------------------------------------
          Psi4: An Open-Source Ab Initio Electronic Structure Package
                               Psi4 1.8.2 release

                         Git: Rev {} zzzzzzz 


    D. G. A. Smith, L. A. Burns, A. C. Simmonett, R. M. Parrish,
    M. C. Schieber, R. Galvelis, P. Kraus, H. Kruse, R. Di Remigio,
    A. Alenaizan, A. M. James, S. Lehtola, J. P. Misiewicz, M. Scheurer,
    R. A. Shaw, J. B. Schriber, Y. Xie, Z. L. Glick, D. A. Sirianni,
    J. S. O'Brien, J. M. Waldrop, A. Kumar, E. G. Hohenstein,
    B. P. Pritchard, B. R. Brooks, H. F. Schaefer III, A. Yu. Sokolov,
    K. Patkowski, A. E. DePrince III, U. Bozkaya, R. A. King,
    F. A. Evangelista, J. M. Turney, T. D. Crawford, C. D. Sherrill,
    J. Chem. Phys. 152(18) 184108 (2020). https://doi.org/10.1063/5.0006002

                            Additional Code Authors
    E. T. Seidl, C. L. Janssen, E. F. Valeev, M. L. Leininger,
    J. F. Gonthier, R. M. Richard, H. R. McAlexander, M. Saitow, X. Wang,
    P. Verma, M. H. Lechner, A. Jiang, S. Behnle, A. G. Heide,
    M. F. Herbst, and D. L. Poole

             Previous Authors, Complete List of Code Contributors,
                       and Citations for Specific Modules
    https://github.com/psi4/psi4/blob/master/codemeta.json
    https://github.com/psi4/psi4/graphs/contributors
    http://psicode.org/psi4manual/master/introduction.html#citing-psifour

    -----------------------------------------------------------------------


    Psi4 started on: Monday, 22 January 2024 04:22AM

    Process ID: 32128
    Host:       ddmfs1
    PSIDATADIR: /ddmfs1b/softs/psi4conda/share/psi4
    Memory:     500.0 MiB
    Threads:    20
    
  ==> Input File <==

--------------------------------------------------------------------------
MEMORY 60 GB

molecule dimer {
-1 1
Cl     0.000000     0.000000     0.000000
--
1 1
Na     0.000000     2.370103     0.000000
--
1 1
Na     2.844124     0.000000     0.000000

units ang
no_reorient
no_com
symmetry c1
}

set {
basis        aug-cc-pVTZ
scf_type     df
}

energy("mp2", bsse_type="cp")
--------------------------------------------------------------------------

  Memory set to  55.879 GiB by Python driver.

Scratch directory: /ddmfs1a/scratch/

  //>>>>>>>>>>>>>>>>>>>>>>>>>>>>>>>>>>>>>>>>//
  // ManyBody Setup: N-Body Levels [1, 2, 3]//
  //<<<<<<<<<<<<<<<<<<<<<<<<<<<<<<<<<<<<<<<<//

        Number of 1-body computations:     3
        Number of 2-body computations:     3
        Number of 3-body computations:     1

    -----------------------------------------------------------------------
          Psi4: An Open-Source Ab Initio Electronic Structure Package
                               Psi4 1.8.2 release

                         Git: Rev {} zzzzzzz 


    D. G. A. Smith, L. A. Burns, A. C. Simmonett, R. M. Parrish,
    M. C. Schieber, R. Galvelis, P. Kraus, H. Kruse, R. Di Remigio,
    A. Alenaizan, A. M. James, S. Lehtola, J. P. Misiewicz, M. Scheurer,
    R. A. Shaw, J. B. Schriber, Y. Xie, Z. L. Glick, D. A. Sirianni,
    J. S. O'Brien, J. M. Waldrop, A. Kumar, E. G. Hohenstein,
    B. P. Pritchard, B. R. Brooks, H. F. Schaefer III, A. Yu. Sokolov,
    K. Patkowski, A. E. DePrince III, U. Bozkaya, R. A. King,
    F. A. Evangelista, J. M. Turney, T. D. Crawford, C. D. Sherrill,
    J. Chem. Phys. 152(18) 184108 (2020). https://doi.org/10.1063/5.0006002

                            Additional Code Authors
    E. T. Seidl, C. L. Janssen, E. F. Valeev, M. L. Leininger,
    J. F. Gonthier, R. M. Richard, H. R. McAlexander, M. Saitow, X. Wang,
    P. Verma, M. H. Lechner, A. Jiang, S. Behnle, A. G. Heide,
    M. F. Herbst, and D. L. Poole

             Previous Authors, Complete List of Code Contributors,
                       and Citations for Specific Modules
    https://github.com/psi4/psi4/blob/master/codemeta.json
    https://github.com/psi4/psi4/graphs/contributors
    http://psicode.org/psi4manual/master/introduction.html#citing-psifour

    -----------------------------------------------------------------------


    Psi4 started on: Monday, 22 January 2024 04:22AM

    Process ID: 32128
    Host:       ddmfs1
    PSIDATADIR: /ddmfs1b/softs/psi4conda/share/psi4
    Memory:     55.9 GiB
    Threads:    20
    
  ==> Input QCSchema <==

--------------------------------------------------------------------------
{'driver': 'energy',
 'extras': {'psiapi': True, 'wfn_qcvars_only': True},
 'id': None,
 'keywords': {'SCF_TYPE': 'DF', 'function_kwargs': {}},
 'model': {'basis': 'aug-cc-pvtz', 'method': 'mp2'},
 'molecule': {'atom_labels': ['', '', ''],
              'atomic_numbers': [17, 11, 11],
              'extras': {},
              'fix_com': True,
              'fix_orientation': True,
              'fix_symmetry': 'c1',
              'fragment_charges': [-1.0, 0.0, 0.0],
              'fragment_multiplicities': [1, 1, 1],
              'fragments': [[0], [1], [2]],
              'geometry': [0.0, 0.0, 0.0, 0.0, 4.478845559125975, 0.0, 5.37461542684162, 0.0, 0.0],
              'mass_numbers': [35, 23, 23],
              'masses': [34.968852682, 22.989769282, 22.989769282],
              'molecular_charge': -1.0,
              'molecular_multiplicity': 1,
              'name': 'dimer',
              'provenance': {'creator': 'QCElemental',
                             'routine': 'qcelemental.molparse.from_string',
                             'version': '0.26.0'},
              'real': [True, False, False],
              'schema_name': 'qcschema_molecule',
              'schema_version': 2,
              'symbols': ['Cl', 'Na', 'Na'],
              'validated': True},
 'protocols': {'stdout': True},
 'provenance': {'creator': 'QCElemental', 'routine': 'qcelemental.models.results', 'version': '0.26.0'},
 'schema_name': 'qcschema_input',
 'schema_version': 1}
--------------------------------------------------------------------------

Scratch directory: /ddmfs1a/scratch/
   => Libint2 <=

    Primary   basis highest AM E, G, H:  5, 4, 3
    Auxiliary basis highest AM E, G, H:  6, 5, 4
    Onebody   basis highest AM E, G, H:  6, 5, 4
    Solid Harmonics ordering:            gaussian

*** tstart() called on ddmfs1
*** at Mon Jan 22 04:22:09 2024

   => Loading Basis Set <=

    Name: AUG-CC-PVTZ
    Role: ORBITAL
    Keyword: BASIS
    atoms 1   entry CL         line   988 file /ddmfs1b/softs/psi4conda/share/psi4/basis/aug-cc-pvtz.gbs 
    atoms 2-3 entry NA         line   469 file /ddmfs1b/softs/psi4conda/share/psi4/basis/aug-cc-pvtz.gbs 


         ---------------------------------------------------------
                                   SCF
               by Justin Turney, Rob Parrish, Andy Simmonett
                          and Daniel G. A. Smith
                              RHF Reference
                       20 Threads,  57220 MiB Core
         ---------------------------------------------------------

  ==> Geometry <==

    Molecular point group: c1
    Full point group: Cs

    Geometry (in Bohr), charge = -1, multiplicity = 1:

       Center              X                  Y                   Z               Mass       
    ------------   -----------------  -----------------  -----------------  -----------------
         CL           0.000000000000     0.000000000000     0.000000000000    34.968852682000
      Gh(NA)          0.000000000000     4.478845559126     0.000000000000    22.989769282000
      Gh(NA)          5.374615426842     0.000000000000     0.000000000000    22.989769282000

  Running in c1 symmetry.

  Rotational constants: A =      0.13054  B =      0.09065  C =      0.05350 [cm^-1]
  Rotational constants: A =   3913.34509  B =   2717.59999  C =   1603.82969 [MHz]
  Nuclear repulsion =    0.000000000000000

  Charge       = -1
  Multiplicity = 1
  Electrons    = 18
  Nalpha       = 9
  Nbeta        = 9

  ==> Algorithm <==

  SCF Algorithm Type is DF.
  DIIS enabled.
  MOM disabled.
  Fractional occupation disabled.
  Guess Type is SAD.
  Energy threshold   = 1.00e-08
  Density threshold  = 1.00e-08
  Integral threshold = 1.00e-12

  ==> Primary Basis <==

  Basis Set: AUG-CC-PVTZ
    Blend: AUG-CC-PVTZ
    Number of shells: 48
    Number of basis functions: 150
    Number of Cartesian functions: 177
    Spherical Harmonics?: true
    Max angular momentum: 3

   => Loading Basis Set <=

    Name: (AUG-CC-PVTZ AUX)
    Role: JKFIT
    Keyword: DF_BASIS_SCF
    atoms 1   entry CL         line   816 file /ddmfs1b/softs/psi4conda/share/psi4/basis/aug-cc-pvtz-jkfit.gbs 
    atoms 2-3 entry NA         line   498 file /ddmfs1b/softs/psi4conda/share/psi4/basis/def2-universal-jkfit.gbs 

  ==> Integral Setup <==

  DFHelper Memory: AOs need 0.071 GiB; user supplied 41.910 GiB. 
  Using in-core AOs.

  ==> MemDFJK: Density-Fitted J/K Matrices <==

    J tasked:                   Yes
    K tasked:                   Yes
    wK tasked:                   No
    OpenMP threads:              20
    Memory [MiB]:             42915
    Algorithm:                 Core
    Schwarz Cutoff:           1E-12
    Mask sparsity (%):       0.0000
    Fitting Condition:        1E-10

   => Auxiliary Basis Set <=

  Basis Set: (AUG-CC-PVTZ AUX)
    Blend: AUG-CC-PVTZ-JKFIT + DEF2-UNIVERSAL-JKFIT
    Number of shells: 110
    Number of basis functions: 370
    Number of Cartesian functions: 454
    Spherical Harmonics?: true
    Max angular momentum: 4

  Minimum eigenvalue in the overlap matrix is 4.7802788589E-05.
  Reciprocal condition number of the overlap matrix is 6.3842759419E-06.
    Using symmetric orthogonalization.

  ==> Pre-Iterations <==

  SCF Guess: Superposition of Atomic Densities via on-the-fly atomic UHF (no occupation information).

   -------------------------
    Irrep   Nso     Nmo    
   -------------------------
     A        150     150 
   -------------------------
    Total     150     150
   -------------------------

  ==> Iterations <==

                           Total Energy        Delta E     RMS |[F,P]|

   @DF-RHF iter SAD:  -459.11248997075796   -4.59112e+02   0.00000e+00 
   @DF-RHF iter   1:  -459.51385211063302   -4.01362e-01   1.98990e-03 ADIIS/DIIS
   @DF-RHF iter   2:  -459.56476065425807   -5.09085e-02   1.01881e-03 ADIIS/DIIS
   @DF-RHF iter   3:  -459.57346437834713   -8.70372e-03   6.79690e-05 DIIS
   @DF-RHF iter   4:  -459.57351904639944   -5.46681e-05   1.38490e-05 DIIS
   @DF-RHF iter   5:  -459.57352265396037   -3.60756e-06   1.42047e-06 DIIS
   @DF-RHF iter   6:  -459.57352273658262   -8.26223e-08   1.25477e-07 DIIS
   @DF-RHF iter   7:  -459.57352273756015   -9.77536e-10   1.52753e-08 DIIS
   @DF-RHF iter   8:  -459.57352273758232   -2.21689e-11   2.11471e-09 DIIS
  Energy and wave function converged.


  ==> Post-Iterations <==

    Orbital Energies [Eh]
    ---------------------

    Doubly Occupied:                                                      

       1A   -104.506618     2A    -10.229890     3A     -7.695955  
       4A     -7.695938     5A     -7.695930     6A     -0.733481  
       7A     -0.150323     8A     -0.150318     9A     -0.150306  

    Virtual:                                                              

      10A      0.063680    11A      0.071784    12A      0.084575  
      13A      0.084775    14A      0.086978    15A      0.086989  
      16A      0.093646    17A      0.105932    18A      0.128721  
      19A      0.134889    20A      0.145890    21A      0.149032  
      22A      0.155502    23A      0.158426    24A      0.165308  
      25A      0.168126    26A      0.169262    27A      0.174987  
      28A      0.182033    29A      0.183894    30A      0.186246  
      31A      0.190660    32A      0.196630    33A      0.197355  
      34A      0.208276    35A      0.224790    36A      0.259890  
      37A      0.274279    38A      0.275592    39A      0.290224  
      40A      0.290431    41A      0.301368    42A      0.330556  
      43A      0.336169    44A      0.348277    45A      0.366479  
      46A      0.371907    47A      0.372445    48A      0.381824  
      49A      0.383608    50A      0.395445    51A      0.395692  
      52A      0.401988    53A      0.410314    54A      0.413154  
      55A      0.416147    56A      0.426364    57A      0.433984  
      58A      0.436377    59A      0.453159    60A      0.463117  
      61A      0.469289    62A      0.479600    63A      0.482048  
      64A      0.497819    65A      0.515078    66A      0.527496  
      67A      0.527922    68A      0.529257    69A      0.543817  
      70A      0.561658    71A      0.568640    72A      0.577892  
      73A      0.616939    74A      0.622213    75A      0.657523  
      76A      0.671231    77A      0.713062    78A      0.724008  
      79A      0.724031    80A      0.766747    81A      0.803066  
      82A      0.810444    83A      0.870843    84A      0.874607  
      85A      0.878150    86A      0.880828    87A      0.887187  
      88A      0.892824    89A      0.901318    90A      0.901713  
      91A      0.909102    92A      0.926836    93A      0.927509  
      94A      0.938757    95A      0.941946    96A      0.968553  
      97A      0.971053    98A      0.996807    99A      0.998159  
     100A      1.015795   101A      1.023834   102A      1.067778  
     103A      1.080931   104A      1.114916   105A      1.128595  
     106A      1.135277   107A      1.178033   108A      1.242933  
     109A      1.250610   110A      1.294059   111A      1.351403  
     112A      1.351931   113A      1.397169   114A      1.414852  
     115A      1.429946   116A      1.521469   117A      1.612502  
     118A      1.630154   119A      1.697229   120A      1.721791  
     121A      1.810279   122A      1.825715   123A      1.986662  
     124A      2.202005   125A      2.925019   126A      2.929396  
     127A      2.961463   128A      2.996436   129A      3.040085  
     130A      3.137445   131A      3.268329   132A      3.314761  
     133A      3.457493   134A      3.458977   135A      3.506615  
     136A      3.514890   137A      3.589359   138A      3.604492  
     139A      3.687778   140A      4.724993   141A      4.930213  
     142A      6.501114   143A      6.512369   144A      6.517353  
     145A      6.553834   146A      6.673276   147A      6.894512  
     148A      7.608140   149A     64.654080   150A     64.711945  

    Final Occupation by Irrep:
              A 
    DOCC [     9 ]
    NA   [     9 ]
    NB   [     9 ]

  @DF-RHF Final Energy:  -459.57352273758232

   => Energetics <=

    Nuclear Repulsion Energy =              0.0000000000000000
    One-Electron Energy =                -641.1295230864507175
    Two-Electron Energy =                 181.5560003488684231
    Total Energy =                       -459.5735227375822660

Computation Completed


Properties will be evaluated at   0.000000,   0.000000,   0.000000 [a0]

Properties computed using the SCF density matrix


 Multipole Moments:

 ------------------------------------------------------------------------------------
     Multipole            Electronic (a.u.)      Nuclear  (a.u.)        Total (a.u.)
 ------------------------------------------------------------------------------------

 L = 1.  Multiply by 2.5417464519 to convert [e a0] to [Debye]
 Dipole X            :          0.0000893            0.0000000            0.0000893
 Dipole Y            :          0.0002372            0.0000000            0.0002372
 Dipole Z            :         -0.0000000            0.0000000           -0.0000000
 Magnitude           :                                                    0.0002535

 ------------------------------------------------------------------------------------

*** tstop() called on ddmfs1 at Mon Jan 22 04:22:11 2024
Module time:
	user time   =      26.05 seconds =       0.43 minutes
	system time =       3.37 seconds =       0.06 minutes
	total time  =          2 seconds =       0.03 minutes
Total time:
	user time   =      26.05 seconds =       0.43 minutes
	system time =       3.37 seconds =       0.06 minutes
	total time  =          2 seconds =       0.03 minutes

*** tstart() called on ddmfs1
*** at Mon Jan 22 04:22:11 2024


  //>>>>>>>>>>>>>>>>>>>>>>>>>>>>>>>>>>>//
  //               DFMP2               //
  //<<<<<<<<<<<<<<<<<<<<<<<<<<<<<<<<<<<//

   => Loading Basis Set <=

    Name: (AUG-CC-PVTZ AUX)
    Role: RIFIT
    Keyword: DF_BASIS_MP2
    atoms 1   entry CL         line   742 file /ddmfs1b/softs/psi4conda/share/psi4/basis/aug-cc-pvtz-ri.gbs 
    atoms 2-3 entry NA         line   610 file /ddmfs1b/softs/psi4conda/share/psi4/basis/def2-qzvpp-ri.gbs 

	 --------------------------------------------------------
	                          DF-MP2                         
	      2nd-Order Density-Fitted Moller-Plesset Theory     
	              RMP2 Wavefunction,  20 Threads             
	                                                         
	        Rob Parrish, Justin Turney, Andy Simmonett,      
	           Ed Hohenstein, and C. David Sherrill          
	 --------------------------------------------------------

   => Auxiliary Basis Set <=

  Basis Set: (AUG-CC-PVTZ AUX)
    Blend: AUG-CC-PVTZ-RI + DEF2-QZVPP-RI
    Number of shells: 121
    Number of basis functions: 479
    Number of Cartesian functions: 619
    Spherical Harmonics?: true
    Max angular momentum: 4

	 --------------------------------------------------------
	                 NBF =   150, NAUX =   479
	 --------------------------------------------------------
	   CLASS    FOCC     OCC    AOCC    AVIR     VIR    FVIR
	   PAIRS       0       9       9     141     141       0
	 --------------------------------------------------------

	-----------------------------------------------------------
	 ==================> DF-MP2 Energies <==================== 
	-----------------------------------------------------------
	 Reference Energy          =    -459.5735227375823229 [Eh]
	 Singles Energy            =      -0.0000000000000000 [Eh]
	 Same-Spin Energy          =      -0.0628803514910885 [Eh]
	 Opposite-Spin Energy      =      -0.1808080417320711 [Eh]
	 Correlation Energy        =      -0.2436883932231596 [Eh]
	 Total Energy              =    -459.8172111308055037 [Eh]
	-----------------------------------------------------------
	 ================> DF-SCS-MP2 Energies <================== 
	-----------------------------------------------------------
	 SCS Same-Spin Scale       =       0.3333333333333333 [-]
	 SCS Opposite-Spin Scale   =       1.2000000000000000 [-]
	 SCS Same-Spin Energy      =      -0.0209601171636962 [Eh]
	 SCS Opposite-Spin Energy  =      -0.2169696500784853 [Eh]
	 SCS Correlation Energy    =      -0.2379297672421815 [Eh]
	 SCS Total Energy          =    -459.8114525048245014 [Eh]
	-----------------------------------------------------------


*** tstop() called on ddmfs1 at Mon Jan 22 04:22:18 2024
Module time:
	user time   =      14.75 seconds =       0.25 minutes
	system time =       1.02 seconds =       0.02 minutes
	total time  =          7 seconds =       0.12 minutes
Total time:
	user time   =      40.82 seconds =       0.68 minutes
	system time =       4.39 seconds =       0.07 minutes
	total time  =          9 seconds =       0.15 minutes

    Psi4 stopped on: Monday, 22 January 2024 04:22AM
    Psi4 wall time for execution: 0:00:09.54


    -----------------------------------------------------------------------
          Psi4: An Open-Source Ab Initio Electronic Structure Package
                               Psi4 1.8.2 release

                         Git: Rev {} zzzzzzz 


    D. G. A. Smith, L. A. Burns, A. C. Simmonett, R. M. Parrish,
    M. C. Schieber, R. Galvelis, P. Kraus, H. Kruse, R. Di Remigio,
    A. Alenaizan, A. M. James, S. Lehtola, J. P. Misiewicz, M. Scheurer,
    R. A. Shaw, J. B. Schriber, Y. Xie, Z. L. Glick, D. A. Sirianni,
    J. S. O'Brien, J. M. Waldrop, A. Kumar, E. G. Hohenstein,
    B. P. Pritchard, B. R. Brooks, H. F. Schaefer III, A. Yu. Sokolov,
    K. Patkowski, A. E. DePrince III, U. Bozkaya, R. A. King,
    F. A. Evangelista, J. M. Turney, T. D. Crawford, C. D. Sherrill,
    J. Chem. Phys. 152(18) 184108 (2020). https://doi.org/10.1063/5.0006002

                            Additional Code Authors
    E. T. Seidl, C. L. Janssen, E. F. Valeev, M. L. Leininger,
    J. F. Gonthier, R. M. Richard, H. R. McAlexander, M. Saitow, X. Wang,
    P. Verma, M. H. Lechner, A. Jiang, S. Behnle, A. G. Heide,
    M. F. Herbst, and D. L. Poole

             Previous Authors, Complete List of Code Contributors,
                       and Citations for Specific Modules
    https://github.com/psi4/psi4/blob/master/codemeta.json
    https://github.com/psi4/psi4/graphs/contributors
    http://psicode.org/psi4manual/master/introduction.html#citing-psifour

    -----------------------------------------------------------------------


    Psi4 started on: Monday, 22 January 2024 04:22AM

    Process ID: 32128
    Host:       ddmfs1
    PSIDATADIR: /ddmfs1b/softs/psi4conda/share/psi4
    Memory:     55.9 GiB
    Threads:    20
    
  ==> Input QCSchema <==

--------------------------------------------------------------------------
{'driver': 'energy',
 'extras': {'psiapi': True, 'wfn_qcvars_only': True},
 'id': None,
 'keywords': {'SCF_TYPE': 'DF', 'function_kwargs': {}},
 'model': {'basis': 'aug-cc-pvtz', 'method': 'mp2'},
 'molecule': {'atom_labels': ['', '', ''],
              'atomic_numbers': [17, 11, 11],
              'extras': {},
              'fix_com': True,
              'fix_orientation': True,
              'fix_symmetry': 'c1',
              'fragment_charges': [0.0, 1.0, 0.0],
              'fragment_multiplicities': [1, 1, 1],
              'fragments': [[0], [1], [2]],
              'geometry': [0.0, 0.0, 0.0, 0.0, 4.478845559125975, 0.0, 5.37461542684162, 0.0, 0.0],
              'mass_numbers': [35, 23, 23],
              'masses': [34.968852682, 22.989769282, 22.989769282],
              'molecular_charge': 1.0,
              'molecular_multiplicity': 1,
              'name': 'dimer',
              'provenance': {'creator': 'QCElemental',
                             'routine': 'qcelemental.molparse.from_string',
                             'version': '0.26.0'},
              'real': [False, True, False],
              'schema_name': 'qcschema_molecule',
              'schema_version': 2,
              'symbols': ['Cl', 'Na', 'Na'],
              'validated': True},
 'protocols': {'stdout': True},
 'provenance': {'creator': 'QCElemental', 'routine': 'qcelemental.models.results', 'version': '0.26.0'},
 'schema_name': 'qcschema_input',
 'schema_version': 1}
--------------------------------------------------------------------------

Scratch directory: /ddmfs1a/scratch/
   => Libint2 <=

    Primary   basis highest AM E, G, H:  5, 4, 3
    Auxiliary basis highest AM E, G, H:  6, 5, 4
    Onebody   basis highest AM E, G, H:  6, 5, 4
    Solid Harmonics ordering:            gaussian

*** tstart() called on ddmfs1
*** at Mon Jan 22 04:22:18 2024

   => Loading Basis Set <=

    Name: AUG-CC-PVTZ
    Role: ORBITAL
    Keyword: BASIS
    atoms 1   entry CL         line   988 file /ddmfs1b/softs/psi4conda/share/psi4/basis/aug-cc-pvtz.gbs 
    atoms 2-3 entry NA         line   469 file /ddmfs1b/softs/psi4conda/share/psi4/basis/aug-cc-pvtz.gbs 


         ---------------------------------------------------------
                                   SCF
               by Justin Turney, Rob Parrish, Andy Simmonett
                          and Daniel G. A. Smith
                              RHF Reference
                       20 Threads,  57220 MiB Core
         ---------------------------------------------------------

  ==> Geometry <==

    Molecular point group: c1
    Full point group: Cs

    Geometry (in Bohr), charge = 1, multiplicity = 1:

       Center              X                  Y                   Z               Mass       
    ------------   -----------------  -----------------  -----------------  -----------------
      Gh(CL)          0.000000000000     0.000000000000     0.000000000000    34.968852682000
         NA           0.000000000000     4.478845559126     0.000000000000    22.989769282000
      Gh(NA)          5.374615426842     0.000000000000     0.000000000000    22.989769282000

  Running in c1 symmetry.

  Rotational constants: A =      0.13054  B =      0.09065  C =      0.05350 [cm^-1]
  Rotational constants: A =   3913.34509  B =   2717.59999  C =   1603.82969 [MHz]
  Nuclear repulsion =    0.000000000000000

  Charge       = 1
  Multiplicity = 1
  Electrons    = 10
  Nalpha       = 5
  Nbeta        = 5

  ==> Algorithm <==

  SCF Algorithm Type is DF.
  DIIS enabled.
  MOM disabled.
  Fractional occupation disabled.
  Guess Type is SAD.
  Energy threshold   = 1.00e-08
  Density threshold  = 1.00e-08
  Integral threshold = 1.00e-12

  ==> Primary Basis <==

  Basis Set: AUG-CC-PVTZ
    Blend: AUG-CC-PVTZ
    Number of shells: 48
    Number of basis functions: 150
    Number of Cartesian functions: 177
    Spherical Harmonics?: true
    Max angular momentum: 3

   => Loading Basis Set <=

    Name: (AUG-CC-PVTZ AUX)
    Role: JKFIT
    Keyword: DF_BASIS_SCF
    atoms 1   entry CL         line   816 file /ddmfs1b/softs/psi4conda/share/psi4/basis/aug-cc-pvtz-jkfit.gbs 
    atoms 2-3 entry NA         line   498 file /ddmfs1b/softs/psi4conda/share/psi4/basis/def2-universal-jkfit.gbs 

  ==> Integral Setup <==

  DFHelper Memory: AOs need 0.071 GiB; user supplied 41.910 GiB. 
  Using in-core AOs.

  ==> MemDFJK: Density-Fitted J/K Matrices <==

    J tasked:                   Yes
    K tasked:                   Yes
    wK tasked:                   No
    OpenMP threads:              20
    Memory [MiB]:             42915
    Algorithm:                 Core
    Schwarz Cutoff:           1E-12
    Mask sparsity (%):       0.0000
    Fitting Condition:        1E-10

   => Auxiliary Basis Set <=

  Basis Set: (AUG-CC-PVTZ AUX)
    Blend: AUG-CC-PVTZ-JKFIT + DEF2-UNIVERSAL-JKFIT
    Number of shells: 110
    Number of basis functions: 370
    Number of Cartesian functions: 454
    Spherical Harmonics?: true
    Max angular momentum: 4

  Minimum eigenvalue in the overlap matrix is 4.7802788589E-05.
  Reciprocal condition number of the overlap matrix is 6.3842759419E-06.
    Using symmetric orthogonalization.

  ==> Pre-Iterations <==

  SCF Guess: Superposition of Atomic Densities via on-the-fly atomic UHF (no occupation information).

   -------------------------
    Irrep   Nso     Nmo    
   -------------------------
     A        150     150 
   -------------------------
    Total     150     150
   -------------------------

  ==> Iterations <==

                           Total Energy        Delta E     RMS |[F,P]|

   @DF-RHF iter SAD:  -161.74557641186442   -1.61746e+02   0.00000e+00 
   @DF-RHF iter   1:  -161.67602388178736    6.95525e-02   3.89815e-05 DIIS
   @DF-RHF iter   2:  -161.67604170693207   -1.78251e-05   7.53246e-06 DIIS
   @DF-RHF iter   3:  -161.67604216306651   -4.56134e-07   3.04883e-07 DIIS
   @DF-RHF iter   4:  -161.67604216382600   -7.59485e-10   2.76272e-08 DIIS
   @DF-RHF iter   5:  -161.67604216383171   -5.71276e-12   1.59970e-09 DIIS
  Energy and wave function converged.


  ==> Post-Iterations <==

    Orbital Energies [Eh]
    ---------------------

    Doubly Occupied:                                                      

       1A    -40.762729     2A     -3.074882     3A     -1.798170  
       4A     -1.798072     5A     -1.798018  

    Virtual:                                                              

       6A     -0.181835     7A     -0.109447     8A     -0.109439  
       9A     -0.109435    10A     -0.070058    11A     -0.054571  
      12A     -0.054514    13A     -0.054488    14A     -0.050696  
      15A     -0.050688    16A     -0.049879    17A     -0.049093  
      18A     -0.049048    19A     -0.028900    20A     -0.025636  
      21A     -0.024710    22A     -0.024604    23A     -0.020881  
      24A     -0.010650    25A     -0.010025    26A     -0.006292  
      27A     -0.005451    28A     -0.002228    29A      0.000074  
      30A      0.000656    31A      0.009438    32A      0.020105  
      33A      0.025817    34A      0.026914    35A      0.029129  
      36A      0.030817    37A      0.035430    38A      0.042988  
      39A      0.044230    40A      0.064975    41A      0.068940  
      42A      0.073949    43A      0.079241    44A      0.086982  
      45A      0.086996    46A      0.095906    47A      0.110149  
      48A      0.127695    49A      0.132580    50A      0.137489  
      51A      0.151974    52A      0.152492    53A      0.157472  
      54A      0.161176    55A      0.163084    56A      0.165524  
      57A      0.171471    58A      0.177888    59A      0.191356  
      60A      0.198658    61A      0.202247    62A      0.215197  
      63A      0.216478    64A      0.217302    65A      0.235635  
      66A      0.236282    67A      0.251011    68A      0.278236  
      69A      0.282825    70A      0.321238    71A      0.322554  
      72A      0.328002    73A      0.328255    74A      0.342633  
      75A      0.347598    76A      0.372755    77A      0.376200  
      78A      0.392985    79A      0.396839    80A      0.419946  
      81A      0.449456    82A      0.461064    83A      0.474458  
      84A      0.500766    85A      0.507666    86A      0.511611  
      87A      0.523307    88A      0.532640    89A      0.534246  
      90A      0.568458    91A      0.587481    92A      0.595043  
      93A      0.610823    94A      0.611644    95A      0.627648  
      96A      0.640676    97A      0.657816    98A      0.666123  
      99A      0.676732   100A      0.686241   101A      0.701759  
     102A      0.736914   103A      0.749651   104A      0.760735  
     105A      0.800200   106A      0.874396   107A      1.003073  
     108A      1.165179   109A      1.187621   110A      1.231428  
     111A      1.237264   112A      1.311855   113A      1.342008  
     114A      1.350862   115A      1.395249   116A      1.418807  
     117A      1.447686   118A      1.475902   119A      1.495234  
     120A      1.513753   121A      1.546840   122A      1.722761  
     123A      1.764357   124A      2.132080   125A      3.771512  
     126A      3.787138   127A      3.796489   128A      3.798652  
     129A      3.869086   130A      3.876546   131A      3.950520  
     132A      3.961690   133A      3.979358   134A      4.084839  
     135A      4.459986   136A      4.514946   137A      4.547503  
     138A      4.563605   139A      4.567720   140A      4.598873  
     141A      4.751852   142A      6.196214   143A      6.235053  
     144A      6.469030   145A     14.933994   146A     27.638694  
     147A     27.835677   148A     27.912275   149A     64.336161  
     150A    160.691790  

    Final Occupation by Irrep:
              A 
    DOCC [     5 ]
    NA   [     5 ]
    NB   [     5 ]

  @DF-RHF Final Energy:  -161.67604216383171

   => Energetics <=

    Nuclear Repulsion Energy =              0.0000000000000000
    One-Electron Energy =                -224.8883435317887916
    Two-Electron Energy =                  63.2123013679570960
    Total Energy =                       -161.6760421638317098

Computation Completed


Properties will be evaluated at   0.000000,   0.000000,   0.000000 [a0]

Properties computed using the SCF density matrix


 Multipole Moments:

 ------------------------------------------------------------------------------------
     Multipole            Electronic (a.u.)      Nuclear  (a.u.)        Total (a.u.)
 ------------------------------------------------------------------------------------

 L = 1.  Multiply by 2.5417464519 to convert [e a0] to [Debye]
 Dipole X            :          0.0001288            0.0000000            0.0001288
 Dipole Y            :        -44.7890235           49.2673012            4.4782776
 Dipole Z            :         -0.0000000            0.0000000           -0.0000000
 Magnitude           :                                                    4.4782776

 ------------------------------------------------------------------------------------

*** tstop() called on ddmfs1 at Mon Jan 22 04:22:21 2024
Module time:
	user time   =      26.17 seconds =       0.44 minutes
	system time =       4.05 seconds =       0.07 minutes
	total time  =          3 seconds =       0.05 minutes
Total time:
	user time   =      68.17 seconds =       1.14 minutes
	system time =       8.47 seconds =       0.14 minutes
	total time  =         12 seconds =       0.20 minutes

*** tstart() called on ddmfs1
*** at Mon Jan 22 04:22:21 2024


  //>>>>>>>>>>>>>>>>>>>>>>>>>>>>>>>>>>>//
  //               DFMP2               //
  //<<<<<<<<<<<<<<<<<<<<<<<<<<<<<<<<<<<//

   => Loading Basis Set <=

    Name: (AUG-CC-PVTZ AUX)
    Role: RIFIT
    Keyword: DF_BASIS_MP2
    atoms 1   entry CL         line   742 file /ddmfs1b/softs/psi4conda/share/psi4/basis/aug-cc-pvtz-ri.gbs 
    atoms 2-3 entry NA         line   610 file /ddmfs1b/softs/psi4conda/share/psi4/basis/def2-qzvpp-ri.gbs 

	 --------------------------------------------------------
	                          DF-MP2                         
	      2nd-Order Density-Fitted Moller-Plesset Theory     
	              RMP2 Wavefunction,  20 Threads             
	                                                         
	        Rob Parrish, Justin Turney, Andy Simmonett,      
	           Ed Hohenstein, and C. David Sherrill          
	 --------------------------------------------------------

   => Auxiliary Basis Set <=

  Basis Set: (AUG-CC-PVTZ AUX)
    Blend: AUG-CC-PVTZ-RI + DEF2-QZVPP-RI
    Number of shells: 121
    Number of basis functions: 479
    Number of Cartesian functions: 619
    Spherical Harmonics?: true
    Max angular momentum: 4

	 --------------------------------------------------------
	                 NBF =   150, NAUX =   479
	 --------------------------------------------------------
	   CLASS    FOCC     OCC    AOCC    AVIR     VIR    FVIR
	   PAIRS       0       5       5     145     145       0
	 --------------------------------------------------------

	-----------------------------------------------------------
	 ==================> DF-MP2 Energies <==================== 
	-----------------------------------------------------------
	 Reference Energy          =    -161.6760421638317098 [Eh]
	 Singles Energy            =      -0.0000000000000000 [Eh]
	 Same-Spin Energy          =      -0.0027856809750431 [Eh]
	 Opposite-Spin Energy      =      -0.0101642485122134 [Eh]
	 Correlation Energy        =      -0.0129499294872564 [Eh]
	 Total Energy              =    -161.6889920933189728 [Eh]
	-----------------------------------------------------------
	 ================> DF-SCS-MP2 Energies <================== 
	-----------------------------------------------------------
	 SCS Same-Spin Scale       =       0.3333333333333333 [-]
	 SCS Opposite-Spin Scale   =       1.2000000000000000 [-]
	 SCS Same-Spin Energy      =      -0.0009285603250144 [Eh]
	 SCS Opposite-Spin Energy  =      -0.0121970982146560 [Eh]
	 SCS Correlation Energy    =      -0.0131256585396704 [Eh]
	 SCS Total Energy          =    -161.6891678223713882 [Eh]
	-----------------------------------------------------------


*** tstop() called on ddmfs1 at Mon Jan 22 04:22:27 2024
Module time:
	user time   =      14.48 seconds =       0.24 minutes
	system time =       1.01 seconds =       0.02 minutes
	total time  =          6 seconds =       0.10 minutes
Total time:
	user time   =      82.67 seconds =       1.38 minutes
	system time =       9.48 seconds =       0.16 minutes
	total time  =         18 seconds =       0.30 minutes

    Psi4 stopped on: Monday, 22 January 2024 04:22AM
    Psi4 wall time for execution: 0:00:09.43


    -----------------------------------------------------------------------
          Psi4: An Open-Source Ab Initio Electronic Structure Package
                               Psi4 1.8.2 release

                         Git: Rev {} zzzzzzz 


    D. G. A. Smith, L. A. Burns, A. C. Simmonett, R. M. Parrish,
    M. C. Schieber, R. Galvelis, P. Kraus, H. Kruse, R. Di Remigio,
    A. Alenaizan, A. M. James, S. Lehtola, J. P. Misiewicz, M. Scheurer,
    R. A. Shaw, J. B. Schriber, Y. Xie, Z. L. Glick, D. A. Sirianni,
    J. S. O'Brien, J. M. Waldrop, A. Kumar, E. G. Hohenstein,
    B. P. Pritchard, B. R. Brooks, H. F. Schaefer III, A. Yu. Sokolov,
    K. Patkowski, A. E. DePrince III, U. Bozkaya, R. A. King,
    F. A. Evangelista, J. M. Turney, T. D. Crawford, C. D. Sherrill,
    J. Chem. Phys. 152(18) 184108 (2020). https://doi.org/10.1063/5.0006002

                            Additional Code Authors
    E. T. Seidl, C. L. Janssen, E. F. Valeev, M. L. Leininger,
    J. F. Gonthier, R. M. Richard, H. R. McAlexander, M. Saitow, X. Wang,
    P. Verma, M. H. Lechner, A. Jiang, S. Behnle, A. G. Heide,
    M. F. Herbst, and D. L. Poole

             Previous Authors, Complete List of Code Contributors,
                       and Citations for Specific Modules
    https://github.com/psi4/psi4/blob/master/codemeta.json
    https://github.com/psi4/psi4/graphs/contributors
    http://psicode.org/psi4manual/master/introduction.html#citing-psifour

    -----------------------------------------------------------------------


    Psi4 started on: Monday, 22 January 2024 04:22AM

    Process ID: 32128
    Host:       ddmfs1
    PSIDATADIR: /ddmfs1b/softs/psi4conda/share/psi4
    Memory:     55.9 GiB
    Threads:    20
    
  ==> Input QCSchema <==

--------------------------------------------------------------------------
{'driver': 'energy',
 'extras': {'psiapi': True, 'wfn_qcvars_only': True},
 'id': None,
 'keywords': {'SCF_TYPE': 'DF', 'function_kwargs': {}},
 'model': {'basis': 'aug-cc-pvtz', 'method': 'mp2'},
 'molecule': {'atom_labels': ['', '', ''],
              'atomic_numbers': [17, 11, 11],
              'extras': {},
              'fix_com': True,
              'fix_orientation': True,
              'fix_symmetry': 'c1',
              'fragment_charges': [0.0, 1.0, 1.0],
              'fragment_multiplicities': [1, 1, 1],
              'fragments': [[0], [1], [2]],
              'geometry': [0.0, 0.0, 0.0, 0.0, 4.478845559125975, 0.0, 5.37461542684162, 0.0, 0.0],
              'mass_numbers': [35, 23, 23],
              'masses': [34.968852682, 22.989769282, 22.989769282],
              'molecular_charge': 2.0,
              'molecular_multiplicity': 1,
              'name': 'dimer',
              'provenance': {'creator': 'QCElemental',
                             'routine': 'qcelemental.molparse.from_string',
                             'version': '0.26.0'},
              'real': [False, True, True],
              'schema_name': 'qcschema_molecule',
              'schema_version': 2,
              'symbols': ['Cl', 'Na', 'Na'],
              'validated': True},
 'protocols': {'stdout': True},
 'provenance': {'creator': 'QCElemental', 'routine': 'qcelemental.models.results', 'version': '0.26.0'},
 'schema_name': 'qcschema_input',
 'schema_version': 1}
--------------------------------------------------------------------------

Scratch directory: /ddmfs1a/scratch/
   => Libint2 <=

    Primary   basis highest AM E, G, H:  5, 4, 3
    Auxiliary basis highest AM E, G, H:  6, 5, 4
    Onebody   basis highest AM E, G, H:  6, 5, 4
    Solid Harmonics ordering:            gaussian

*** tstart() called on ddmfs1
*** at Mon Jan 22 04:22:28 2024

   => Loading Basis Set <=

    Name: AUG-CC-PVTZ
    Role: ORBITAL
    Keyword: BASIS
    atoms 1   entry CL         line   988 file /ddmfs1b/softs/psi4conda/share/psi4/basis/aug-cc-pvtz.gbs 
    atoms 2-3 entry NA         line   469 file /ddmfs1b/softs/psi4conda/share/psi4/basis/aug-cc-pvtz.gbs 


         ---------------------------------------------------------
                                   SCF
               by Justin Turney, Rob Parrish, Andy Simmonett
                          and Daniel G. A. Smith
                              RHF Reference
                       20 Threads,  57220 MiB Core
         ---------------------------------------------------------

  ==> Geometry <==

    Molecular point group: c1
    Full point group: Cs

    Geometry (in Bohr), charge = 2, multiplicity = 1:

       Center              X                  Y                   Z               Mass       
    ------------   -----------------  -----------------  -----------------  -----------------
      Gh(CL)          0.000000000000     0.000000000000     0.000000000000    34.968852682000
         NA           0.000000000000     4.478845559126     0.000000000000    22.989769282000
         NA           5.374615426842     0.000000000000     0.000000000000    22.989769282000

  Running in c1 symmetry.

  Rotational constants: A =      0.13054  B =      0.09065  C =      0.05350 [cm^-1]
  Rotational constants: A =   3913.34509  B =   2717.59999  C =   1603.82969 [MHz]
  Nuclear repulsion =   17.295150035281992

  Charge       = 2
  Multiplicity = 1
  Electrons    = 20
  Nalpha       = 10
  Nbeta        = 10

  ==> Algorithm <==

  SCF Algorithm Type is DF.
  DIIS enabled.
  MOM disabled.
  Fractional occupation disabled.
  Guess Type is SAD.
  Energy threshold   = 1.00e-08
  Density threshold  = 1.00e-08
  Integral threshold = 1.00e-12

  ==> Primary Basis <==

  Basis Set: AUG-CC-PVTZ
    Blend: AUG-CC-PVTZ
    Number of shells: 48
    Number of basis functions: 150
    Number of Cartesian functions: 177
    Spherical Harmonics?: true
    Max angular momentum: 3

   => Loading Basis Set <=

    Name: (AUG-CC-PVTZ AUX)
    Role: JKFIT
    Keyword: DF_BASIS_SCF
    atoms 1   entry CL         line   816 file /ddmfs1b/softs/psi4conda/share/psi4/basis/aug-cc-pvtz-jkfit.gbs 
    atoms 2-3 entry NA         line   498 file /ddmfs1b/softs/psi4conda/share/psi4/basis/def2-universal-jkfit.gbs 

  ==> Integral Setup <==

  DFHelper Memory: AOs need 0.071 GiB; user supplied 41.910 GiB. 
  Using in-core AOs.

  ==> MemDFJK: Density-Fitted J/K Matrices <==

    J tasked:                   Yes
    K tasked:                   Yes
    wK tasked:                   No
    OpenMP threads:              20
    Memory [MiB]:             42915
    Algorithm:                 Core
    Schwarz Cutoff:           1E-12
    Mask sparsity (%):       0.0000
    Fitting Condition:        1E-10

   => Auxiliary Basis Set <=

  Basis Set: (AUG-CC-PVTZ AUX)
    Blend: AUG-CC-PVTZ-JKFIT + DEF2-UNIVERSAL-JKFIT
    Number of shells: 110
    Number of basis functions: 370
    Number of Cartesian functions: 454
    Spherical Harmonics?: true
    Max angular momentum: 4

  Minimum eigenvalue in the overlap matrix is 4.7802788589E-05.
  Reciprocal condition number of the overlap matrix is 6.3842759419E-06.
    Using symmetric orthogonalization.

  ==> Pre-Iterations <==

  SCF Guess: Superposition of Atomic Densities via on-the-fly atomic UHF (no occupation information).

   -------------------------
    Irrep   Nso     Nmo    
   -------------------------
     A        150     150 
   -------------------------
    Total     150     150
   -------------------------

  ==> Iterations <==

                           Total Energy        Delta E     RMS |[F,P]|

   @DF-RHF iter SAD:  -323.50877011009396   -3.23509e+02   0.00000e+00 
   @DF-RHF iter   1:  -323.20921090733015    2.99559e-01   9.51562e-05 DIIS
   @DF-RHF iter   2:  -323.20931766468516   -1.06757e-04   1.67340e-05 DIIS
   @DF-RHF iter   3:  -323.20932060283042   -2.93815e-06   1.37891e-06 DIIS
   @DF-RHF iter   4:  -323.20932062634569   -2.35153e-08   2.16611e-07 DIIS
   @DF-RHF iter   5:  -323.20932062697528   -6.29598e-10   1.46383e-08 DIIS
   @DF-RHF iter   6:  -323.20932062697767   -2.38742e-12   8.20298e-10 DIIS
  Energy and wave function converged.


  ==> Post-Iterations <==

    Orbital Energies [Eh]
    ---------------------

    Doubly Occupied:                                                      

       1A    -40.906489     2A    -40.906182     3A     -3.218166  
       4A     -3.218043     5A     -1.942117     6A     -1.941856  
       7A     -1.940871     8A     -1.940839     9A     -1.940792  
      10A     -1.940710  

    Virtual:                                                              

      11A     -0.359758    12A     -0.277032    13A     -0.256791  
      14A     -0.256769    15A     -0.225909    16A     -0.196878  
      17A     -0.196870    18A     -0.174534    19A     -0.167706  
      20A     -0.167684    21A     -0.155339    22A     -0.145418  
      23A     -0.145329    24A     -0.128768    25A     -0.128753  
      26A     -0.127707    27A     -0.125259    28A     -0.121499  
      29A     -0.121495    30A     -0.111316    31A     -0.111302  
      32A     -0.100899    33A     -0.092089    34A     -0.087758  
      35A     -0.087679    36A     -0.083750    37A     -0.081397  
      38A     -0.077579    39A     -0.077326    40A     -0.076576  
      41A     -0.075793    42A     -0.075229    43A     -0.066080  
      44A     -0.065943    45A     -0.058392    46A     -0.057763  
      47A     -0.052088    48A     -0.048507    49A     -0.039723  
      50A     -0.034644    51A     -0.029484    52A     -0.025672  
      53A     -0.019572    54A     -0.010730    55A     -0.007224  
      56A      0.003447    57A      0.016624    58A      0.017677  
      59A      0.020786    60A      0.021991    61A      0.035843  
      62A      0.037018    63A      0.044780    64A      0.049313  
      65A      0.054493    66A      0.056834    67A      0.061584  
      68A      0.065088    69A      0.065843    70A      0.076579  
      71A      0.078795    72A      0.084461    73A      0.087972  
      74A      0.110077    75A      0.157553    76A      0.163718  
      77A      0.164976    78A      0.168122    79A      0.179233  
      80A      0.189633    81A      0.218970    82A      0.222187  
      83A      0.234883    84A      0.241718    85A      0.252402  
      86A      0.259075    87A      0.278363    88A      0.293375  
      89A      0.309508    90A      0.310637    91A      0.314924  
      92A      0.325544    93A      0.337712    94A      0.353439  
      95A      0.360768    96A      0.367111    97A      0.377984  
      98A      0.386679    99A      0.404959   100A      0.408703  
     101A      0.419682   102A      0.433772   103A      0.436439  
     104A      0.448641   105A      0.467525   106A      0.472307  
     107A      0.509764   108A      0.511164   109A      0.515636  
     110A      0.580844   111A      0.717501   112A      0.986769  
     113A      1.013727   114A      1.050559   115A      1.054898  
     116A      1.125806   117A      1.129192   118A      1.152623  
     119A      1.228016   120A      1.241297   121A      1.272340  
     122A      1.274365   123A      1.322174   124A      1.328356  
     125A      1.364420   126A      1.400281   127A      1.582276  
     128A      1.837041   129A      2.040528   130A      3.592296  
     131A      3.604255   132A      3.612238   133A      3.615660  
     134A      3.679822   135A      3.686899   136A      3.772616  
     137A      3.780150   138A      3.796125   139A      3.951285  
     140A      4.288617   141A      4.364615   142A      4.382405  
     143A      4.390876   144A      4.415104   145A      4.573929  
     146A     14.745378   147A     27.453862   148A     27.650349  
     149A     27.725955   150A    160.506253  

    Final Occupation by Irrep:
              A 
    DOCC [    10 ]
    NA   [    10 ]
    NB   [    10 ]

  @DF-RHF Final Energy:  -323.20932062697767

   => Energetics <=

    Nuclear Repulsion Energy =             17.2951500352819920
    One-Electron Energy =                -481.2168107559783721
    Two-Electron Energy =                 140.7123400937186943
    Total Energy =                       -323.2093206269776715

Computation Completed


Properties will be evaluated at   0.000000,   0.000000,   0.000000 [a0]

Properties computed using the SCF density matrix


 Multipole Moments:

 ------------------------------------------------------------------------------------
     Multipole            Electronic (a.u.)      Nuclear  (a.u.)        Total (a.u.)
 ------------------------------------------------------------------------------------

 L = 1.  Multiply by 2.5417464519 to convert [e a0] to [Debye]
 Dipole X            :        -53.7463738           59.1207697            5.3743959
 Dipole Y            :        -44.7884643           49.2673012            4.4788369
 Dipole Z            :         -0.0000000            0.0000000           -0.0000000
 Magnitude           :                                                    6.9960068

 ------------------------------------------------------------------------------------

*** tstop() called on ddmfs1 at Mon Jan 22 04:22:30 2024
Module time:
	user time   =      26.43 seconds =       0.44 minutes
	system time =       3.84 seconds =       0.06 minutes
	total time  =          2 seconds =       0.03 minutes
Total time:
	user time   =     110.25 seconds =       1.84 minutes
	system time =      13.36 seconds =       0.22 minutes
	total time  =         21 seconds =       0.35 minutes

*** tstart() called on ddmfs1
*** at Mon Jan 22 04:22:30 2024


  //>>>>>>>>>>>>>>>>>>>>>>>>>>>>>>>>>>>//
  //               DFMP2               //
  //<<<<<<<<<<<<<<<<<<<<<<<<<<<<<<<<<<<//

   => Loading Basis Set <=

    Name: (AUG-CC-PVTZ AUX)
    Role: RIFIT
    Keyword: DF_BASIS_MP2
    atoms 1   entry CL         line   742 file /ddmfs1b/softs/psi4conda/share/psi4/basis/aug-cc-pvtz-ri.gbs 
    atoms 2-3 entry NA         line   610 file /ddmfs1b/softs/psi4conda/share/psi4/basis/def2-qzvpp-ri.gbs 

	 --------------------------------------------------------
	                          DF-MP2                         
	      2nd-Order Density-Fitted Moller-Plesset Theory     
	              RMP2 Wavefunction,  20 Threads             
	                                                         
	        Rob Parrish, Justin Turney, Andy Simmonett,      
	           Ed Hohenstein, and C. David Sherrill          
	 --------------------------------------------------------

   => Auxiliary Basis Set <=

  Basis Set: (AUG-CC-PVTZ AUX)
    Blend: AUG-CC-PVTZ-RI + DEF2-QZVPP-RI
    Number of shells: 121
    Number of basis functions: 479
    Number of Cartesian functions: 619
    Spherical Harmonics?: true
    Max angular momentum: 4

	 --------------------------------------------------------
	                 NBF =   150, NAUX =   479
	 --------------------------------------------------------
	   CLASS    FOCC     OCC    AOCC    AVIR     VIR    FVIR
	   PAIRS       0      10      10     140     140       0
	 --------------------------------------------------------

	-----------------------------------------------------------
	 ==================> DF-MP2 Energies <==================== 
	-----------------------------------------------------------
	 Reference Energy          =    -323.2093206269776715 [Eh]
	 Singles Energy            =      -0.0000000000000000 [Eh]
	 Same-Spin Energy          =      -0.0052275021952144 [Eh]
	 Opposite-Spin Energy      =      -0.0194424716275637 [Eh]
	 Correlation Energy        =      -0.0246699738227781 [Eh]
	 Total Energy              =    -323.2339906008004391 [Eh]
	-----------------------------------------------------------
	 ================> DF-SCS-MP2 Energies <================== 
	-----------------------------------------------------------
	 SCS Same-Spin Scale       =       0.3333333333333333 [-]
	 SCS Opposite-Spin Scale   =       1.2000000000000000 [-]
	 SCS Same-Spin Energy      =      -0.0017425007317381 [Eh]
	 SCS Opposite-Spin Energy  =      -0.0233309659530765 [Eh]
	 SCS Correlation Energy    =      -0.0250734666848146 [Eh]
	 SCS Total Energy          =    -323.2343940936625017 [Eh]
	-----------------------------------------------------------


*** tstop() called on ddmfs1 at Mon Jan 22 04:22:37 2024
Module time:
	user time   =      14.62 seconds =       0.24 minutes
	system time =       0.98 seconds =       0.02 minutes
	total time  =          7 seconds =       0.12 minutes
Total time:
	user time   =     124.88 seconds =       2.08 minutes
	system time =      14.34 seconds =       0.24 minutes
	total time  =         28 seconds =       0.47 minutes

    Psi4 stopped on: Monday, 22 January 2024 04:22AM
    Psi4 wall time for execution: 0:00:09.37


    -----------------------------------------------------------------------
          Psi4: An Open-Source Ab Initio Electronic Structure Package
                               Psi4 1.8.2 release

                         Git: Rev {} zzzzzzz 


    D. G. A. Smith, L. A. Burns, A. C. Simmonett, R. M. Parrish,
    M. C. Schieber, R. Galvelis, P. Kraus, H. Kruse, R. Di Remigio,
    A. Alenaizan, A. M. James, S. Lehtola, J. P. Misiewicz, M. Scheurer,
    R. A. Shaw, J. B. Schriber, Y. Xie, Z. L. Glick, D. A. Sirianni,
    J. S. O'Brien, J. M. Waldrop, A. Kumar, E. G. Hohenstein,
    B. P. Pritchard, B. R. Brooks, H. F. Schaefer III, A. Yu. Sokolov,
    K. Patkowski, A. E. DePrince III, U. Bozkaya, R. A. King,
    F. A. Evangelista, J. M. Turney, T. D. Crawford, C. D. Sherrill,
    J. Chem. Phys. 152(18) 184108 (2020). https://doi.org/10.1063/5.0006002

                            Additional Code Authors
    E. T. Seidl, C. L. Janssen, E. F. Valeev, M. L. Leininger,
    J. F. Gonthier, R. M. Richard, H. R. McAlexander, M. Saitow, X. Wang,
    P. Verma, M. H. Lechner, A. Jiang, S. Behnle, A. G. Heide,
    M. F. Herbst, and D. L. Poole

             Previous Authors, Complete List of Code Contributors,
                       and Citations for Specific Modules
    https://github.com/psi4/psi4/blob/master/codemeta.json
    https://github.com/psi4/psi4/graphs/contributors
    http://psicode.org/psi4manual/master/introduction.html#citing-psifour

    -----------------------------------------------------------------------


    Psi4 started on: Monday, 22 January 2024 04:22AM

    Process ID: 32128
    Host:       ddmfs1
    PSIDATADIR: /ddmfs1b/softs/psi4conda/share/psi4
    Memory:     55.9 GiB
    Threads:    20
    
  ==> Input QCSchema <==

--------------------------------------------------------------------------
{'driver': 'energy',
 'extras': {'psiapi': True, 'wfn_qcvars_only': True},
 'id': None,
 'keywords': {'SCF_TYPE': 'DF', 'function_kwargs': {}},
 'model': {'basis': 'aug-cc-pvtz', 'method': 'mp2'},
 'molecule': {'atom_labels': ['', '', ''],
              'atomic_numbers': [17, 11, 11],
              'extras': {},
              'fix_com': True,
              'fix_orientation': True,
              'fix_symmetry': 'c1',
              'fragment_charges': [-1.0, 0.0, 1.0],
              'fragment_multiplicities': [1, 1, 1],
              'fragments': [[0], [1], [2]],
              'geometry': [0.0, 0.0, 0.0, 0.0, 4.478845559125975, 0.0, 5.37461542684162, 0.0, 0.0],
              'mass_numbers': [35, 23, 23],
              'masses': [34.968852682, 22.989769282, 22.989769282],
              'molecular_charge': 0.0,
              'molecular_multiplicity': 1,
              'name': 'dimer',
              'provenance': {'creator': 'QCElemental',
                             'routine': 'qcelemental.molparse.from_string',
                             'version': '0.26.0'},
              'real': [True, False, True],
              'schema_name': 'qcschema_molecule',
              'schema_version': 2,
              'symbols': ['Cl', 'Na', 'Na'],
              'validated': True},
 'protocols': {'stdout': True},
 'provenance': {'creator': 'QCElemental', 'routine': 'qcelemental.models.results', 'version': '0.26.0'},
 'schema_name': 'qcschema_input',
 'schema_version': 1}
--------------------------------------------------------------------------

Scratch directory: /ddmfs1a/scratch/
   => Libint2 <=

    Primary   basis highest AM E, G, H:  5, 4, 3
    Auxiliary basis highest AM E, G, H:  6, 5, 4
    Onebody   basis highest AM E, G, H:  6, 5, 4
    Solid Harmonics ordering:            gaussian

*** tstart() called on ddmfs1
*** at Mon Jan 22 04:22:37 2024

   => Loading Basis Set <=

    Name: AUG-CC-PVTZ
    Role: ORBITAL
    Keyword: BASIS
    atoms 1   entry CL         line   988 file /ddmfs1b/softs/psi4conda/share/psi4/basis/aug-cc-pvtz.gbs 
    atoms 2-3 entry NA         line   469 file /ddmfs1b/softs/psi4conda/share/psi4/basis/aug-cc-pvtz.gbs 


         ---------------------------------------------------------
                                   SCF
               by Justin Turney, Rob Parrish, Andy Simmonett
                          and Daniel G. A. Smith
                              RHF Reference
                       20 Threads,  57220 MiB Core
         ---------------------------------------------------------

  ==> Geometry <==

    Molecular point group: c1
    Full point group: Cs

    Geometry (in Bohr), charge = 0, multiplicity = 1:

       Center              X                  Y                   Z               Mass       
    ------------   -----------------  -----------------  -----------------  -----------------
         CL           0.000000000000     0.000000000000     0.000000000000    34.968852682000
      Gh(NA)          0.000000000000     4.478845559126     0.000000000000    22.989769282000
         NA           5.374615426842     0.000000000000     0.000000000000    22.989769282000

  Running in c1 symmetry.

  Rotational constants: A =      0.13054  B =      0.09065  C =      0.05350 [cm^-1]
  Rotational constants: A =   3913.34509  B =   2717.59999  C =   1603.82969 [MHz]
  Nuclear repulsion =   34.793187074575513

  Charge       = 0
  Multiplicity = 1
  Electrons    = 28
  Nalpha       = 14
  Nbeta        = 14

  ==> Algorithm <==

  SCF Algorithm Type is DF.
  DIIS enabled.
  MOM disabled.
  Fractional occupation disabled.
  Guess Type is SAD.
  Energy threshold   = 1.00e-08
  Density threshold  = 1.00e-08
  Integral threshold = 1.00e-12

  ==> Primary Basis <==

  Basis Set: AUG-CC-PVTZ
    Blend: AUG-CC-PVTZ
    Number of shells: 48
    Number of basis functions: 150
    Number of Cartesian functions: 177
    Spherical Harmonics?: true
    Max angular momentum: 3

   => Loading Basis Set <=

    Name: (AUG-CC-PVTZ AUX)
    Role: JKFIT
    Keyword: DF_BASIS_SCF
    atoms 1   entry CL         line   816 file /ddmfs1b/softs/psi4conda/share/psi4/basis/aug-cc-pvtz-jkfit.gbs 
    atoms 2-3 entry NA         line   498 file /ddmfs1b/softs/psi4conda/share/psi4/basis/def2-universal-jkfit.gbs 

  ==> Integral Setup <==

  DFHelper Memory: AOs need 0.071 GiB; user supplied 41.910 GiB. 
  Using in-core AOs.

  ==> MemDFJK: Density-Fitted J/K Matrices <==

    J tasked:                   Yes
    K tasked:                   Yes
    wK tasked:                   No
    OpenMP threads:              20
    Memory [MiB]:             42915
    Algorithm:                 Core
    Schwarz Cutoff:           1E-12
    Mask sparsity (%):       0.0000
    Fitting Condition:        1E-10

   => Auxiliary Basis Set <=

  Basis Set: (AUG-CC-PVTZ AUX)
    Blend: AUG-CC-PVTZ-JKFIT + DEF2-UNIVERSAL-JKFIT
    Number of shells: 110
    Number of basis functions: 370
    Number of Cartesian functions: 454
    Spherical Harmonics?: true
    Max angular momentum: 4

  Minimum eigenvalue in the overlap matrix is 4.7802788589E-05.
  Reciprocal condition number of the overlap matrix is 6.3842759419E-06.
    Using symmetric orthogonalization.

  ==> Pre-Iterations <==

  SCF Guess: Superposition of Atomic Densities via on-the-fly atomic UHF (no occupation information).

   -------------------------
    Irrep   Nso     Nmo    
   -------------------------
     A        150     150 
   -------------------------
    Total     150     150
   -------------------------

  ==> Iterations <==

                           Total Energy        Delta E     RMS |[F,P]|

   @DF-RHF iter SAD:  -620.90320266568995   -6.20903e+02   0.00000e+00 
   @DF-RHF iter   1:  -621.38680644888882   -4.83604e-01   1.91002e-03 ADIIS/DIIS
   @DF-RHF iter   2:  -621.43306763295561   -4.62612e-02   9.63606e-04 ADIIS/DIIS
   @DF-RHF iter   3:  -621.44091763309359   -7.85000e-03   7.14239e-05 DIIS
   @DF-RHF iter   4:  -621.44101125627344   -9.36232e-05   1.81669e-05 DIIS
   @DF-RHF iter   5:  -621.44102439801975   -1.31417e-05   5.27618e-06 DIIS
   @DF-RHF iter   6:  -621.44102575243494   -1.35442e-06   1.75012e-06 DIIS
   @DF-RHF iter   7:  -621.44102598044344   -2.28009e-07   3.01800e-07 DIIS
   @DF-RHF iter   8:  -621.44102598669053   -6.24709e-09   4.55252e-08 DIIS
   @DF-RHF iter   9:  -621.44102598681081   -1.20281e-10   8.02232e-09 DIIS
  Energy and wave function converged.


  ==> Post-Iterations <==

    Orbital Energies [Eh]
    ---------------------

    Doubly Occupied:                                                      

       1A   -104.690523     2A    -40.543488     3A    -10.413800  
       4A     -7.879952     5A     -7.879733     6A     -7.879718  
       7A     -2.859046     8A     -1.582637     9A     -1.582582  
      10A     -1.580354    11A     -0.918348    12A     -0.342627  
      13A     -0.331728    14A     -0.331695  

    Virtual:                                                              

      15A     -0.031665    16A      0.005710    17A      0.006861  
      18A      0.006881    19A      0.016188    20A      0.022441  
      21A      0.027393    22A      0.032658    23A      0.035671  
      24A      0.035951    25A      0.039784    26A      0.051877  
      27A      0.057112    28A      0.059209    29A      0.060626  
      30A      0.066603    31A      0.072882    32A      0.078861  
      33A      0.080843    34A      0.085702    35A      0.095272  
      36A      0.098101    37A      0.104683    38A      0.105485  
      39A      0.108447    40A      0.115528    41A      0.118272  
      42A      0.118849    43A      0.137395    44A      0.158212  
      45A      0.174764    46A      0.181935    47A      0.187122  
      48A      0.199635    49A      0.201804    50A      0.213675  
      51A      0.214914    52A      0.219320    53A      0.232998  
      54A      0.242924    55A      0.251549    56A      0.252153  
      57A      0.256886    58A      0.270777    59A      0.283639  
      60A      0.287346    61A      0.292752    62A      0.301340  
      63A      0.301732    64A      0.308951    65A      0.311771  
      66A      0.316267    67A      0.330258    68A      0.338038  
      69A      0.346037    70A      0.347616    71A      0.355199  
      72A      0.362871    73A      0.388735    74A      0.394220  
      75A      0.417713    76A      0.430629    77A      0.435033  
      78A      0.439501    79A      0.466584    80A      0.483150  
      81A      0.508202    82A      0.537443    83A      0.547596  
      84A      0.554250    85A      0.557748    86A      0.559070  
      87A      0.596254    88A      0.597297    89A      0.606216  
      90A      0.623608    91A      0.638757    92A      0.670976  
      93A      0.672211    94A      0.678326    95A      0.698872  
      96A      0.718055    97A      0.744433    98A      0.754719  
      99A      0.766615   100A      0.783133   101A      0.790982  
     102A      0.794460   103A      0.804600   104A      0.834171  
     105A      0.839375   106A      0.851662   107A      0.869715  
     108A      0.914140   109A      0.930599   110A      0.949646  
     111A      0.967731   112A      1.010730   113A      1.074569  
     114A      1.127792   115A      1.164346   116A      1.169492  
     117A      1.198634   118A      1.227698   119A      1.245414  
     120A      1.308616   121A      1.432789   122A      1.461314  
     123A      1.497842   124A      1.522250   125A      1.594054  
     126A      1.657478   127A      1.689820   128A      2.031291  
     129A      2.189916   130A      2.746559   131A      2.750586  
     132A      2.780542   133A      2.814101   134A      2.868252  
     135A      2.958253   136A      3.089209   137A      3.134769  
     138A      3.274663   139A      3.282610   140A      3.319775  
     141A      3.330012   142A      3.406488   143A      3.427125  
     144A      3.514543   145A      4.730710   146A      6.405473  
     147A      6.447085   148A      6.470962   149A      7.445193  
     150A     64.555912  

    Final Occupation by Irrep:
              A 
    DOCC [    14 ]
    NA   [    14 ]
    NB   [    14 ]

  @DF-RHF Final Energy:  -621.44102598681081

   => Energetics <=

    Nuclear Repulsion Energy =             34.7931870745755134
    One-Electron Energy =                -934.8359627747065588
    Two-Electron Energy =                 278.6017497133202596
    Total Energy =                       -621.4410259868108142

Computation Completed


Properties will be evaluated at   0.000000,   0.000000,   0.000000 [a0]

Properties computed using the SCF density matrix


 Multipole Moments:

 ------------------------------------------------------------------------------------
     Multipole            Electronic (a.u.)      Nuclear  (a.u.)        Total (a.u.)
 ------------------------------------------------------------------------------------

 L = 1.  Multiply by 2.5417464519 to convert [e a0] to [Debye]
 Dipole X            :        -54.5800815           59.1207697            4.5406882
 Dipole Y            :          0.0003847            0.0000000            0.0003847
 Dipole Z            :         -0.0000000            0.0000000           -0.0000000
 Magnitude           :                                                    4.5406882

 ------------------------------------------------------------------------------------

*** tstop() called on ddmfs1 at Mon Jan 22 04:22:40 2024
Module time:
	user time   =      31.53 seconds =       0.53 minutes
	system time =       4.61 seconds =       0.08 minutes
	total time  =          3 seconds =       0.05 minutes
Total time:
	user time   =     157.58 seconds =       2.63 minutes
	system time =      18.97 seconds =       0.32 minutes
	total time  =         31 seconds =       0.52 minutes

*** tstart() called on ddmfs1
*** at Mon Jan 22 04:22:40 2024


  //>>>>>>>>>>>>>>>>>>>>>>>>>>>>>>>>>>>//
  //               DFMP2               //
  //<<<<<<<<<<<<<<<<<<<<<<<<<<<<<<<<<<<//

   => Loading Basis Set <=

    Name: (AUG-CC-PVTZ AUX)
    Role: RIFIT
    Keyword: DF_BASIS_MP2
    atoms 1   entry CL         line   742 file /ddmfs1b/softs/psi4conda/share/psi4/basis/aug-cc-pvtz-ri.gbs 
    atoms 2-3 entry NA         line   610 file /ddmfs1b/softs/psi4conda/share/psi4/basis/def2-qzvpp-ri.gbs 

	 --------------------------------------------------------
	                          DF-MP2                         
	      2nd-Order Density-Fitted Moller-Plesset Theory     
	              RMP2 Wavefunction,  20 Threads             
	                                                         
	        Rob Parrish, Justin Turney, Andy Simmonett,      
	           Ed Hohenstein, and C. David Sherrill          
	 --------------------------------------------------------

   => Auxiliary Basis Set <=

  Basis Set: (AUG-CC-PVTZ AUX)
    Blend: AUG-CC-PVTZ-RI + DEF2-QZVPP-RI
    Number of shells: 121
    Number of basis functions: 479
    Number of Cartesian functions: 619
    Spherical Harmonics?: true
    Max angular momentum: 4

	 --------------------------------------------------------
	                 NBF =   150, NAUX =   479
	 --------------------------------------------------------
	   CLASS    FOCC     OCC    AOCC    AVIR     VIR    FVIR
	   PAIRS       0      14      14     136     136       0
	 --------------------------------------------------------

	-----------------------------------------------------------
	 ==================> DF-MP2 Energies <==================== 
	-----------------------------------------------------------
	 Reference Energy          =    -621.4410259868108142 [Eh]
	 Singles Energy            =      -0.0000000000000000 [Eh]
	 Same-Spin Energy          =      -0.0654749338112380 [Eh]
	 Opposite-Spin Energy      =      -0.1904154485605602 [Eh]
	 Correlation Energy        =      -0.2558903823717982 [Eh]
	 Total Energy              =    -621.6969163691826452 [Eh]
	-----------------------------------------------------------
	 ================> DF-SCS-MP2 Energies <================== 
	-----------------------------------------------------------
	 SCS Same-Spin Scale       =       0.3333333333333333 [-]
	 SCS Opposite-Spin Scale   =       1.2000000000000000 [-]
	 SCS Same-Spin Energy      =      -0.0218249779370793 [Eh]
	 SCS Opposite-Spin Energy  =      -0.2284985382726722 [Eh]
	 SCS Correlation Energy    =      -0.2503235162097516 [Eh]
	 SCS Total Energy          =    -621.6913495030205468 [Eh]
	-----------------------------------------------------------


*** tstop() called on ddmfs1 at Mon Jan 22 04:22:47 2024
Module time:
	user time   =      14.70 seconds =       0.25 minutes
	system time =       1.00 seconds =       0.02 minutes
	total time  =          7 seconds =       0.12 minutes
Total time:
	user time   =     172.30 seconds =       2.87 minutes
	system time =      19.98 seconds =       0.33 minutes
	total time  =         38 seconds =       0.63 minutes

    Psi4 stopped on: Monday, 22 January 2024 04:22AM
    Psi4 wall time for execution: 0:00:09.69


    -----------------------------------------------------------------------
          Psi4: An Open-Source Ab Initio Electronic Structure Package
                               Psi4 1.8.2 release

                         Git: Rev {} zzzzzzz 


    D. G. A. Smith, L. A. Burns, A. C. Simmonett, R. M. Parrish,
    M. C. Schieber, R. Galvelis, P. Kraus, H. Kruse, R. Di Remigio,
    A. Alenaizan, A. M. James, S. Lehtola, J. P. Misiewicz, M. Scheurer,
    R. A. Shaw, J. B. Schriber, Y. Xie, Z. L. Glick, D. A. Sirianni,
    J. S. O'Brien, J. M. Waldrop, A. Kumar, E. G. Hohenstein,
    B. P. Pritchard, B. R. Brooks, H. F. Schaefer III, A. Yu. Sokolov,
    K. Patkowski, A. E. DePrince III, U. Bozkaya, R. A. King,
    F. A. Evangelista, J. M. Turney, T. D. Crawford, C. D. Sherrill,
    J. Chem. Phys. 152(18) 184108 (2020). https://doi.org/10.1063/5.0006002

                            Additional Code Authors
    E. T. Seidl, C. L. Janssen, E. F. Valeev, M. L. Leininger,
    J. F. Gonthier, R. M. Richard, H. R. McAlexander, M. Saitow, X. Wang,
    P. Verma, M. H. Lechner, A. Jiang, S. Behnle, A. G. Heide,
    M. F. Herbst, and D. L. Poole

             Previous Authors, Complete List of Code Contributors,
                       and Citations for Specific Modules
    https://github.com/psi4/psi4/blob/master/codemeta.json
    https://github.com/psi4/psi4/graphs/contributors
    http://psicode.org/psi4manual/master/introduction.html#citing-psifour

    -----------------------------------------------------------------------


    Psi4 started on: Monday, 22 January 2024 04:22AM

    Process ID: 32128
    Host:       ddmfs1
    PSIDATADIR: /ddmfs1b/softs/psi4conda/share/psi4
    Memory:     55.9 GiB
    Threads:    20
    
  ==> Input QCSchema <==

--------------------------------------------------------------------------
{'driver': 'energy',
 'extras': {'psiapi': True, 'wfn_qcvars_only': True},
 'id': None,
 'keywords': {'SCF_TYPE': 'DF', 'function_kwargs': {}},
 'model': {'basis': 'aug-cc-pvtz', 'method': 'mp2'},
 'molecule': {'atom_labels': ['', '', ''],
              'atomic_numbers': [17, 11, 11],
              'extras': {},
              'fix_com': True,
              'fix_orientation': True,
              'fix_symmetry': 'c1',
              'fragment_charges': [-1.0, 1.0, 0.0],
              'fragment_multiplicities': [1, 1, 1],
              'fragments': [[0], [1], [2]],
              'geometry': [0.0, 0.0, 0.0, 0.0, 4.478845559125975, 0.0, 5.37461542684162, 0.0, 0.0],
              'mass_numbers': [35, 23, 23],
              'masses': [34.968852682, 22.989769282, 22.989769282],
              'molecular_charge': 0.0,
              'molecular_multiplicity': 1,
              'name': 'dimer',
              'provenance': {'creator': 'QCElemental',
                             'routine': 'qcelemental.molparse.from_string',
                             'version': '0.26.0'},
              'real': [True, True, False],
              'schema_name': 'qcschema_molecule',
              'schema_version': 2,
              'symbols': ['Cl', 'Na', 'Na'],
              'validated': True},
 'protocols': {'stdout': True},
 'provenance': {'creator': 'QCElemental', 'routine': 'qcelemental.models.results', 'version': '0.26.0'},
 'schema_name': 'qcschema_input',
 'schema_version': 1}
--------------------------------------------------------------------------

Scratch directory: /ddmfs1a/scratch/
   => Libint2 <=

    Primary   basis highest AM E, G, H:  5, 4, 3
    Auxiliary basis highest AM E, G, H:  6, 5, 4
    Onebody   basis highest AM E, G, H:  6, 5, 4
    Solid Harmonics ordering:            gaussian

*** tstart() called on ddmfs1
*** at Mon Jan 22 04:22:47 2024

   => Loading Basis Set <=

    Name: AUG-CC-PVTZ
    Role: ORBITAL
    Keyword: BASIS
    atoms 1   entry CL         line   988 file /ddmfs1b/softs/psi4conda/share/psi4/basis/aug-cc-pvtz.gbs 
    atoms 2-3 entry NA         line   469 file /ddmfs1b/softs/psi4conda/share/psi4/basis/aug-cc-pvtz.gbs 


         ---------------------------------------------------------
                                   SCF
               by Justin Turney, Rob Parrish, Andy Simmonett
                          and Daniel G. A. Smith
                              RHF Reference
                       20 Threads,  57220 MiB Core
         ---------------------------------------------------------

  ==> Geometry <==

    Molecular point group: c1
    Full point group: Cs

    Geometry (in Bohr), charge = 0, multiplicity = 1:

       Center              X                  Y                   Z               Mass       
    ------------   -----------------  -----------------  -----------------  -----------------
         CL           0.000000000000     0.000000000000     0.000000000000    34.968852682000
         NA           0.000000000000     4.478845559126     0.000000000000    22.989769282000
      Gh(NA)          5.374615426842     0.000000000000     0.000000000000    22.989769282000

  Running in c1 symmetry.

  Rotational constants: A =      0.13054  B =      0.09065  C =      0.05350 [cm^-1]
  Rotational constants: A =   3913.34509  B =   2717.59999  C =   1603.82969 [MHz]
  Nuclear repulsion =   41.751830361503281

  Charge       = 0
  Multiplicity = 1
  Electrons    = 28
  Nalpha       = 14
  Nbeta        = 14

  ==> Algorithm <==

  SCF Algorithm Type is DF.
  DIIS enabled.
  MOM disabled.
  Fractional occupation disabled.
  Guess Type is SAD.
  Energy threshold   = 1.00e-08
  Density threshold  = 1.00e-08
  Integral threshold = 1.00e-12

  ==> Primary Basis <==

  Basis Set: AUG-CC-PVTZ
    Blend: AUG-CC-PVTZ
    Number of shells: 48
    Number of basis functions: 150
    Number of Cartesian functions: 177
    Spherical Harmonics?: true
    Max angular momentum: 3

   => Loading Basis Set <=

    Name: (AUG-CC-PVTZ AUX)
    Role: JKFIT
    Keyword: DF_BASIS_SCF
    atoms 1   entry CL         line   816 file /ddmfs1b/softs/psi4conda/share/psi4/basis/aug-cc-pvtz-jkfit.gbs 
    atoms 2-3 entry NA         line   498 file /ddmfs1b/softs/psi4conda/share/psi4/basis/def2-universal-jkfit.gbs 

  ==> Integral Setup <==

  DFHelper Memory: AOs need 0.071 GiB; user supplied 41.910 GiB. 
  Using in-core AOs.

  ==> MemDFJK: Density-Fitted J/K Matrices <==

    J tasked:                   Yes
    K tasked:                   Yes
    wK tasked:                   No
    OpenMP threads:              20
    Memory [MiB]:             42915
    Algorithm:                 Core
    Schwarz Cutoff:           1E-12
    Mask sparsity (%):       0.0000
    Fitting Condition:        1E-10

   => Auxiliary Basis Set <=

  Basis Set: (AUG-CC-PVTZ AUX)
    Blend: AUG-CC-PVTZ-JKFIT + DEF2-UNIVERSAL-JKFIT
    Number of shells: 110
    Number of basis functions: 370
    Number of Cartesian functions: 454
    Spherical Harmonics?: true
    Max angular momentum: 4

  Minimum eigenvalue in the overlap matrix is 4.7802788589E-05.
  Reciprocal condition number of the overlap matrix is 6.3842759419E-06.
    Using symmetric orthogonalization.

  ==> Pre-Iterations <==

  SCF Guess: Superposition of Atomic Densities via on-the-fly atomic UHF (no occupation information).

   -------------------------
    Irrep   Nso     Nmo    
   -------------------------
     A        150     150 
   -------------------------
    Total     150     150
   -------------------------

  ==> Iterations <==

                           Total Energy        Delta E     RMS |[F,P]|

   @DF-RHF iter SAD:  -620.93809803649640   -6.20938e+02   0.00000e+00 
   @DF-RHF iter   1:  -621.40309695238579   -4.64999e-01   1.93331e-03 ADIIS/DIIS
   @DF-RHF iter   2:  -621.44814784361529   -4.50509e-02   9.08198e-04 ADIIS/DIIS
   @DF-RHF iter   3:  -621.45483029014144   -6.68245e-03   5.97193e-05 DIIS
   @DF-RHF iter   4:  -621.45488478953553   -5.44994e-05   1.29411e-05 DIIS
   @DF-RHF iter   5:  -621.45488995831363   -5.16878e-06   3.35676e-06 DIIS
   @DF-RHF iter   6:  -621.45489034270702   -3.84393e-07   9.85989e-07 DIIS
   @DF-RHF iter   7:  -621.45489040722998   -6.45230e-08   1.80528e-07 DIIS
   @DF-RHF iter   8:  -621.45489040935445   -2.12447e-09   2.97995e-08 DIIS
   @DF-RHF iter   9:  -621.45489040940504   -5.05906e-11   5.73409e-09 DIIS
  Energy and wave function converged.


  ==> Post-Iterations <==

    Orbital Energies [Eh]
    ---------------------

    Doubly Occupied:                                                      

       1A   -104.703523     2A    -40.499904     3A    -10.428611  
       4A     -7.894822     5A     -7.894524     6A     -7.894506  
       7A     -2.821705     8A     -1.544633     9A     -1.544581  
      10A     -1.544202    11A     -0.941566    12A     -0.369236  
      13A     -0.352938    14A     -0.352908  

    Virtual:                                                              

      15A     -0.020518    16A      0.008700    17A      0.010881  
      18A      0.011433    19A      0.016368    20A      0.024219  
      21A      0.025864    22A      0.030521    23A      0.036506  
      24A      0.040633    25A      0.043533    26A      0.052241  
      27A      0.059168    28A      0.063755    29A      0.064706  
      30A      0.071524    31A      0.073675    32A      0.076369  
      33A      0.082279    34A      0.088622    35A      0.092684  
      36A      0.093943    37A      0.102069    38A      0.108435  
      39A      0.109514    40A      0.111180    41A      0.120970  
      42A      0.121550    43A      0.137816    44A      0.167121  
      45A      0.169273    46A      0.183741    47A      0.185827  
      48A      0.209704    49A      0.209992    50A      0.211309  
      51A      0.213797    52A      0.227232    53A      0.230648  
      54A      0.240622    55A      0.249306    56A      0.257035  
      57A      0.266525    58A      0.269623    59A      0.279637  
      60A      0.282446    61A      0.293562    62A      0.302903  
      63A      0.305626    64A      0.307919    65A      0.313892  
      66A      0.325199    67A      0.330490    68A      0.338982  
      69A      0.340550    70A      0.347299    71A      0.359243  
      72A      0.372277    73A      0.373508    74A      0.384108  
      75A      0.418263    76A      0.428015    77A      0.429288  
      78A      0.445406    79A      0.463254    80A      0.492899  
[...]
    Number of Cartesian functions: 619
    Spherical Harmonics?: true
    Max angular momentum: 4

	 --------------------------------------------------------
	                 NBF =   150, NAUX =   479
	 --------------------------------------------------------
	   CLASS    FOCC     OCC    AOCC    AVIR     VIR    FVIR
	   PAIRS       0       5       5     145     145       0
	 --------------------------------------------------------

	-----------------------------------------------------------
	 ==================> DF-MP2 Energies <==================== 
	-----------------------------------------------------------
	 Reference Energy          =    -161.6760374058987964 [Eh]
	 Singles Energy            =      -0.0000000000000000 [Eh]
	 Same-Spin Energy          =      -0.0024190481451447 [Eh]
	 Opposite-Spin Energy      =      -0.0092252289042394 [Eh]
	 Correlation Energy        =      -0.0116442770493841 [Eh]
	 Total Energy              =    -161.6876816829481811 [Eh]
	-----------------------------------------------------------
	 ================> DF-SCS-MP2 Energies <================== 
	-----------------------------------------------------------
	 SCS Same-Spin Scale       =       0.3333333333333333 [-]
	 SCS Opposite-Spin Scale   =       1.2000000000000000 [-]
	 SCS Same-Spin Energy      =      -0.0008063493817149 [Eh]
	 SCS Opposite-Spin Energy  =      -0.0110702746850872 [Eh]
	 SCS Correlation Energy    =      -0.0118766240668021 [Eh]
	 SCS Total Energy          =    -161.6879140299656115 [Eh]
	-----------------------------------------------------------


*** tstop() called on ddmfs1 at Mon Jan 22 04:23:06 2024
Module time:
	user time   =      14.48 seconds =       0.24 minutes
	system time =       0.92 seconds =       0.02 minutes
	total time  =          7 seconds =       0.12 minutes
Total time:
	user time   =     260.77 seconds =       4.35 minutes
	system time =      30.66 seconds =       0.51 minutes
	total time  =         57 seconds =       0.95 minutes

    Psi4 stopped on: Monday, 22 January 2024 04:23AM
    Psi4 wall time for execution: 0:00:09.34


    -----------------------------------------------------------------------
          Psi4: An Open-Source Ab Initio Electronic Structure Package
                               Psi4 1.8.2 release

                         Git: Rev {} zzzzzzz 


    D. G. A. Smith, L. A. Burns, A. C. Simmonett, R. M. Parrish,
    M. C. Schieber, R. Galvelis, P. Kraus, H. Kruse, R. Di Remigio,
    A. Alenaizan, A. M. James, S. Lehtola, J. P. Misiewicz, M. Scheurer,
    R. A. Shaw, J. B. Schriber, Y. Xie, Z. L. Glick, D. A. Sirianni,
    J. S. O'Brien, J. M. Waldrop, A. Kumar, E. G. Hohenstein,
    B. P. Pritchard, B. R. Brooks, H. F. Schaefer III, A. Yu. Sokolov,
    K. Patkowski, A. E. DePrince III, U. Bozkaya, R. A. King,
    F. A. Evangelista, J. M. Turney, T. D. Crawford, C. D. Sherrill,
    J. Chem. Phys. 152(18) 184108 (2020). https://doi.org/10.1063/5.0006002

                            Additional Code Authors
    E. T. Seidl, C. L. Janssen, E. F. Valeev, M. L. Leininger,
    J. F. Gonthier, R. M. Richard, H. R. McAlexander, M. Saitow, X. Wang,
    P. Verma, M. H. Lechner, A. Jiang, S. Behnle, A. G. Heide,
    M. F. Herbst, and D. L. Poole

             Previous Authors, Complete List of Code Contributors,
                       and Citations for Specific Modules
    https://github.com/psi4/psi4/blob/master/codemeta.json
    https://github.com/psi4/psi4/graphs/contributors
    http://psicode.org/psi4manual/master/introduction.html#citing-psifour

    -----------------------------------------------------------------------


    Psi4 started on: Monday, 22 January 2024 04:22AM

    Process ID: 32128
    Host:       ddmfs1
    PSIDATADIR: /ddmfs1b/softs/psi4conda/share/psi4
    Memory:     55.9 GiB
    Threads:    20
    
  ==> Input QCSchema <==

--------------------------------------------------------------------------
{'driver': 'energy',
 'extras': {'psiapi': True, 'wfn_qcvars_only': True},
 'id': None,
 'keywords': {'SCF_TYPE': 'DF', 'function_kwargs': {}},
 'model': {'basis': 'aug-cc-pvtz', 'method': 'mp2'},
 'molecule': {'atom_labels': ['', '', ''],
              'atomic_numbers': [17, 11, 11],
              'extras': {},
              'fix_com': True,
              'fix_orientation': True,
              'fix_symmetry': 'c1',
              'fragment_charges': [-1.0, 1.0, 1.0],
              'fragment_multiplicities': [1, 1, 1],
              'fragments': [[0], [1], [2]],
              'geometry': [0.0, 0.0, 0.0, 0.0, 4.478845559125975, 0.0, 5.37461542684162, 0.0, 0.0],
              'mass_numbers': [35, 23, 23],
              'masses': [34.968852682, 22.989769282, 22.989769282],
              'molecular_charge': 1.0,
              'molecular_multiplicity': 1,
              'name': 'dimer',
              'provenance': {'creator': 'QCElemental',
                             'routine': 'qcelemental.molparse.from_string',
                             'version': '0.26.0'},
              'real': [True, True, True],
              'schema_name': 'qcschema_molecule',
              'schema_version': 2,
              'symbols': ['Cl', 'Na', 'Na'],
              'validated': True},
 'protocols': {'stdout': True},
 'provenance': {'creator': 'QCElemental', 'routine': 'qcelemental.models.results', 'version': '0.26.0'},
 'schema_name': 'qcschema_input',
 'schema_version': 1}
--------------------------------------------------------------------------

Scratch directory: /ddmfs1a/scratch/
   => Libint2 <=

    Primary   basis highest AM E, G, H:  5, 4, 3
    Auxiliary basis highest AM E, G, H:  6, 5, 4
    Onebody   basis highest AM E, G, H:  6, 5, 4
    Solid Harmonics ordering:            gaussian

*** tstart() called on ddmfs1
*** at Mon Jan 22 04:23:06 2024

   => Loading Basis Set <=

    Name: AUG-CC-PVTZ
    Role: ORBITAL
    Keyword: BASIS
    atoms 1   entry CL         line   988 file /ddmfs1b/softs/psi4conda/share/psi4/basis/aug-cc-pvtz.gbs 
    atoms 2-3 entry NA         line   469 file /ddmfs1b/softs/psi4conda/share/psi4/basis/aug-cc-pvtz.gbs 


         ---------------------------------------------------------
                                   SCF
               by Justin Turney, Rob Parrish, Andy Simmonett
                          and Daniel G. A. Smith
                              RHF Reference
                       20 Threads,  57220 MiB Core
         ---------------------------------------------------------

  ==> Geometry <==

    Molecular point group: c1
    Full point group: Cs

    Geometry (in Bohr), charge = 1, multiplicity = 1:

       Center              X                  Y                   Z               Mass       
    ------------   -----------------  -----------------  -----------------  -----------------
         CL           0.000000000000     0.000000000000     0.000000000000    34.968852682000
         NA           0.000000000000     4.478845559126     0.000000000000    22.989769282000
         NA           5.374615426842     0.000000000000     0.000000000000    22.989769282000

  Running in c1 symmetry.

  Rotational constants: A =      0.13054  B =      0.09065  C =      0.05350 [cm^-1]
  Rotational constants: A =   3913.34509  B =   2717.59999  C =   1603.82969 [MHz]
  Nuclear repulsion =   93.840167471360786

  Charge       = 1
  Multiplicity = 1
  Electrons    = 38
  Nalpha       = 19
  Nbeta        = 19

  ==> Algorithm <==

  SCF Algorithm Type is DF.
  DIIS enabled.
  MOM disabled.
  Fractional occupation disabled.
  Guess Type is SAD.
  Energy threshold   = 1.00e-08
  Density threshold  = 1.00e-08
  Integral threshold = 1.00e-12

  ==> Primary Basis <==

  Basis Set: AUG-CC-PVTZ
    Blend: AUG-CC-PVTZ
    Number of shells: 48
    Number of basis functions: 150
    Number of Cartesian functions: 177
    Spherical Harmonics?: true
    Max angular momentum: 3

   => Loading Basis Set <=

    Name: (AUG-CC-PVTZ AUX)
    Role: JKFIT
    Keyword: DF_BASIS_SCF
    atoms 1   entry CL         line   816 file /ddmfs1b/softs/psi4conda/share/psi4/basis/aug-cc-pvtz-jkfit.gbs 
    atoms 2-3 entry NA         line   498 file /ddmfs1b/softs/psi4conda/share/psi4/basis/def2-universal-jkfit.gbs 

  ==> Integral Setup <==

  DFHelper Memory: AOs need 0.071 GiB; user supplied 41.910 GiB. 
  Using in-core AOs.

  ==> MemDFJK: Density-Fitted J/K Matrices <==

    J tasked:                   Yes
    K tasked:                   Yes
    wK tasked:                   No
    OpenMP threads:              20
    Memory [MiB]:             42915
    Algorithm:                 Core
    Schwarz Cutoff:           1E-12
    Mask sparsity (%):       0.0000
    Fitting Condition:        1E-10

   => Auxiliary Basis Set <=

  Basis Set: (AUG-CC-PVTZ AUX)
    Blend: AUG-CC-PVTZ-JKFIT + DEF2-UNIVERSAL-JKFIT
    Number of shells: 110
    Number of basis functions: 370
    Number of Cartesian functions: 454
    Spherical Harmonics?: true
    Max angular momentum: 4

  Minimum eigenvalue in the overlap matrix is 4.7802788589E-05.
  Reciprocal condition number of the overlap matrix is 6.3842759419E-06.
    Using symmetric orthogonalization.

  ==> Pre-Iterations <==

  SCF Guess: Superposition of Atomic Densities via on-the-fly atomic UHF (no occupation information).

   -------------------------
    Irrep   Nso     Nmo    
   -------------------------
     A        150     150 
   -------------------------
    Total     150     150
   -------------------------

  ==> Iterations <==

                           Total Energy        Delta E     RMS |[F,P]|

   @DF-RHF iter SAD:  -782.74643573713388   -7.82746e+02   0.00000e+00 
   @DF-RHF iter   1:  -783.13081867876531   -3.84383e-01   1.85230e-03 ADIIS/DIIS
   @DF-RHF iter   2:  -783.17175380509502   -4.09351e-02   8.58081e-04 ADIIS/DIIS
   @DF-RHF iter   3:  -783.17776887396803   -6.01507e-03   6.29820e-05 DIIS
   @DF-RHF iter   4:  -783.17785070512866   -8.18312e-05   1.63559e-05 DIIS
   @DF-RHF iter   5:  -783.17786119743141   -1.04923e-05   4.85773e-06 DIIS
   @DF-RHF iter   6:  -783.17786210630982   -9.08878e-07   1.41167e-06 DIIS
   @DF-RHF iter   7:  -783.17786223030282   -1.23993e-07   2.46185e-07 DIIS
   @DF-RHF iter   8:  -783.17786223369501   -3.39219e-09   4.31498e-08 DIIS
   @DF-RHF iter   9:  -783.17786223378812   -9.31095e-11   7.36875e-09 DIIS
  Energy and wave function converged.


  ==> Post-Iterations <==

    Orbital Energies [Eh]
    ---------------------

    Doubly Occupied:                                                      

       1A   -104.887288     2A    -40.691683     3A    -40.647068  
       4A    -10.612365     5A     -8.078487     6A     -8.078339  
       7A     -8.078154     8A     -3.006587     9A     -2.968384  
      10A     -1.730480    11A     -1.729960    12A     -1.728483  
      13A     -1.691882    14A     -1.691347    15A     -1.691115  
      16A     -1.126075    17A     -0.550296    18A     -0.544942  
      19A     -0.533823  

    Virtual:                                                              

      20A     -0.152245    21A     -0.119250    22A     -0.091696  
      23A     -0.086211    24A     -0.068808    25A     -0.064652  
      26A     -0.058548    27A     -0.056397    28A     -0.050918  
      29A     -0.042898    30A     -0.039156    31A     -0.033319  
      32A     -0.033111    33A     -0.031377    34A     -0.028348  
      35A     -0.027815    36A     -0.021999    37A     -0.019372  
      38A     -0.014432    39A     -0.012049    40A     -0.010713  
      41A     -0.008760    42A     -0.001308    43A      0.002009  
      44A      0.009917    45A      0.010868    46A      0.017230  
      47A      0.018393    48A      0.022769    49A      0.027898  
      50A      0.036382    51A      0.051126    52A      0.063648  
      53A      0.076134    54A      0.076801    55A      0.086473  
      56A      0.086997    57A      0.090559    58A      0.092422  
      59A      0.106061    60A      0.109325    61A      0.117257  
      62A      0.126574    63A      0.127286    64A      0.133790  
      65A      0.137823    66A      0.147238    67A      0.157892  
      68A      0.158659    69A      0.170561    70A      0.182247  
      71A      0.183630    72A      0.186716    73A      0.192419  
      74A      0.198130    75A      0.202237    76A      0.206094  
      77A      0.214440    78A      0.218210    79A      0.227459  
      80A      0.232870    81A      0.259901    82A      0.273604  
      83A      0.278939    84A      0.304957    85A      0.310665  
      86A      0.327976    87A      0.366865    88A      0.368122  
      89A      0.376525    90A      0.400691    91A      0.406061  
      92A      0.417620    93A      0.440221    94A      0.449203  
      95A      0.450163    96A      0.469042    97A      0.471584  
      98A      0.480265    99A      0.490834   100A      0.495505  
     101A      0.506021   102A      0.531074   103A      0.533205  
     104A      0.546116   105A      0.547932   106A      0.574820  
     107A      0.582896   108A      0.600303   109A      0.600965  
     110A      0.627294   111A      0.641357   112A      0.651293  
     113A      0.675131   114A      0.696574   115A      0.721561  
     116A      0.746797   117A      0.769919   118A      0.877350  
     119A      0.966863   120A      0.980509   121A      0.991718  
     122A      1.016073   123A      1.027917   124A      1.081900  
     125A      1.205363   126A      1.226729   127A      1.306847  
     128A      1.309750   129A      1.390374   130A      1.432144  
     131A      1.483249   132A      1.645194   133A      1.983575  
     134A      2.194875   135A      2.549376   136A      2.554285  
     137A      2.581310   138A      2.611452   139A      2.665864  
     140A      2.756739   141A      2.891170   142A      2.937615  
     143A      3.071246   144A      3.106530   145A      3.123017  
     146A      3.139559   147A      3.210838   148A      3.215270  
     149A      3.331539   150A      6.461795  

    Final Occupation by Irrep:
              A 
    DOCC [    19 ]
    NA   [    19 ]
    NB   [    19 ]

  @DF-RHF Final Energy:  -783.17786223378812

   => Energetics <=

    Nuclear Repulsion Energy =             93.8401674713607861
    One-Electron Energy =               -1273.9025440374307436
    Two-Electron Energy =                 396.8845143322819808
    Total Energy =                       -783.1778622337881188

Computation Completed


Properties will be evaluated at   0.000000,   0.000000,   0.000000 [a0]

Properties computed using the SCF density matrix


 Multipole Moments:

 ------------------------------------------------------------------------------------
     Multipole            Electronic (a.u.)      Nuclear  (a.u.)        Total (a.u.)
 ------------------------------------------------------------------------------------

 L = 1.  Multiply by 2.5417464519 to convert [e a0] to [Debye]
 Dipole X            :        -54.4745321           59.1207697            4.6462376
 Dipole Y            :        -45.5352814           49.2673012            3.7320198
 Dipole Z            :         -0.0000000            0.0000000           -0.0000000
 Magnitude           :                                                    5.9594879

 ------------------------------------------------------------------------------------

*** tstop() called on ddmfs1 at Mon Jan 22 04:23:09 2024
Module time:
	user time   =      31.40 seconds =       0.52 minutes
	system time =       4.74 seconds =       0.08 minutes
	total time  =          3 seconds =       0.05 minutes
Total time:
	user time   =     293.30 seconds =       4.89 minutes
	system time =      35.46 seconds =       0.59 minutes
	total time  =         60 seconds =       1.00 minutes

*** tstart() called on ddmfs1
*** at Mon Jan 22 04:23:09 2024


  //>>>>>>>>>>>>>>>>>>>>>>>>>>>>>>>>>>>//
  //               DFMP2               //
  //<<<<<<<<<<<<<<<<<<<<<<<<<<<<<<<<<<<//

   => Loading Basis Set <=

    Name: (AUG-CC-PVTZ AUX)
    Role: RIFIT
    Keyword: DF_BASIS_MP2
    atoms 1   entry CL         line   742 file /ddmfs1b/softs/psi4conda/share/psi4/basis/aug-cc-pvtz-ri.gbs 
    atoms 2-3 entry NA         line   610 file /ddmfs1b/softs/psi4conda/share/psi4/basis/def2-qzvpp-ri.gbs 

	 --------------------------------------------------------
	                          DF-MP2                         
	      2nd-Order Density-Fitted Moller-Plesset Theory     
	              RMP2 Wavefunction,  20 Threads             
	                                                         
	        Rob Parrish, Justin Turney, Andy Simmonett,      
	           Ed Hohenstein, and C. David Sherrill          
	 --------------------------------------------------------

   => Auxiliary Basis Set <=

  Basis Set: (AUG-CC-PVTZ AUX)
    Blend: AUG-CC-PVTZ-RI + DEF2-QZVPP-RI
    Number of shells: 121
    Number of basis functions: 479
    Number of Cartesian functions: 619
    Spherical Harmonics?: true
    Max angular momentum: 4

	 --------------------------------------------------------
	                 NBF =   150, NAUX =   479
	 --------------------------------------------------------
	   CLASS    FOCC     OCC    AOCC    AVIR     VIR    FVIR
	   PAIRS       0      19      19     131     131       0
	 --------------------------------------------------------

	-----------------------------------------------------------
	 ==================> DF-MP2 Energies <==================== 
	-----------------------------------------------------------
	 Reference Energy          =    -783.1778622337881188 [Eh]
	 Singles Energy            =      -0.0000000000000000 [Eh]
	 Same-Spin Energy          =      -0.0683025483142425 [Eh]
	 Opposite-Spin Energy      =      -0.1999812584218112 [Eh]
	 Correlation Energy        =      -0.2682838067360537 [Eh]
	 Total Energy              =    -783.4461460405241269 [Eh]
	-----------------------------------------------------------
	 ================> DF-SCS-MP2 Energies <================== 
	-----------------------------------------------------------
	 SCS Same-Spin Scale       =       0.3333333333333333 [-]
	 SCS Opposite-Spin Scale   =       1.2000000000000000 [-]
	 SCS Same-Spin Energy      =      -0.0227675161047475 [Eh]
	 SCS Opposite-Spin Energy  =      -0.2399775101061735 [Eh]
	 SCS Correlation Energy    =      -0.2627450262109210 [Eh]
	 SCS Total Energy          =    -783.4406072599990694 [Eh]
	-----------------------------------------------------------


*** tstop() called on ddmfs1 at Mon Jan 22 04:23:15 2024
Module time:
	user time   =      14.82 seconds =       0.25 minutes
	system time =       0.92 seconds =       0.02 minutes
	total time  =          6 seconds =       0.10 minutes
Total time:
	user time   =     308.14 seconds =       5.14 minutes
	system time =      36.38 seconds =       0.61 minutes
	total time  =         66 seconds =       1.10 minutes

    Psi4 stopped on: Monday, 22 January 2024 04:23AM
    Psi4 wall time for execution: 0:00:09.64


  //>>>>>>>>>>>>>>>>>>>>>>>>>>>>>>>>>>>//
  //          ManyBody Results         //
  //<<<<<<<<<<<<<<<<<<<<<<<<<<<<<<<<<<<//


   ==> N-Body: Counterpoise Corrected (CP) energies <==

        n-Body     Total Energy            Interaction Energy                          N-body Contribution to Interaction Energy
                   [Eh]                    [Eh]                  [kcal/mol]            [Eh]                  [kcal/mol]
             1  N/A                         0.000000000000        0.000000000000        0.000000000000        0.000000000000
             2  N/A                        -0.254290410102     -159.569641430022       -0.254290410102     -159.569641430022
  FULL/RTN   3  N/A                        -0.252261133451     -158.296251106674        0.002029276651        1.273390323347


    Psi4 stopped on: Monday, 22 January 2024 04:23AM
    Psi4 wall time for execution: 0:01:09.41

*** Psi4 exiting successfully. Buy a developer a beer!
