
    -----------------------------------------------------------------------
          Psi4: An Open-Source Ab Initio Electronic Structure Package
                               Psi4 1.8.2 release

                         Git: Rev {} zzzzzzz 


    D. G. A. Smith, L. A. Burns, A. C. Simmonett, R. M. Parrish,
    M. C. Schieber, R. Galvelis, P. Kraus, H. Kruse, R. Di Remigio,
    A. Alenaizan, A. M. James, S. Lehtola, J. P. Misiewicz, M. Scheurer,
    R. A. Shaw, J. B. Schriber, Y. Xie, Z. L. Glick, D. A. Sirianni,
    J. S. O'Brien, J. M. Waldrop, A. Kumar, E. G. Hohenstein,
    B. P. Pritchard, B. R. Brooks, H. F. Schaefer III, A. Yu. Sokolov,
    K. Patkowski, A. E. DePrince III, U. Bozkaya, R. A. King,
    F. A. Evangelista, J. M. Turney, T. D. Crawford, C. D. Sherrill,
    J. Chem. Phys. 152(18) 184108 (2020). https://doi.org/10.1063/5.0006002

                            Additional Code Authors
    E. T. Seidl, C. L. Janssen, E. F. Valeev, M. L. Leininger,
    J. F. Gonthier, R. M. Richard, H. R. McAlexander, M. Saitow, X. Wang,
    P. Verma, M. H. Lechner, A. Jiang, S. Behnle, A. G. Heide,
    M. F. Herbst, and D. L. Poole

             Previous Authors, Complete List of Code Contributors,
                       and Citations for Specific Modules
    https://github.com/psi4/psi4/blob/master/codemeta.json
    https://github.com/psi4/psi4/graphs/contributors
    http://psicode.org/psi4manual/master/introduction.html#citing-psifour

    -----------------------------------------------------------------------


    Psi4 started on: Monday, 22 January 2024 04:19AM

    Process ID: 32045
    Host:       ddmfs1
    PSIDATADIR: /ddmfs1b/softs/psi4conda/share/psi4
    Memory:     500.0 MiB
    Threads:    20
    
  ==> Input File <==

--------------------------------------------------------------------------
MEMORY 60 GB

molecule dimer {
-1 1
Cl     0.000000     0.000000     0.000000
--
1 1
Na     0.000000     2.370103     0.000000
--
1 1
Na     2.370103     0.000000     0.000000

units ang
no_reorient
no_com
symmetry c1
}

set {
basis        aug-cc-pVTZ
scf_type     df
}

energy("mp2", bsse_type="cp")
--------------------------------------------------------------------------

  Memory set to  55.879 GiB by Python driver.

Scratch directory: /ddmfs1a/scratch/

  //>>>>>>>>>>>>>>>>>>>>>>>>>>>>>>>>>>>>>>>>//
  // ManyBody Setup: N-Body Levels [1, 2, 3]//
  //<<<<<<<<<<<<<<<<<<<<<<<<<<<<<<<<<<<<<<<<//

        Number of 1-body computations:     3
        Number of 2-body computations:     3
        Number of 3-body computations:     1

    -----------------------------------------------------------------------
          Psi4: An Open-Source Ab Initio Electronic Structure Package
                               Psi4 1.8.2 release

                         Git: Rev {} zzzzzzz 


    D. G. A. Smith, L. A. Burns, A. C. Simmonett, R. M. Parrish,
    M. C. Schieber, R. Galvelis, P. Kraus, H. Kruse, R. Di Remigio,
    A. Alenaizan, A. M. James, S. Lehtola, J. P. Misiewicz, M. Scheurer,
    R. A. Shaw, J. B. Schriber, Y. Xie, Z. L. Glick, D. A. Sirianni,
    J. S. O'Brien, J. M. Waldrop, A. Kumar, E. G. Hohenstein,
    B. P. Pritchard, B. R. Brooks, H. F. Schaefer III, A. Yu. Sokolov,
    K. Patkowski, A. E. DePrince III, U. Bozkaya, R. A. King,
    F. A. Evangelista, J. M. Turney, T. D. Crawford, C. D. Sherrill,
    J. Chem. Phys. 152(18) 184108 (2020). https://doi.org/10.1063/5.0006002

                            Additional Code Authors
    E. T. Seidl, C. L. Janssen, E. F. Valeev, M. L. Leininger,
    J. F. Gonthier, R. M. Richard, H. R. McAlexander, M. Saitow, X. Wang,
    P. Verma, M. H. Lechner, A. Jiang, S. Behnle, A. G. Heide,
    M. F. Herbst, and D. L. Poole

             Previous Authors, Complete List of Code Contributors,
                       and Citations for Specific Modules
    https://github.com/psi4/psi4/blob/master/codemeta.json
    https://github.com/psi4/psi4/graphs/contributors
    http://psicode.org/psi4manual/master/introduction.html#citing-psifour

    -----------------------------------------------------------------------


    Psi4 started on: Monday, 22 January 2024 04:19AM

    Process ID: 32045
    Host:       ddmfs1
    PSIDATADIR: /ddmfs1b/softs/psi4conda/share/psi4
    Memory:     55.9 GiB
    Threads:    20
    
  ==> Input QCSchema <==

--------------------------------------------------------------------------
{'driver': 'energy',
 'extras': {'psiapi': True, 'wfn_qcvars_only': True},
 'id': None,
 'keywords': {'SCF_TYPE': 'DF', 'function_kwargs': {}},
 'model': {'basis': 'aug-cc-pvtz', 'method': 'mp2'},
 'molecule': {'atom_labels': ['', '', ''],
              'atomic_numbers': [17, 11, 11],
              'extras': {},
              'fix_com': True,
              'fix_orientation': True,
              'fix_symmetry': 'c1',
              'fragment_charges': [-1.0, 0.0, 0.0],
              'fragment_multiplicities': [1, 1, 1],
              'fragments': [[0], [1], [2]],
              'geometry': [0.0, 0.0, 0.0, 0.0, 4.478845559125975, 0.0, 4.478845559125975, 0.0, 0.0],
              'mass_numbers': [35, 23, 23],
              'masses': [34.968852682, 22.989769282, 22.989769282],
              'molecular_charge': -1.0,
              'molecular_multiplicity': 1,
              'name': 'dimer',
              'provenance': {'creator': 'QCElemental',
                             'routine': 'qcelemental.molparse.from_string',
                             'version': '0.26.0'},
              'real': [True, False, False],
              'schema_name': 'qcschema_molecule',
              'schema_version': 2,
              'symbols': ['Cl', 'Na', 'Na'],
              'validated': True},
 'protocols': {'stdout': True},
 'provenance': {'creator': 'QCElemental', 'routine': 'qcelemental.models.results', 'version': '0.26.0'},
 'schema_name': 'qcschema_input',
 'schema_version': 1}
--------------------------------------------------------------------------

Scratch directory: /ddmfs1a/scratch/
   => Libint2 <=

    Primary   basis highest AM E, G, H:  5, 4, 3
    Auxiliary basis highest AM E, G, H:  6, 5, 4
    Onebody   basis highest AM E, G, H:  6, 5, 4
    Solid Harmonics ordering:            gaussian

*** tstart() called on ddmfs1
*** at Mon Jan 22 04:19:48 2024

   => Loading Basis Set <=

    Name: AUG-CC-PVTZ
    Role: ORBITAL
    Keyword: BASIS
    atoms 1   entry CL         line   988 file /ddmfs1b/softs/psi4conda/share/psi4/basis/aug-cc-pvtz.gbs 
    atoms 2-3 entry NA         line   469 file /ddmfs1b/softs/psi4conda/share/psi4/basis/aug-cc-pvtz.gbs 


         ---------------------------------------------------------
                                   SCF
               by Justin Turney, Rob Parrish, Andy Simmonett
                          and Daniel G. A. Smith
                              RHF Reference
                       20 Threads,  57220 MiB Core
         ---------------------------------------------------------

  ==> Geometry <==

    Molecular point group: c1
    Full point group: D1

    Geometry (in Bohr), charge = -1, multiplicity = 1:

       Center              X                  Y                   Z               Mass       
    ------------   -----------------  -----------------  -----------------  -----------------
         CL           0.000000000000     0.000000000000     0.000000000000    34.968852682000
      Gh(NA)          0.000000000000     4.478845559126     0.000000000000    22.989769282000
      Gh(NA)          4.478845559126     0.000000000000     0.000000000000    22.989769282000

  Running in c1 symmetry.

  Rotational constants: A =      0.13054  B =      0.13054  C =      0.06527 [cm^-1]
  Rotational constants: A =   3913.34509  B =   3913.34509  C =   1956.67254 [MHz]
  Nuclear repulsion =    0.000000000000000

  Charge       = -1
  Multiplicity = 1
  Electrons    = 18
  Nalpha       = 9
  Nbeta        = 9

  ==> Algorithm <==

  SCF Algorithm Type is DF.
  DIIS enabled.
  MOM disabled.
  Fractional occupation disabled.
  Guess Type is SAD.
  Energy threshold   = 1.00e-08
  Density threshold  = 1.00e-08
  Integral threshold = 1.00e-12

  ==> Primary Basis <==

  Basis Set: AUG-CC-PVTZ
    Blend: AUG-CC-PVTZ
    Number of shells: 48
    Number of basis functions: 150
    Number of Cartesian functions: 177
    Spherical Harmonics?: true
    Max angular momentum: 3

   => Loading Basis Set <=

    Name: (AUG-CC-PVTZ AUX)
    Role: JKFIT
    Keyword: DF_BASIS_SCF
    atoms 1   entry CL         line   816 file /ddmfs1b/softs/psi4conda/share/psi4/basis/aug-cc-pvtz-jkfit.gbs 
    atoms 2-3 entry NA         line   498 file /ddmfs1b/softs/psi4conda/share/psi4/basis/def2-universal-jkfit.gbs 

  ==> Integral Setup <==

  DFHelper Memory: AOs need 0.071 GiB; user supplied 41.910 GiB. 
  Using in-core AOs.

  ==> MemDFJK: Density-Fitted J/K Matrices <==

    J tasked:                   Yes
    K tasked:                   Yes
    wK tasked:                   No
    OpenMP threads:              20
    Memory [MiB]:             42915
    Algorithm:                 Core
    Schwarz Cutoff:           1E-12
    Mask sparsity (%):       0.0000
    Fitting Condition:        1E-10

   => Auxiliary Basis Set <=

  Basis Set: (AUG-CC-PVTZ AUX)
    Blend: AUG-CC-PVTZ-JKFIT + DEF2-UNIVERSAL-JKFIT
    Number of shells: 110
    Number of basis functions: 370
    Number of Cartesian functions: 454
    Spherical Harmonics?: true
    Max angular momentum: 4

  Minimum eigenvalue in the overlap matrix is 3.2064843780E-05.
  Reciprocal condition number of the overlap matrix is 4.2145878892E-06.
    Using symmetric orthogonalization.

  ==> Pre-Iterations <==

  SCF Guess: Superposition of Atomic Densities via on-the-fly atomic UHF (no occupation information).

   -------------------------
    Irrep   Nso     Nmo    
   -------------------------
     A        150     150 
   -------------------------
    Total     150     150
   -------------------------

  ==> Iterations <==

                           Total Energy        Delta E     RMS |[F,P]|

   @DF-RHF iter SAD:  -459.11248997436138   -4.59112e+02   0.00000e+00 
   @DF-RHF iter   1:  -459.51385391668737   -4.01364e-01   1.99035e-03 DIIS/ADIIS
   @DF-RHF iter   2:  -459.56476681016585   -5.09129e-02   1.01932e-03 DIIS/ADIIS
   @DF-RHF iter   3:  -459.57347002640404   -8.70322e-03   6.81209e-05 DIIS
   @DF-RHF iter   4:  -459.57352474958947   -5.47232e-05   1.38524e-05 DIIS
   @DF-RHF iter   5:  -459.57352834525346   -3.59566e-06   1.42697e-06 DIIS
   @DF-RHF iter   6:  -459.57352842841806   -8.31646e-08   1.26536e-07 DIIS
   @DF-RHF iter   7:  -459.57352842941651   -9.98455e-10   1.53101e-08 DIIS
   @DF-RHF iter   8:  -459.57352842943766   -2.11458e-11   2.01595e-09 DIIS
  Energy and wave function converged.


  ==> Post-Iterations <==

    Orbital Energies [Eh]
    ---------------------

    Doubly Occupied:                                                      

       1A   -104.506667     2A    -10.229897     3A     -7.695964  
       4A     -7.695949     5A     -7.695939     6A     -0.733477  
       7A     -0.150320     8A     -0.150318     9A     -0.150304  

    Virtual:                                                              

      10A      0.062510    11A      0.072339    12A      0.085486  
      13A      0.085945    14A      0.086436    15A      0.086472  
      16A      0.094813    17A      0.105478    18A      0.130794  
      19A      0.136501    20A      0.148192    21A      0.151089  
      22A      0.155467    23A      0.158211    24A      0.168113  
      25A      0.168871    26A      0.170796    27A      0.177066  
      28A      0.181603    29A      0.185565    30A      0.186812  
      31A      0.190233    32A      0.196647    33A      0.198611  
      34A      0.212564    35A      0.228242    36A      0.264040  
      37A      0.279967    38A      0.283247    39A      0.285258  
      40A      0.290923    41A      0.304551    42A      0.334500  
      43A      0.336195    44A      0.354285    45A      0.367847  
      46A      0.377079    47A      0.377128    48A      0.390166  
      49A      0.391991    50A      0.400518    51A      0.403716  
      52A      0.410818    53A      0.417187    54A      0.421970  
      55A      0.422666    56A      0.436633    57A      0.442497  
      58A      0.443808    59A      0.461107    60A      0.474909  
      61A      0.481689    62A      0.494105    63A      0.494733  
      64A      0.494813    65A      0.510461    66A      0.511462  
      67A      0.541890    68A      0.546177    69A      0.546885  
      70A      0.571380    71A      0.577597    72A      0.582845  
      73A      0.631288    74A      0.660825    75A      0.694500  
      76A      0.704198    77A      0.718983    78A      0.726425  
      79A      0.743058    80A      0.784031    81A      0.834292  
      82A      0.850722    83A      0.873990    84A      0.877702  
      85A      0.880932    86A      0.889724    87A      0.891826  
      88A      0.903599    89A      0.905023    90A      0.911632  
      91A      0.915256    92A      0.935012    93A      0.944571  
      94A      0.951981    95A      0.968899    96A      0.990883  
      97A      0.993866    98A      1.026857    99A      1.032795  
     100A      1.038983   101A      1.053648   102A      1.108416  
     103A      1.131883   104A      1.144019   105A      1.145830  
     106A      1.188546   107A      1.238321   108A      1.259724  
     109A      1.280181   110A      1.364405   111A      1.377911  
     112A      1.381366   113A      1.419741   114A      1.440665  
     115A      1.484671   116A      1.639198   117A      1.649247  
     118A      1.652953   119A      1.798536   120A      1.828148  
     121A      1.848589   122A      1.863540   123A      2.201813  
     124A      2.253768   125A      2.934534   126A      2.940385  
     127A      2.987918   128A      3.012273   129A      3.133292  
     130A      3.163605   131A      3.292145   132A      3.342880  
     133A      3.454830   134A      3.483853   135A      3.488500  
     136A      3.583164   137A      3.589004   138A      3.621498  
     139A      3.646021   140A      4.757580   141A      5.209585  
     142A      6.534643   143A      6.548230   144A      6.588376  
     145A      6.722861   146A      6.766650   147A      7.619796  
     148A      7.798462   149A     64.698297   150A     64.735128  

    Final Occupation by Irrep:
              A 
    DOCC [     9 ]
    NA   [     9 ]
    NB   [     9 ]

  @DF-RHF Final Energy:  -459.57352842943766

   => Energetics <=

    Nuclear Repulsion Energy =              0.0000000000000000
    One-Electron Energy =                -641.1293867936516335
    Two-Electron Energy =                 181.5558583642139183
    Total Energy =                       -459.5735284294377152

Computation Completed


Properties will be evaluated at   0.000000,   0.000000,   0.000000 [a0]

Properties computed using the SCF density matrix


 Multipole Moments:

 ------------------------------------------------------------------------------------
     Multipole            Electronic (a.u.)      Nuclear  (a.u.)        Total (a.u.)
 ------------------------------------------------------------------------------------

 L = 1.  Multiply by 2.5417464519 to convert [e a0] to [Debye]
 Dipole X            :          0.0002243            0.0000000            0.0002243
 Dipole Y            :          0.0002243            0.0000000            0.0002243
 Dipole Z            :          0.0000000            0.0000000            0.0000000
 Magnitude           :                                                    0.0003172

 ------------------------------------------------------------------------------------

*** tstop() called on ddmfs1 at Mon Jan 22 04:19:50 2024
Module time:
	user time   =      28.71 seconds =       0.48 minutes
	system time =       3.40 seconds =       0.06 minutes
	total time  =          2 seconds =       0.03 minutes
Total time:
	user time   =      28.71 seconds =       0.48 minutes
	system time =       3.40 seconds =       0.06 minutes
	total time  =          2 seconds =       0.03 minutes

*** tstart() called on ddmfs1
*** at Mon Jan 22 04:19:50 2024


  //>>>>>>>>>>>>>>>>>>>>>>>>>>>>>>>>>>>//
  //               DFMP2               //
  //<<<<<<<<<<<<<<<<<<<<<<<<<<<<<<<<<<<//

   => Loading Basis Set <=

    Name: (AUG-CC-PVTZ AUX)
    Role: RIFIT
    Keyword: DF_BASIS_MP2
    atoms 1   entry CL         line   742 file /ddmfs1b/softs/psi4conda/share/psi4/basis/aug-cc-pvtz-ri.gbs 
    atoms 2-3 entry NA         line   610 file /ddmfs1b/softs/psi4conda/share/psi4/basis/def2-qzvpp-ri.gbs 

	 --------------------------------------------------------
	                          DF-MP2                         
	      2nd-Order Density-Fitted Moller-Plesset Theory     
	              RMP2 Wavefunction,  20 Threads             
	                                                         
	        Rob Parrish, Justin Turney, Andy Simmonett,      
	           Ed Hohenstein, and C. David Sherrill          
	 --------------------------------------------------------

   => Auxiliary Basis Set <=

  Basis Set: (AUG-CC-PVTZ AUX)
    Blend: AUG-CC-PVTZ-RI + DEF2-QZVPP-RI
    Number of shells: 121
    Number of basis functions: 479
    Number of Cartesian functions: 619
    Spherical Harmonics?: true
    Max angular momentum: 4

	 --------------------------------------------------------
	                 NBF =   150, NAUX =   479
	 --------------------------------------------------------
	   CLASS    FOCC     OCC    AOCC    AVIR     VIR    FVIR
	   PAIRS       0       9       9     141     141       0
	 --------------------------------------------------------

	-----------------------------------------------------------
	 ==================> DF-MP2 Energies <==================== 
	-----------------------------------------------------------
	 Reference Energy          =    -459.5735284294376584 [Eh]
	 Singles Energy            =      -0.0000000000000000 [Eh]
	 Same-Spin Energy          =      -0.0629603671583321 [Eh]
	 Opposite-Spin Energy      =      -0.1811257018419735 [Eh]
	 Correlation Energy        =      -0.2440860690003057 [Eh]
	 Total Energy              =    -459.8176144984379903 [Eh]
	-----------------------------------------------------------
	 ================> DF-SCS-MP2 Energies <================== 
	-----------------------------------------------------------
	 SCS Same-Spin Scale       =       0.3333333333333333 [-]
	 SCS Opposite-Spin Scale   =       1.2000000000000000 [-]
	 SCS Same-Spin Energy      =      -0.0209867890527774 [Eh]
	 SCS Opposite-Spin Energy  =      -0.2173508422103682 [Eh]
	 SCS Correlation Energy    =      -0.2383376312631456 [Eh]
	 SCS Total Energy          =    -459.8118660607008223 [Eh]
	-----------------------------------------------------------


*** tstop() called on ddmfs1 at Mon Jan 22 04:19:57 2024
Module time:
	user time   =      15.66 seconds =       0.26 minutes
	system time =       1.11 seconds =       0.02 minutes
	total time  =          7 seconds =       0.12 minutes
Total time:
	user time   =      44.39 seconds =       0.74 minutes
	system time =       4.51 seconds =       0.08 minutes
	total time  =          9 seconds =       0.15 minutes

    Psi4 stopped on: Monday, 22 January 2024 04:19AM
    Psi4 wall time for execution: 0:00:09.69


    -----------------------------------------------------------------------
          Psi4: An Open-Source Ab Initio Electronic Structure Package
                               Psi4 1.8.2 release

                         Git: Rev {} zzzzzzz 


    D. G. A. Smith, L. A. Burns, A. C. Simmonett, R. M. Parrish,
    M. C. Schieber, R. Galvelis, P. Kraus, H. Kruse, R. Di Remigio,
    A. Alenaizan, A. M. James, S. Lehtola, J. P. Misiewicz, M. Scheurer,
    R. A. Shaw, J. B. Schriber, Y. Xie, Z. L. Glick, D. A. Sirianni,
    J. S. O'Brien, J. M. Waldrop, A. Kumar, E. G. Hohenstein,
    B. P. Pritchard, B. R. Brooks, H. F. Schaefer III, A. Yu. Sokolov,
    K. Patkowski, A. E. DePrince III, U. Bozkaya, R. A. King,
    F. A. Evangelista, J. M. Turney, T. D. Crawford, C. D. Sherrill,
    J. Chem. Phys. 152(18) 184108 (2020). https://doi.org/10.1063/5.0006002

                            Additional Code Authors
    E. T. Seidl, C. L. Janssen, E. F. Valeev, M. L. Leininger,
    J. F. Gonthier, R. M. Richard, H. R. McAlexander, M. Saitow, X. Wang,
    P. Verma, M. H. Lechner, A. Jiang, S. Behnle, A. G. Heide,
    M. F. Herbst, and D. L. Poole

             Previous Authors, Complete List of Code Contributors,
                       and Citations for Specific Modules
    https://github.com/psi4/psi4/blob/master/codemeta.json
    https://github.com/psi4/psi4/graphs/contributors
    http://psicode.org/psi4manual/master/introduction.html#citing-psifour

    -----------------------------------------------------------------------


    Psi4 started on: Monday, 22 January 2024 04:19AM

    Process ID: 32045
    Host:       ddmfs1
    PSIDATADIR: /ddmfs1b/softs/psi4conda/share/psi4
    Memory:     55.9 GiB
    Threads:    20
    
  ==> Input QCSchema <==

--------------------------------------------------------------------------
{'driver': 'energy',
 'extras': {'psiapi': True, 'wfn_qcvars_only': True},
 'id': None,
 'keywords': {'SCF_TYPE': 'DF', 'function_kwargs': {}},
 'model': {'basis': 'aug-cc-pvtz', 'method': 'mp2'},
 'molecule': {'atom_labels': ['', '', ''],
              'atomic_numbers': [17, 11, 11],
              'extras': {},
              'fix_com': True,
              'fix_orientation': True,
              'fix_symmetry': 'c1',
              'fragment_charges': [0.0, 1.0, 0.0],
              'fragment_multiplicities': [1, 1, 1],
              'fragments': [[0], [1], [2]],
              'geometry': [0.0, 0.0, 0.0, 0.0, 4.478845559125975, 0.0, 4.478845559125975, 0.0, 0.0],
              'mass_numbers': [35, 23, 23],
              'masses': [34.968852682, 22.989769282, 22.989769282],
              'molecular_charge': 1.0,
              'molecular_multiplicity': 1,
              'name': 'dimer',
              'provenance': {'creator': 'QCElemental',
                             'routine': 'qcelemental.molparse.from_string',
                             'version': '0.26.0'},
              'real': [False, True, False],
              'schema_name': 'qcschema_molecule',
              'schema_version': 2,
              'symbols': ['Cl', 'Na', 'Na'],
              'validated': True},
 'protocols': {'stdout': True},
 'provenance': {'creator': 'QCElemental', 'routine': 'qcelemental.models.results', 'version': '0.26.0'},
 'schema_name': 'qcschema_input',
 'schema_version': 1}
--------------------------------------------------------------------------

Scratch directory: /ddmfs1a/scratch/
   => Libint2 <=

    Primary   basis highest AM E, G, H:  5, 4, 3
    Auxiliary basis highest AM E, G, H:  6, 5, 4
    Onebody   basis highest AM E, G, H:  6, 5, 4
    Solid Harmonics ordering:            gaussian

*** tstart() called on ddmfs1
*** at Mon Jan 22 04:19:57 2024

   => Loading Basis Set <=

    Name: AUG-CC-PVTZ
    Role: ORBITAL
    Keyword: BASIS
    atoms 1   entry CL         line   988 file /ddmfs1b/softs/psi4conda/share/psi4/basis/aug-cc-pvtz.gbs 
    atoms 2-3 entry NA         line   469 file /ddmfs1b/softs/psi4conda/share/psi4/basis/aug-cc-pvtz.gbs 


         ---------------------------------------------------------
                                   SCF
               by Justin Turney, Rob Parrish, Andy Simmonett
                          and Daniel G. A. Smith
                              RHF Reference
                       20 Threads,  57220 MiB Core
         ---------------------------------------------------------

  ==> Geometry <==

    Molecular point group: c1
    Full point group: C1h

    Geometry (in Bohr), charge = 1, multiplicity = 1:

       Center              X                  Y                   Z               Mass       
    ------------   -----------------  -----------------  -----------------  -----------------
      Gh(CL)          0.000000000000     0.000000000000     0.000000000000    34.968852682000
         NA           0.000000000000     4.478845559126     0.000000000000    22.989769282000
      Gh(NA)          4.478845559126     0.000000000000     0.000000000000    22.989769282000

  Running in c1 symmetry.

  Rotational constants: A =      0.13054  B =      0.13054  C =      0.06527 [cm^-1]
  Rotational constants: A =   3913.34509  B =   3913.34509  C =   1956.67254 [MHz]
  Nuclear repulsion =    0.000000000000000

  Charge       = 1
  Multiplicity = 1
  Electrons    = 10
  Nalpha       = 5
  Nbeta        = 5

  ==> Algorithm <==

  SCF Algorithm Type is DF.
  DIIS enabled.
  MOM disabled.
  Fractional occupation disabled.
  Guess Type is SAD.
  Energy threshold   = 1.00e-08
  Density threshold  = 1.00e-08
  Integral threshold = 1.00e-12

  ==> Primary Basis <==

  Basis Set: AUG-CC-PVTZ
    Blend: AUG-CC-PVTZ
    Number of shells: 48
    Number of basis functions: 150
    Number of Cartesian functions: 177
    Spherical Harmonics?: true
    Max angular momentum: 3

   => Loading Basis Set <=

    Name: (AUG-CC-PVTZ AUX)
    Role: JKFIT
    Keyword: DF_BASIS_SCF
    atoms 1   entry CL         line   816 file /ddmfs1b/softs/psi4conda/share/psi4/basis/aug-cc-pvtz-jkfit.gbs 
    atoms 2-3 entry NA         line   498 file /ddmfs1b/softs/psi4conda/share/psi4/basis/def2-universal-jkfit.gbs 

  ==> Integral Setup <==

  DFHelper Memory: AOs need 0.071 GiB; user supplied 41.910 GiB. 
  Using in-core AOs.

  ==> MemDFJK: Density-Fitted J/K Matrices <==

    J tasked:                   Yes
    K tasked:                   Yes
    wK tasked:                   No
    OpenMP threads:              20
    Memory [MiB]:             42915
    Algorithm:                 Core
    Schwarz Cutoff:           1E-12
    Mask sparsity (%):       0.0000
    Fitting Condition:        1E-10

   => Auxiliary Basis Set <=

  Basis Set: (AUG-CC-PVTZ AUX)
    Blend: AUG-CC-PVTZ-JKFIT + DEF2-UNIVERSAL-JKFIT
    Number of shells: 110
    Number of basis functions: 370
    Number of Cartesian functions: 454
    Spherical Harmonics?: true
    Max angular momentum: 4

  Minimum eigenvalue in the overlap matrix is 3.2064843780E-05.
  Reciprocal condition number of the overlap matrix is 4.2145878892E-06.
    Using symmetric orthogonalization.

  ==> Pre-Iterations <==

  SCF Guess: Superposition of Atomic Densities via on-the-fly atomic UHF (no occupation information).

   -------------------------
    Irrep   Nso     Nmo    
   -------------------------
     A        150     150 
   -------------------------
    Total     150     150
   -------------------------

  ==> Iterations <==

                           Total Energy        Delta E     RMS |[F,P]|

   @DF-RHF iter SAD:  -161.74558168840062   -1.61746e+02   0.00000e+00 
   @DF-RHF iter   1:  -161.67602654515017    6.95551e-02   3.91737e-05 DIIS
   @DF-RHF iter   2:  -161.67604438807189   -1.78429e-05   7.57501e-06 DIIS
   @DF-RHF iter   3:  -161.67604484762316   -4.59551e-07   3.10707e-07 DIIS
   @DF-RHF iter   4:  -161.67604484838935   -7.66192e-10   2.93436e-08 DIIS
   @DF-RHF iter   5:  -161.67604484839586   -6.50857e-12   1.67931e-09 DIIS
  Energy and wave function converged.


  ==> Post-Iterations <==

    Orbital Energies [Eh]
    ---------------------

    Doubly Occupied:                                                      

       1A    -40.762561     2A     -3.074798     3A     -1.798086  
       4A     -1.798010     5A     -1.797940  

    Virtual:                                                              

       6A     -0.181833     7A     -0.109447     8A     -0.109439  
       9A     -0.109434    10A     -0.070061    11A     -0.054683  
      12A     -0.054667    13A     -0.054586    14A     -0.050717  
      15A     -0.050682    16A     -0.049951    17A     -0.049097  
      18A     -0.049044    19A     -0.028916    20A     -0.025296  
      21A     -0.024494    22A     -0.024369    23A     -0.021176  
      24A     -0.010663    25A     -0.010006    26A     -0.007337  
      27A     -0.006118    28A     -0.002067    29A     -0.000237  
      30A      0.000199    31A      0.009685    32A      0.021170  
      33A      0.025771    34A      0.026526    35A      0.030415  
      36A      0.032490    37A      0.037360    38A      0.042632  
      39A      0.042959    40A      0.065783    41A      0.070032  
      42A      0.075114    43A      0.079767    44A      0.086210  
      45A      0.090425    46A      0.101818    47A      0.111802  
      48A      0.125753    49A      0.138943    50A      0.142919  
      51A      0.151995    52A      0.153296    53A      0.157749  
      54A      0.161253    55A      0.165307    56A      0.167537  
      57A      0.173668    58A      0.180424    59A      0.195200  
      60A      0.201196    61A      0.204982    62A      0.217595  
      63A      0.220905    64A      0.222658    65A      0.239725  
      66A      0.242233    67A      0.256927    68A      0.264611  
      69A      0.270952    70A      0.334548    71A      0.338751  
      72A      0.342668    73A      0.345488    74A      0.354158  
      75A      0.363158    76A      0.376889    77A      0.387771  
      78A      0.393716    79A      0.401292    80A      0.439381  
      81A      0.468793    82A      0.474857    83A      0.479447  
      84A      0.504224    85A      0.510936    86A      0.517378  
      87A      0.527507    88A      0.540944    89A      0.550538  
      90A      0.588149    91A      0.594677    92A      0.607964  
      93A      0.622548    94A      0.635737    95A      0.636268  
      96A      0.647501    97A      0.666914    98A      0.672219  
      99A      0.696778   100A      0.702591   101A      0.729122  
     102A      0.771898   103A      0.785368   104A      0.794552  
     105A      0.855615   106A      0.933452   107A      1.118189  
     108A      1.205576   109A      1.225354   110A      1.252077  
     111A      1.281373   112A      1.320460   113A      1.391998  
     114A      1.410382   115A      1.466226   116A      1.478849  
     117A      1.493796   118A      1.507566   119A      1.515789  
     120A      1.558274   121A      1.588160   122A      1.677821  
     123A      2.015677   124A      2.260853   125A      3.772295  
     126A      3.790450   127A      3.807915   128A      3.824447  
     129A      3.917706   130A      3.952161   131A      3.954365  
     132A      3.973151   133A      4.008663   134A      4.036805  
     135A      4.483876   136A      4.553390   137A      4.582777  
     138A      4.583083   139A      4.612636   140A      4.722216  
     141A      4.921547   142A      6.191285   143A      6.283670  
     144A      7.105917   145A     15.374842   146A     27.672780  
     147A     27.850476   148A     27.966594   149A     64.341438  
     150A    160.731719  

    Final Occupation by Irrep:
              A 
    DOCC [     5 ]
    NA   [     5 ]
    NB   [     5 ]

  @DF-RHF Final Energy:  -161.67604484839586

   => Energetics <=

    Nuclear Repulsion Energy =              0.0000000000000000
    One-Electron Energy =                -224.8892983581191061
    Two-Electron Energy =                  63.2132535097232591
    Total Energy =                       -161.6760448483958612

Computation Completed


Properties will be evaluated at   0.000000,   0.000000,   0.000000 [a0]

Properties computed using the SCF density matrix


 Multipole Moments:

 ------------------------------------------------------------------------------------
     Multipole            Electronic (a.u.)      Nuclear  (a.u.)        Total (a.u.)
 ------------------------------------------------------------------------------------

 L = 1.  Multiply by 2.5417464519 to convert [e a0] to [Debye]
 Dipole X            :          0.0001716            0.0000000            0.0001716
 Dipole Y            :        -44.7890385           49.2673012            4.4782627
 Dipole Z            :          0.0000000            0.0000000            0.0000000
 Magnitude           :                                                    4.4782627

 ------------------------------------------------------------------------------------

*** tstop() called on ddmfs1 at Mon Jan 22 04:20:00 2024
Module time:
	user time   =      27.71 seconds =       0.46 minutes
	system time =       4.13 seconds =       0.07 minutes
	total time  =          3 seconds =       0.05 minutes
Total time:
	user time   =      73.28 seconds =       1.22 minutes
	system time =       8.68 seconds =       0.14 minutes
	total time  =         12 seconds =       0.20 minutes

*** tstart() called on ddmfs1
*** at Mon Jan 22 04:20:00 2024


  //>>>>>>>>>>>>>>>>>>>>>>>>>>>>>>>>>>>//
  //               DFMP2               //
  //<<<<<<<<<<<<<<<<<<<<<<<<<<<<<<<<<<<//

   => Loading Basis Set <=

    Name: (AUG-CC-PVTZ AUX)
    Role: RIFIT
    Keyword: DF_BASIS_MP2
    atoms 1   entry CL         line   742 file /ddmfs1b/softs/psi4conda/share/psi4/basis/aug-cc-pvtz-ri.gbs 
    atoms 2-3 entry NA         line   610 file /ddmfs1b/softs/psi4conda/share/psi4/basis/def2-qzvpp-ri.gbs 

	 --------------------------------------------------------
	                          DF-MP2                         
	      2nd-Order Density-Fitted Moller-Plesset Theory     
	              RMP2 Wavefunction,  20 Threads             
	                                                         
	        Rob Parrish, Justin Turney, Andy Simmonett,      
	           Ed Hohenstein, and C. David Sherrill          
	 --------------------------------------------------------

   => Auxiliary Basis Set <=

  Basis Set: (AUG-CC-PVTZ AUX)
    Blend: AUG-CC-PVTZ-RI + DEF2-QZVPP-RI
    Number of shells: 121
    Number of basis functions: 479
    Number of Cartesian functions: 619
    Spherical Harmonics?: true
    Max angular momentum: 4

	 --------------------------------------------------------
	                 NBF =   150, NAUX =   479
	 --------------------------------------------------------
	   CLASS    FOCC     OCC    AOCC    AVIR     VIR    FVIR
	   PAIRS       0       5       5     145     145       0
	 --------------------------------------------------------

	-----------------------------------------------------------
	 ==================> DF-MP2 Energies <==================== 
	-----------------------------------------------------------
	 Reference Energy          =    -161.6760448483958612 [Eh]
	 Singles Energy            =      -0.0000000000000000 [Eh]
	 Same-Spin Energy          =      -0.0029187786066712 [Eh]
	 Opposite-Spin Energy      =      -0.0105093832715359 [Eh]
	 Correlation Energy        =      -0.0134281618782070 [Eh]
	 Total Energy              =    -161.6894730102740709 [Eh]
	-----------------------------------------------------------
	 ================> DF-SCS-MP2 Energies <================== 
	-----------------------------------------------------------
	 SCS Same-Spin Scale       =       0.3333333333333333 [-]
	 SCS Opposite-Spin Scale   =       1.2000000000000000 [-]
	 SCS Same-Spin Energy      =      -0.0009729262022237 [Eh]
	 SCS Opposite-Spin Energy  =      -0.0126112599258431 [Eh]
	 SCS Correlation Energy    =      -0.0135841861280668 [Eh]
	 SCS Total Energy          =    -161.6896290345239322 [Eh]
	-----------------------------------------------------------


*** tstop() called on ddmfs1 at Mon Jan 22 04:20:07 2024
Module time:
	user time   =      15.38 seconds =       0.26 minutes
	system time =       1.02 seconds =       0.02 minutes
	total time  =          7 seconds =       0.12 minutes
Total time:
	user time   =      88.67 seconds =       1.48 minutes
	system time =       9.70 seconds =       0.16 minutes
	total time  =         19 seconds =       0.32 minutes

    Psi4 stopped on: Monday, 22 January 2024 04:20AM
    Psi4 wall time for execution: 0:00:09.52


    -----------------------------------------------------------------------
          Psi4: An Open-Source Ab Initio Electronic Structure Package
                               Psi4 1.8.2 release

                         Git: Rev {} zzzzzzz 


    D. G. A. Smith, L. A. Burns, A. C. Simmonett, R. M. Parrish,
    M. C. Schieber, R. Galvelis, P. Kraus, H. Kruse, R. Di Remigio,
    A. Alenaizan, A. M. James, S. Lehtola, J. P. Misiewicz, M. Scheurer,
    R. A. Shaw, J. B. Schriber, Y. Xie, Z. L. Glick, D. A. Sirianni,
    J. S. O'Brien, J. M. Waldrop, A. Kumar, E. G. Hohenstein,
    B. P. Pritchard, B. R. Brooks, H. F. Schaefer III, A. Yu. Sokolov,
    K. Patkowski, A. E. DePrince III, U. Bozkaya, R. A. King,
    F. A. Evangelista, J. M. Turney, T. D. Crawford, C. D. Sherrill,
    J. Chem. Phys. 152(18) 184108 (2020). https://doi.org/10.1063/5.0006002

                            Additional Code Authors
    E. T. Seidl, C. L. Janssen, E. F. Valeev, M. L. Leininger,
    J. F. Gonthier, R. M. Richard, H. R. McAlexander, M. Saitow, X. Wang,
    P. Verma, M. H. Lechner, A. Jiang, S. Behnle, A. G. Heide,
    M. F. Herbst, and D. L. Poole

             Previous Authors, Complete List of Code Contributors,
                       and Citations for Specific Modules
    https://github.com/psi4/psi4/blob/master/codemeta.json
    https://github.com/psi4/psi4/graphs/contributors
    http://psicode.org/psi4manual/master/introduction.html#citing-psifour

    -----------------------------------------------------------------------


    Psi4 started on: Monday, 22 January 2024 04:19AM

    Process ID: 32045
    Host:       ddmfs1
    PSIDATADIR: /ddmfs1b/softs/psi4conda/share/psi4
    Memory:     55.9 GiB
    Threads:    20
    
  ==> Input QCSchema <==

--------------------------------------------------------------------------
{'driver': 'energy',
 'extras': {'psiapi': True, 'wfn_qcvars_only': True},
 'id': None,
 'keywords': {'SCF_TYPE': 'DF', 'function_kwargs': {}},
 'model': {'basis': 'aug-cc-pvtz', 'method': 'mp2'},
 'molecule': {'atom_labels': ['', '', ''],
              'atomic_numbers': [17, 11, 11],
              'extras': {},
              'fix_com': True,
              'fix_orientation': True,
              'fix_symmetry': 'c1',
              'fragment_charges': [0.0, 1.0, 1.0],
              'fragment_multiplicities': [1, 1, 1],
              'fragments': [[0], [1], [2]],
              'geometry': [0.0, 0.0, 0.0, 0.0, 4.478845559125975, 0.0, 4.478845559125975, 0.0, 0.0],
              'mass_numbers': [35, 23, 23],
              'masses': [34.968852682, 22.989769282, 22.989769282],
              'molecular_charge': 2.0,
              'molecular_multiplicity': 1,
              'name': 'dimer',
              'provenance': {'creator': 'QCElemental',
                             'routine': 'qcelemental.molparse.from_string',
                             'version': '0.26.0'},
              'real': [False, True, True],
              'schema_name': 'qcschema_molecule',
              'schema_version': 2,
              'symbols': ['Cl', 'Na', 'Na'],
              'validated': True},
 'protocols': {'stdout': True},
 'provenance': {'creator': 'QCElemental', 'routine': 'qcelemental.models.results', 'version': '0.26.0'},
 'schema_name': 'qcschema_input',
 'schema_version': 1}
--------------------------------------------------------------------------

Scratch directory: /ddmfs1a/scratch/
   => Libint2 <=

    Primary   basis highest AM E, G, H:  5, 4, 3
    Auxiliary basis highest AM E, G, H:  6, 5, 4
    Onebody   basis highest AM E, G, H:  6, 5, 4
    Solid Harmonics ordering:            gaussian

*** tstart() called on ddmfs1
*** at Mon Jan 22 04:20:07 2024

   => Loading Basis Set <=

    Name: AUG-CC-PVTZ
    Role: ORBITAL
    Keyword: BASIS
    atoms 1   entry CL         line   988 file /ddmfs1b/softs/psi4conda/share/psi4/basis/aug-cc-pvtz.gbs 
    atoms 2-3 entry NA         line   469 file /ddmfs1b/softs/psi4conda/share/psi4/basis/aug-cc-pvtz.gbs 


         ---------------------------------------------------------
                                   SCF
               by Justin Turney, Rob Parrish, Andy Simmonett
                          and Daniel G. A. Smith
                              RHF Reference
                       20 Threads,  57220 MiB Core
         ---------------------------------------------------------

  ==> Geometry <==

    Molecular point group: c1
    Full point group: D1

    Geometry (in Bohr), charge = 2, multiplicity = 1:

       Center              X                  Y                   Z               Mass       
    ------------   -----------------  -----------------  -----------------  -----------------
      Gh(CL)          0.000000000000     0.000000000000     0.000000000000    34.968852682000
         NA           0.000000000000     4.478845559126     0.000000000000    22.989769282000
         NA           4.478845559126     0.000000000000     0.000000000000    22.989769282000

  Running in c1 symmetry.

  Rotational constants: A =      0.13054  B =      0.13054  C =      0.06527 [cm^-1]
  Rotational constants: A =   3913.34509  B =   3913.34509  C =   1956.67254 [MHz]
  Nuclear repulsion =   19.103119184191936

  Charge       = 2
  Multiplicity = 1
  Electrons    = 20
  Nalpha       = 10
  Nbeta        = 10

  ==> Algorithm <==

  SCF Algorithm Type is DF.
  DIIS enabled.
  MOM disabled.
  Fractional occupation disabled.
  Guess Type is SAD.
  Energy threshold   = 1.00e-08
  Density threshold  = 1.00e-08
  Integral threshold = 1.00e-12

  ==> Primary Basis <==

  Basis Set: AUG-CC-PVTZ
    Blend: AUG-CC-PVTZ
    Number of shells: 48
    Number of basis functions: 150
    Number of Cartesian functions: 177
    Spherical Harmonics?: true
    Max angular momentum: 3

   => Loading Basis Set <=

    Name: (AUG-CC-PVTZ AUX)
    Role: JKFIT
    Keyword: DF_BASIS_SCF
    atoms 1   entry CL         line   816 file /ddmfs1b/softs/psi4conda/share/psi4/basis/aug-cc-pvtz-jkfit.gbs 
    atoms 2-3 entry NA         line   498 file /ddmfs1b/softs/psi4conda/share/psi4/basis/def2-universal-jkfit.gbs 

  ==> Integral Setup <==

  DFHelper Memory: AOs need 0.071 GiB; user supplied 41.910 GiB. 
  Using in-core AOs.

  ==> MemDFJK: Density-Fitted J/K Matrices <==

    J tasked:                   Yes
    K tasked:                   Yes
    wK tasked:                   No
    OpenMP threads:              20
    Memory [MiB]:             42915
    Algorithm:                 Core
    Schwarz Cutoff:           1E-12
    Mask sparsity (%):       0.0000
    Fitting Condition:        1E-10

   => Auxiliary Basis Set <=

  Basis Set: (AUG-CC-PVTZ AUX)
    Blend: AUG-CC-PVTZ-JKFIT + DEF2-UNIVERSAL-JKFIT
    Number of shells: 110
    Number of basis functions: 370
    Number of Cartesian functions: 454
    Spherical Harmonics?: true
    Max angular momentum: 4

  Minimum eigenvalue in the overlap matrix is 3.2064843780E-05.
  Reciprocal condition number of the overlap matrix is 4.2145878892E-06.
    Using symmetric orthogonalization.

  ==> Pre-Iterations <==

  SCF Guess: Superposition of Atomic Densities via on-the-fly atomic UHF (no occupation information).

   -------------------------
    Irrep   Nso     Nmo    
   -------------------------
     A        150     150 
   -------------------------
    Total     150     150
   -------------------------

  ==> Iterations <==

                           Total Energy        Delta E     RMS |[F,P]|

   @DF-RHF iter SAD:  -323.50824415679955   -3.23508e+02   0.00000e+00 
   @DF-RHF iter   1:  -323.19435837862738    3.13886e-01   1.04499e-04 DIIS/ADIIS
   @DF-RHF iter   2:  -323.19448536759870   -1.26989e-04   1.81508e-05 DIIS
   @DF-RHF iter   3:  -323.19448883323304   -3.46563e-06   1.57710e-06 DIIS
   @DF-RHF iter   4:  -323.19448886397998   -3.07469e-08   2.54888e-07 DIIS
   @DF-RHF iter   5:  -323.19448886485856   -8.78572e-10   1.67861e-08 DIIS
   @DF-RHF iter   6:  -323.19448886486185   -3.29692e-12   9.01457e-10 DIIS
  Energy and wave function converged.


  ==> Post-Iterations <==

    Orbital Energies [Eh]
    ---------------------

    Doubly Occupied:                                                      

       1A    -40.921199     2A    -40.921199     3A     -3.233015  
       4A     -3.232975     5A     -1.957455     6A     -1.956723  
       7A     -1.955605     8A     -1.955545     9A     -1.955533  
      10A     -1.955475  

    Virtual:                                                              

      11A     -0.372811    12A     -0.279394    13A     -0.266858  
      14A     -0.266833    15A     -0.228352    16A     -0.198571  
      17A     -0.198560    18A     -0.178242    19A     -0.173265  
      20A     -0.173259    21A     -0.152757    22A     -0.148977  
      23A     -0.148892    24A     -0.128938    25A     -0.128921  
      26A     -0.128398    27A     -0.126921    28A     -0.122281  
      29A     -0.122277    30A     -0.112013    31A     -0.111997  
      32A     -0.102786    33A     -0.090606    34A     -0.090365  
      35A     -0.090326    36A     -0.087915    37A     -0.085632  
      38A     -0.077388    39A     -0.075479    40A     -0.075285  
      41A     -0.075073    42A     -0.073018    43A     -0.066720  
      44A     -0.066632    45A     -0.063300    46A     -0.061746  
      47A     -0.051068    48A     -0.049105    49A     -0.041402  
      50A     -0.035461    51A     -0.030900    52A     -0.021602  
      53A     -0.020837    54A     -0.007826    55A     -0.005555  
      56A      0.004769    57A      0.015143    58A      0.021433  
      59A      0.021671    60A      0.023687    61A      0.026291  
      62A      0.034801    63A      0.041521    64A      0.046563  
      65A      0.050982    66A      0.053278    67A      0.060411  
      68A      0.062050    69A      0.069292    70A      0.083206  
      71A      0.085071    72A      0.090809    73A      0.091148  
      74A      0.114093    75A      0.164910    76A      0.177175  
      77A      0.178321    78A      0.178705    79A      0.186074  
      80A      0.186178    81A      0.208452    82A      0.211624  
      83A      0.231778    84A      0.232993    85A      0.244725  
      86A      0.256380    87A      0.279432    88A      0.307429  
      89A      0.312571    90A      0.314680    91A      0.323761  
      92A      0.324492    93A      0.353337    94A      0.354232  
      95A      0.375310    96A      0.376270    97A      0.380748  
      98A      0.382750    99A      0.410485   100A      0.411658  
     101A      0.419079   102A      0.450961   103A      0.452997  
     104A      0.453058   105A      0.466942   106A      0.500185  
     107A      0.535356   108A      0.538426   109A      0.548711  
     110A      0.666386   111A      0.794765   112A      0.960264  
     113A      1.008449   114A      1.046689   115A      1.064471  
     116A      1.119652   117A      1.178588   118A      1.197029  
     119A      1.222075   120A      1.273361   121A      1.288224  
     122A      1.295204   123A      1.317132   124A      1.356557  
     125A      1.358568   126A      1.460587   127A      1.585056  
     128A      1.879409   129A      2.292990   130A      3.565942  
     131A      3.584156   132A      3.593047   133A      3.606040  
     134A      3.728432   135A      3.731983   136A      3.740978  
     137A      3.744797   138A      3.789039   139A      3.912138  
     140A      4.286539   141A      4.337051   142A      4.365386  
     143A      4.387964   144A      4.463329   145A      4.649275  
     146A     15.135460   147A     27.451495   148A     27.625696  
     149A     27.736076   150A    160.509138  

    Final Occupation by Irrep:
              A 
    DOCC [    10 ]
    NA   [    10 ]
    NB   [    10 ]

  @DF-RHF Final Energy:  -323.19448886486185

   => Energetics <=

    Nuclear Repulsion Energy =             19.1031191841919359
    One-Electron Energy =                -484.5057682981242806
    Two-Electron Energy =                 142.2081602490704597
    Total Energy =                       -323.1944888648619099

Computation Completed


Properties will be evaluated at   0.000000,   0.000000,   0.000000 [a0]

Properties computed using the SCF density matrix


 Multipole Moments:

 ------------------------------------------------------------------------------------
     Multipole            Electronic (a.u.)      Nuclear  (a.u.)        Total (a.u.)
 ------------------------------------------------------------------------------------

 L = 1.  Multiply by 2.5417464519 to convert [e a0] to [Debye]
 Dipole X            :        -44.7883938           49.2673012            4.4789074
 Dipole Y            :        -44.7883938           49.2673012            4.4789074
 Dipole Z            :          0.0000000            0.0000000            0.0000000
 Magnitude           :                                                    6.3341316

 ------------------------------------------------------------------------------------

*** tstop() called on ddmfs1 at Mon Jan 22 04:20:09 2024
Module time:
	user time   =      28.15 seconds =       0.47 minutes
	system time =       3.69 seconds =       0.06 minutes
	total time  =          2 seconds =       0.03 minutes
Total time:
	user time   =     117.97 seconds =       1.97 minutes
	system time =      13.44 seconds =       0.22 minutes
	total time  =         21 seconds =       0.35 minutes

*** tstart() called on ddmfs1
*** at Mon Jan 22 04:20:09 2024


  //>>>>>>>>>>>>>>>>>>>>>>>>>>>>>>>>>>>//
  //               DFMP2               //
  //<<<<<<<<<<<<<<<<<<<<<<<<<<<<<<<<<<<//

   => Loading Basis Set <=

    Name: (AUG-CC-PVTZ AUX)
    Role: RIFIT
    Keyword: DF_BASIS_MP2
    atoms 1   entry CL         line   742 file /ddmfs1b/softs/psi4conda/share/psi4/basis/aug-cc-pvtz-ri.gbs 
    atoms 2-3 entry NA         line   610 file /ddmfs1b/softs/psi4conda/share/psi4/basis/def2-qzvpp-ri.gbs 

	 --------------------------------------------------------
	                          DF-MP2                         
	      2nd-Order Density-Fitted Moller-Plesset Theory     
	              RMP2 Wavefunction,  20 Threads             
	                                                         
	        Rob Parrish, Justin Turney, Andy Simmonett,      
	           Ed Hohenstein, and C. David Sherrill          
	 --------------------------------------------------------

   => Auxiliary Basis Set <=

  Basis Set: (AUG-CC-PVTZ AUX)
    Blend: AUG-CC-PVTZ-RI + DEF2-QZVPP-RI
    Number of shells: 121
    Number of basis functions: 479
    Number of Cartesian functions: 619
    Spherical Harmonics?: true
    Max angular momentum: 4

	 --------------------------------------------------------
	                 NBF =   150, NAUX =   479
	 --------------------------------------------------------
	   CLASS    FOCC     OCC    AOCC    AVIR     VIR    FVIR
	   PAIRS       0      10      10     140     140       0
	 --------------------------------------------------------

	-----------------------------------------------------------
	 ==================> DF-MP2 Energies <==================== 
	-----------------------------------------------------------
	 Reference Energy          =    -323.1944888648618530 [Eh]
	 Singles Energy            =      -0.0000000000000000 [Eh]
	 Same-Spin Energy          =      -0.0058832746886239 [Eh]
	 Opposite-Spin Energy      =      -0.0211327681408599 [Eh]
	 Correlation Energy        =      -0.0270160428294838 [Eh]
	 Total Energy              =    -323.2215049076913260 [Eh]
	-----------------------------------------------------------
	 ================> DF-SCS-MP2 Energies <================== 
	-----------------------------------------------------------
	 SCS Same-Spin Scale       =       0.3333333333333333 [-]
	 SCS Opposite-Spin Scale   =       1.2000000000000000 [-]
	 SCS Same-Spin Energy      =      -0.0019610915628746 [Eh]
	 SCS Opposite-Spin Energy  =      -0.0253593217690319 [Eh]
	 SCS Correlation Energy    =      -0.0273204133319065 [Eh]
	 SCS Total Energy          =    -323.2218092781937457 [Eh]
	-----------------------------------------------------------


*** tstop() called on ddmfs1 at Mon Jan 22 04:20:16 2024
Module time:
	user time   =      15.29 seconds =       0.25 minutes
	system time =       1.08 seconds =       0.02 minutes
	total time  =          7 seconds =       0.12 minutes
Total time:
	user time   =     133.27 seconds =       2.22 minutes
	system time =      14.52 seconds =       0.24 minutes
	total time  =         28 seconds =       0.47 minutes

    Psi4 stopped on: Monday, 22 January 2024 04:20AM
    Psi4 wall time for execution: 0:00:09.41


    -----------------------------------------------------------------------
          Psi4: An Open-Source Ab Initio Electronic Structure Package
                               Psi4 1.8.2 release

                         Git: Rev {} zzzzzzz 


    D. G. A. Smith, L. A. Burns, A. C. Simmonett, R. M. Parrish,
    M. C. Schieber, R. Galvelis, P. Kraus, H. Kruse, R. Di Remigio,
    A. Alenaizan, A. M. James, S. Lehtola, J. P. Misiewicz, M. Scheurer,
    R. A. Shaw, J. B. Schriber, Y. Xie, Z. L. Glick, D. A. Sirianni,
    J. S. O'Brien, J. M. Waldrop, A. Kumar, E. G. Hohenstein,
    B. P. Pritchard, B. R. Brooks, H. F. Schaefer III, A. Yu. Sokolov,
    K. Patkowski, A. E. DePrince III, U. Bozkaya, R. A. King,
    F. A. Evangelista, J. M. Turney, T. D. Crawford, C. D. Sherrill,
    J. Chem. Phys. 152(18) 184108 (2020). https://doi.org/10.1063/5.0006002

                            Additional Code Authors
    E. T. Seidl, C. L. Janssen, E. F. Valeev, M. L. Leininger,
    J. F. Gonthier, R. M. Richard, H. R. McAlexander, M. Saitow, X. Wang,
    P. Verma, M. H. Lechner, A. Jiang, S. Behnle, A. G. Heide,
    M. F. Herbst, and D. L. Poole

             Previous Authors, Complete List of Code Contributors,
                       and Citations for Specific Modules
    https://github.com/psi4/psi4/blob/master/codemeta.json
    https://github.com/psi4/psi4/graphs/contributors
    http://psicode.org/psi4manual/master/introduction.html#citing-psifour

    -----------------------------------------------------------------------


    Psi4 started on: Monday, 22 January 2024 04:19AM

    Process ID: 32045
    Host:       ddmfs1
    PSIDATADIR: /ddmfs1b/softs/psi4conda/share/psi4
    Memory:     55.9 GiB
    Threads:    20
    
  ==> Input QCSchema <==

--------------------------------------------------------------------------
{'driver': 'energy',
 'extras': {'psiapi': True, 'wfn_qcvars_only': True},
 'id': None,
 'keywords': {'SCF_TYPE': 'DF', 'function_kwargs': {}},
 'model': {'basis': 'aug-cc-pvtz', 'method': 'mp2'},
 'molecule': {'atom_labels': ['', '', ''],
              'atomic_numbers': [17, 11, 11],
              'extras': {},
              'fix_com': True,
              'fix_orientation': True,
              'fix_symmetry': 'c1',
              'fragment_charges': [-1.0, 0.0, 1.0],
              'fragment_multiplicities': [1, 1, 1],
              'fragments': [[0], [1], [2]],
              'geometry': [0.0, 0.0, 0.0, 0.0, 4.478845559125975, 0.0, 4.478845559125975, 0.0, 0.0],
              'mass_numbers': [35, 23, 23],
              'masses': [34.968852682, 22.989769282, 22.989769282],
              'molecular_charge': 0.0,
              'molecular_multiplicity': 1,
              'name': 'dimer',
              'provenance': {'creator': 'QCElemental',
                             'routine': 'qcelemental.molparse.from_string',
                             'version': '0.26.0'},
              'real': [True, False, True],
              'schema_name': 'qcschema_molecule',
              'schema_version': 2,
              'symbols': ['Cl', 'Na', 'Na'],
              'validated': True},
 'protocols': {'stdout': True},
 'provenance': {'creator': 'QCElemental', 'routine': 'qcelemental.models.results', 'version': '0.26.0'},
 'schema_name': 'qcschema_input',
 'schema_version': 1}
--------------------------------------------------------------------------

Scratch directory: /ddmfs1a/scratch/
   => Libint2 <=

    Primary   basis highest AM E, G, H:  5, 4, 3
    Auxiliary basis highest AM E, G, H:  6, 5, 4
    Onebody   basis highest AM E, G, H:  6, 5, 4
    Solid Harmonics ordering:            gaussian

*** tstart() called on ddmfs1
*** at Mon Jan 22 04:20:16 2024

   => Loading Basis Set <=

    Name: AUG-CC-PVTZ
    Role: ORBITAL
    Keyword: BASIS
    atoms 1   entry CL         line   988 file /ddmfs1b/softs/psi4conda/share/psi4/basis/aug-cc-pvtz.gbs 
    atoms 2-3 entry NA         line   469 file /ddmfs1b/softs/psi4conda/share/psi4/basis/aug-cc-pvtz.gbs 


         ---------------------------------------------------------
                                   SCF
               by Justin Turney, Rob Parrish, Andy Simmonett
                          and Daniel G. A. Smith
                              RHF Reference
                       20 Threads,  57220 MiB Core
         ---------------------------------------------------------

  ==> Geometry <==

    Molecular point group: c1
    Full point group: C1h

    Geometry (in Bohr), charge = 0, multiplicity = 1:

       Center              X                  Y                   Z               Mass       
    ------------   -----------------  -----------------  -----------------  -----------------
         CL           0.000000000000     0.000000000000     0.000000000000    34.968852682000
      Gh(NA)          0.000000000000     4.478845559126     0.000000000000    22.989769282000
         NA           4.478845559126     0.000000000000     0.000000000000    22.989769282000

  Running in c1 symmetry.

  Rotational constants: A =      0.13054  B =      0.13054  C =      0.06527 [cm^-1]
  Rotational constants: A =   3913.34509  B =   3913.34509  C =   1956.67254 [MHz]
  Nuclear repulsion =   41.751830361503281

  Charge       = 0
  Multiplicity = 1
  Electrons    = 28
  Nalpha       = 14
  Nbeta        = 14

  ==> Algorithm <==

  SCF Algorithm Type is DF.
  DIIS enabled.
  MOM disabled.
  Fractional occupation disabled.
  Guess Type is SAD.
  Energy threshold   = 1.00e-08
  Density threshold  = 1.00e-08
  Integral threshold = 1.00e-12

  ==> Primary Basis <==

  Basis Set: AUG-CC-PVTZ
    Blend: AUG-CC-PVTZ
    Number of shells: 48
    Number of basis functions: 150
    Number of Cartesian functions: 177
    Spherical Harmonics?: true
    Max angular momentum: 3

   => Loading Basis Set <=

    Name: (AUG-CC-PVTZ AUX)
    Role: JKFIT
    Keyword: DF_BASIS_SCF
    atoms 1   entry CL         line   816 file /ddmfs1b/softs/psi4conda/share/psi4/basis/aug-cc-pvtz-jkfit.gbs 
    atoms 2-3 entry NA         line   498 file /ddmfs1b/softs/psi4conda/share/psi4/basis/def2-universal-jkfit.gbs 

  ==> Integral Setup <==

  DFHelper Memory: AOs need 0.071 GiB; user supplied 41.910 GiB. 
  Using in-core AOs.

  ==> MemDFJK: Density-Fitted J/K Matrices <==

    J tasked:                   Yes
    K tasked:                   Yes
    wK tasked:                   No
    OpenMP threads:              20
    Memory [MiB]:             42915
    Algorithm:                 Core
    Schwarz Cutoff:           1E-12
    Mask sparsity (%):       0.0000
    Fitting Condition:        1E-10

   => Auxiliary Basis Set <=

  Basis Set: (AUG-CC-PVTZ AUX)
    Blend: AUG-CC-PVTZ-JKFIT + DEF2-UNIVERSAL-JKFIT
    Number of shells: 110
    Number of basis functions: 370
    Number of Cartesian functions: 454
    Spherical Harmonics?: true
    Max angular momentum: 4

  Minimum eigenvalue in the overlap matrix is 3.2064843780E-05.
  Reciprocal condition number of the overlap matrix is 4.2145878892E-06.
    Using symmetric orthogonalization.

  ==> Pre-Iterations <==

  SCF Guess: Superposition of Atomic Densities via on-the-fly atomic UHF (no occupation information).

   -------------------------
    Irrep   Nso     Nmo    
   -------------------------
     A        150     150 
   -------------------------
    Total     150     150
   -------------------------

  ==> Iterations <==

                           Total Energy        Delta E     RMS |[F,P]|

   @DF-RHF iter SAD:  -620.93810358830467   -6.20938e+02   0.00000e+00 
   @DF-RHF iter   1:  -621.40312083122888   -4.65017e-01   1.93403e-03 DIIS/ADIIS
   @DF-RHF iter   2:  -621.44817382862823   -4.50530e-02   9.08652e-04 DIIS/ADIIS
   @DF-RHF iter   3:  -621.45485449591990   -6.68067e-03   5.98219e-05 DIIS
   @DF-RHF iter   4:  -621.45490905671727   -5.45608e-05   1.29427e-05 DIIS
   @DF-RHF iter   5:  -621.45491421995598   -5.16324e-06   3.36181e-06 DIIS
   @DF-RHF iter   6:  -621.45491460460698   -3.84651e-07   9.88105e-07 DIIS
   @DF-RHF iter   7:  -621.45491466930719   -6.47002e-08   1.81247e-07 DIIS
   @DF-RHF iter   8:  -621.45491467144723   -2.14004e-09   2.98763e-08 DIIS
   @DF-RHF iter   9:  -621.45491467149805   -5.08180e-11   5.78314e-09 DIIS
  Energy and wave function converged.


  ==> Post-Iterations <==

    Orbital Energies [Eh]
    ---------------------

    Doubly Occupied:                                                      

       1A   -104.703547     2A    -40.499732     3A    -10.428606  
       4A     -7.894818     5A     -7.894520     6A     -7.894506  
       7A     -2.821593     8A     -1.544554     9A     -1.544469  
      10A     -1.544082    11A     -0.941558    12A     -0.369231  
      13A     -0.352942    14A     -0.352903  

    Virtual:                                                              

      15A     -0.020512    16A      0.008540    17A      0.010700  
      18A      0.011175    19A      0.016526    20A      0.023644  
      21A      0.026416    22A      0.031240    23A      0.036572  
      24A      0.040606    25A      0.043928    26A      0.054251  
      27A      0.060292    28A      0.062974    29A      0.064220  
      30A      0.071782    31A      0.072624    32A      0.077361  
      33A      0.083119    34A      0.087668    35A      0.093643  
      36A      0.095497    37A      0.102278    38A      0.109205  
      39A      0.112268    40A      0.113392    41A      0.122225  
      42A      0.122939    43A      0.142508    44A      0.166216  
      45A      0.171249    46A      0.185328    47A      0.189189  
      48A      0.208762    49A      0.209718    50A      0.212321  
      51A      0.212606    52A      0.229943    53A      0.236809  
      54A      0.247542    55A      0.254247    56A      0.259053  
      57A      0.266832    58A      0.277784    59A      0.285853  
      60A      0.289127    61A      0.300516    62A      0.305921  
      63A      0.310131    64A      0.313914    65A      0.315850  
      66A      0.319526    67A      0.341427    68A      0.344747  
      69A      0.350247    70A      0.351378    71A      0.365676  
      72A      0.370118    73A      0.393512    74A      0.394323  
      75A      0.421454    76A      0.421939    77A      0.437956  
      78A      0.455104    79A      0.493263    80A      0.503532  
      81A      0.524872    82A      0.528413    83A      0.539382  
      84A      0.563137    85A      0.568507    86A      0.579526  
      87A      0.598457    88A      0.617125    89A      0.637600  
      90A      0.640188    91A      0.668906    92A      0.677736  
      93A      0.690025    94A      0.697097    95A      0.720643  
      96A      0.746720    97A      0.757689    98A      0.760680  
      99A      0.778639   100A      0.788805   101A      0.797999  
     102A      0.806083   103A      0.829705   104A      0.831718  
     105A      0.862595   106A      0.872403   107A      0.906857  
     108A      0.931303   109A      0.954246   110A      0.969599  
     111A      0.970117   112A      1.042395   113A      1.071327  
     114A      1.126070   115A      1.175574   116A      1.175823  
     117A      1.224343   118A      1.234994   119A      1.280935  
     120A      1.367161   121A      1.449031   122A      1.457161  
     123A      1.587026   124A      1.603270   125A      1.643936  
     126A      1.648633   127A      1.751260   128A      2.063084  
     129A      2.392210   130A      2.737259   131A      2.741037  
     132A      2.787418   133A      2.808428   134A      2.941697  
     135A      2.964106   136A      3.096721   137A      3.149260  
     138A      3.268633   139A      3.280144   140A      3.331816  
     141A      3.378586   142A      3.397962   143A      3.417920  
     144A      3.442716   145A      4.861202   146A      6.403040  
     147A      6.494838   148A      6.799341   149A      7.504176  
     150A     64.556952  

    Final Occupation by Irrep:
              A 
    DOCC [    14 ]
    NA   [    14 ]
    NB   [    14 ]

  @DF-RHF Final Energy:  -621.45491467149805

   => Energetics <=

    Nuclear Repulsion Energy =             41.7518303615032806
    One-Electron Energy =                -948.8393691167636916
    Two-Electron Energy =                 285.6326240837624368
    Total Energy =                       -621.4549146714980452

Computation Completed


Properties will be evaluated at   0.000000,   0.000000,   0.000000 [a0]

Properties computed using the SCF density matrix


 Multipole Moments:

 ------------------------------------------------------------------------------------
     Multipole            Electronic (a.u.)      Nuclear  (a.u.)        Total (a.u.)
 ------------------------------------------------------------------------------------

 L = 1.  Multiply by 2.5417464519 to convert [e a0] to [Debye]
 Dipole X            :        -45.5839055           49.2673012            3.6833956
 Dipole Y            :          0.0004469            0.0000000            0.0004469
 Dipole Z            :          0.0000000            0.0000000            0.0000000
 Magnitude           :                                                    3.6833956

 ------------------------------------------------------------------------------------

*** tstop() called on ddmfs1 at Mon Jan 22 04:20:19 2024
Module time:
	user time   =      33.10 seconds =       0.55 minutes
	system time =       4.50 seconds =       0.07 minutes
	total time  =          3 seconds =       0.05 minutes
Total time:
	user time   =     167.50 seconds =       2.79 minutes
	system time =      19.07 seconds =       0.32 minutes
	total time  =         31 seconds =       0.52 minutes

*** tstart() called on ddmfs1
*** at Mon Jan 22 04:20:19 2024


  //>>>>>>>>>>>>>>>>>>>>>>>>>>>>>>>>>>>//
  //               DFMP2               //
  //<<<<<<<<<<<<<<<<<<<<<<<<<<<<<<<<<<<//

   => Loading Basis Set <=

    Name: (AUG-CC-PVTZ AUX)
    Role: RIFIT
    Keyword: DF_BASIS_MP2
    atoms 1   entry CL         line   742 file /ddmfs1b/softs/psi4conda/share/psi4/basis/aug-cc-pvtz-ri.gbs 
    atoms 2-3 entry NA         line   610 file /ddmfs1b/softs/psi4conda/share/psi4/basis/def2-qzvpp-ri.gbs 

	 --------------------------------------------------------
	                          DF-MP2                         
	      2nd-Order Density-Fitted Moller-Plesset Theory     
	              RMP2 Wavefunction,  20 Threads             
	                                                         
	        Rob Parrish, Justin Turney, Andy Simmonett,      
	           Ed Hohenstein, and C. David Sherrill          
	 --------------------------------------------------------

   => Auxiliary Basis Set <=

  Basis Set: (AUG-CC-PVTZ AUX)
    Blend: AUG-CC-PVTZ-RI + DEF2-QZVPP-RI
    Number of shells: 121
    Number of basis functions: 479
    Number of Cartesian functions: 619
    Spherical Harmonics?: true
    Max angular momentum: 4

	 --------------------------------------------------------
	                 NBF =   150, NAUX =   479
	 --------------------------------------------------------
	   CLASS    FOCC     OCC    AOCC    AVIR     VIR    FVIR
	   PAIRS       0      14      14     136     136       0
	 --------------------------------------------------------

	-----------------------------------------------------------
	 ==================> DF-MP2 Energies <==================== 
	-----------------------------------------------------------
	 Reference Energy          =    -621.4549146714980452 [Eh]
	 Singles Energy            =      -0.0000000000000000 [Eh]
	 Same-Spin Energy          =      -0.0659746866095405 [Eh]
	 Opposite-Spin Energy      =      -0.1911785047422949 [Eh]
	 Correlation Energy        =      -0.2571531913518353 [Eh]
	 Total Energy              =    -621.7120678628498354 [Eh]
	-----------------------------------------------------------
	 ================> DF-SCS-MP2 Energies <================== 
	-----------------------------------------------------------
	 SCS Same-Spin Scale       =       0.3333333333333333 [-]
	 SCS Opposite-Spin Scale   =       1.2000000000000000 [-]
	 SCS Same-Spin Energy      =      -0.0219915622031802 [Eh]
	 SCS Opposite-Spin Energy  =      -0.2294142056907539 [Eh]
	 SCS Correlation Energy    =      -0.2514057678939340 [Eh]
	 SCS Total Energy          =    -621.7063204393920159 [Eh]
	-----------------------------------------------------------


*** tstop() called on ddmfs1 at Mon Jan 22 04:20:26 2024
Module time:
	user time   =      15.61 seconds =       0.26 minutes
	system time =       0.95 seconds =       0.02 minutes
	total time  =          7 seconds =       0.12 minutes
Total time:
	user time   =     183.13 seconds =       3.05 minutes
	system time =      20.02 seconds =       0.33 minutes
	total time  =         38 seconds =       0.63 minutes

    Psi4 stopped on: Monday, 22 January 2024 04:20AM
    Psi4 wall time for execution: 0:00:09.68


    -----------------------------------------------------------------------
          Psi4: An Open-Source Ab Initio Electronic Structure Package
                               Psi4 1.8.2 release

                         Git: Rev {} zzzzzzz 


    D. G. A. Smith, L. A. Burns, A. C. Simmonett, R. M. Parrish,
    M. C. Schieber, R. Galvelis, P. Kraus, H. Kruse, R. Di Remigio,
    A. Alenaizan, A. M. James, S. Lehtola, J. P. Misiewicz, M. Scheurer,
    R. A. Shaw, J. B. Schriber, Y. Xie, Z. L. Glick, D. A. Sirianni,
    J. S. O'Brien, J. M. Waldrop, A. Kumar, E. G. Hohenstein,
    B. P. Pritchard, B. R. Brooks, H. F. Schaefer III, A. Yu. Sokolov,
    K. Patkowski, A. E. DePrince III, U. Bozkaya, R. A. King,
    F. A. Evangelista, J. M. Turney, T. D. Crawford, C. D. Sherrill,
    J. Chem. Phys. 152(18) 184108 (2020). https://doi.org/10.1063/5.0006002

                            Additional Code Authors
    E. T. Seidl, C. L. Janssen, E. F. Valeev, M. L. Leininger,
    J. F. Gonthier, R. M. Richard, H. R. McAlexander, M. Saitow, X. Wang,
    P. Verma, M. H. Lechner, A. Jiang, S. Behnle, A. G. Heide,
    M. F. Herbst, and D. L. Poole

             Previous Authors, Complete List of Code Contributors,
                       and Citations for Specific Modules
    https://github.com/psi4/psi4/blob/master/codemeta.json
    https://github.com/psi4/psi4/graphs/contributors
    http://psicode.org/psi4manual/master/introduction.html#citing-psifour

    -----------------------------------------------------------------------


    Psi4 started on: Monday, 22 January 2024 04:19AM

    Process ID: 32045
    Host:       ddmfs1
    PSIDATADIR: /ddmfs1b/softs/psi4conda/share/psi4
    Memory:     55.9 GiB
    Threads:    20
    
  ==> Input QCSchema <==

--------------------------------------------------------------------------
{'driver': 'energy',
 'extras': {'psiapi': True, 'wfn_qcvars_only': True},
 'id': None,
 'keywords': {'SCF_TYPE': 'DF', 'function_kwargs': {}},
 'model': {'basis': 'aug-cc-pvtz', 'method': 'mp2'},
 'molecule': {'atom_labels': ['', '', ''],
              'atomic_numbers': [17, 11, 11],
              'extras': {},
              'fix_com': True,
              'fix_orientation': True,
              'fix_symmetry': 'c1',
              'fragment_charges': [-1.0, 1.0, 0.0],
              'fragment_multiplicities': [1, 1, 1],
              'fragments': [[0], [1], [2]],
              'geometry': [0.0, 0.0, 0.0, 0.0, 4.478845559125975, 0.0, 4.478845559125975, 0.0, 0.0],
              'mass_numbers': [35, 23, 23],
              'masses': [34.968852682, 22.989769282, 22.989769282],
              'molecular_charge': 0.0,
              'molecular_multiplicity': 1,
              'name': 'dimer',
              'provenance': {'creator': 'QCElemental',
                             'routine': 'qcelemental.molparse.from_string',
                             'version': '0.26.0'},
              'real': [True, True, False],
              'schema_name': 'qcschema_molecule',
              'schema_version': 2,
              'symbols': ['Cl', 'Na', 'Na'],
              'validated': True},
 'protocols': {'stdout': True},
 'provenance': {'creator': 'QCElemental', 'routine': 'qcelemental.models.results', 'version': '0.26.0'},
 'schema_name': 'qcschema_input',
 'schema_version': 1}
--------------------------------------------------------------------------

Scratch directory: /ddmfs1a/scratch/
   => Libint2 <=

    Primary   basis highest AM E, G, H:  5, 4, 3
    Auxiliary basis highest AM E, G, H:  6, 5, 4
    Onebody   basis highest AM E, G, H:  6, 5, 4
    Solid Harmonics ordering:            gaussian

*** tstart() called on ddmfs1
*** at Mon Jan 22 04:20:26 2024

   => Loading Basis Set <=

    Name: AUG-CC-PVTZ
    Role: ORBITAL
    Keyword: BASIS
    atoms 1   entry CL         line   988 file /ddmfs1b/softs/psi4conda/share/psi4/basis/aug-cc-pvtz.gbs 
    atoms 2-3 entry NA         line   469 file /ddmfs1b/softs/psi4conda/share/psi4/basis/aug-cc-pvtz.gbs 


         ---------------------------------------------------------
                                   SCF
               by Justin Turney, Rob Parrish, Andy Simmonett
                          and Daniel G. A. Smith
                              RHF Reference
                       20 Threads,  57220 MiB Core
         ---------------------------------------------------------

  ==> Geometry <==

    Molecular point group: c1
    Full point group: C1h

    Geometry (in Bohr), charge = 0, multiplicity = 1:

       Center              X                  Y                   Z               Mass       
    ------------   -----------------  -----------------  -----------------  -----------------
         CL           0.000000000000     0.000000000000     0.000000000000    34.968852682000
         NA           0.000000000000     4.478845559126     0.000000000000    22.989769282000
      Gh(NA)          4.478845559126     0.000000000000     0.000000000000    22.989769282000

  Running in c1 symmetry.

  Rotational constants: A =      0.13054  B =      0.13054  C =      0.06527 [cm^-1]
  Rotational constants: A =   3913.34509  B =   3913.34509  C =   1956.67254 [MHz]
  Nuclear repulsion =   41.751830361503281

  Charge       = 0
  Multiplicity = 1
  Electrons    = 28
  Nalpha       = 14
  Nbeta        = 14

  ==> Algorithm <==

  SCF Algorithm Type is DF.
  DIIS enabled.
  MOM disabled.
  Fractional occupation disabled.
  Guess Type is SAD.
  Energy threshold   = 1.00e-08
  Density threshold  = 1.00e-08
  Integral threshold = 1.00e-12

  ==> Primary Basis <==

  Basis Set: AUG-CC-PVTZ
    Blend: AUG-CC-PVTZ
    Number of shells: 48
    Number of basis functions: 150
    Number of Cartesian functions: 177
    Spherical Harmonics?: true
    Max angular momentum: 3

   => Loading Basis Set <=

    Name: (AUG-CC-PVTZ AUX)
    Role: JKFIT
    Keyword: DF_BASIS_SCF
    atoms 1   entry CL         line   816 file /ddmfs1b/softs/psi4conda/share/psi4/basis/aug-cc-pvtz-jkfit.gbs 
    atoms 2-3 entry NA         line   498 file /ddmfs1b/softs/psi4conda/share/psi4/basis/def2-universal-jkfit.gbs 

  ==> Integral Setup <==

  DFHelper Memory: AOs need 0.071 GiB; user supplied 41.910 GiB. 
  Using in-core AOs.

  ==> MemDFJK: Density-Fitted J/K Matrices <==

    J tasked:                   Yes
    K tasked:                   Yes
    wK tasked:                   No
    OpenMP threads:              20
    Memory [MiB]:             42915
    Algorithm:                 Core
    Schwarz Cutoff:           1E-12
    Mask sparsity (%):       0.0000
    Fitting Condition:        1E-10

   => Auxiliary Basis Set <=

  Basis Set: (AUG-CC-PVTZ AUX)
    Blend: AUG-CC-PVTZ-JKFIT + DEF2-UNIVERSAL-JKFIT
    Number of shells: 110
    Number of basis functions: 370
    Number of Cartesian functions: 454
    Spherical Harmonics?: true
    Max angular momentum: 4

  Minimum eigenvalue in the overlap matrix is 3.2064843780E-05.
  Reciprocal condition number of the overlap matrix is 4.2145878892E-06.
    Using symmetric orthogonalization.

  ==> Pre-Iterations <==

  SCF Guess: Superposition of Atomic Densities via on-the-fly atomic UHF (no occupation information).

   -------------------------
    Irrep   Nso     Nmo    
   -------------------------
     A        150     150 
   -------------------------
    Total     150     150
   -------------------------

  ==> Iterations <==

                           Total Energy        Delta E     RMS |[F,P]|

   @DF-RHF iter SAD:  -620.93810358833525   -6.20938e+02   0.00000e+00 
   @DF-RHF iter   1:  -621.40312083125980   -4.65017e-01   1.93403e-03 DIIS/ADIIS
   @DF-RHF iter   2:  -621.44817382865949   -4.50530e-02   9.08652e-04 DIIS/ADIIS
   @DF-RHF iter   3:  -621.45485449594980   -6.68067e-03   5.98219e-05 DIIS
   @DF-RHF iter   4:  -621.45490905674740   -5.45608e-05   1.29427e-05 DIIS
   @DF-RHF iter   5:  -621.45491421998702   -5.16324e-06   3.36181e-06 DIIS
   @DF-RHF iter   6:  -621.45491460463757   -3.84651e-07   9.88105e-07 DIIS
   @DF-RHF iter   7:  -621.45491466933629   -6.46987e-08   1.81247e-07 DIIS
   @DF-RHF iter   8:  -621.45491467147826   -2.14197e-09   2.98763e-08 DIIS
   @DF-RHF iter   9:  -621.45491467152829   -5.00222e-11   5.78314e-09 DIIS
  Energy and wave function converged.


  ==> Post-Iterations <==

    Orbital Energies [Eh]
    ---------------------

    Doubly Occupied:                                                      

       1A   -104.703547     2A    -40.499732     3A    -10.428606  
       4A     -7.894818     5A     -7.894520     6A     -7.894506  
       7A     -2.821593     8A     -1.544554     9A     -1.544469  
      10A     -1.544082    11A     -0.941558    12A     -0.369231  
      13A     -0.352942    14A     -0.352903  

    Virtual:                                                              

      15A     -0.020512    16A      0.008540    17A      0.010700  
      18A      0.011175    19A      0.016526    20A      0.023644  
      21A      0.026416    22A      0.031240    23A      0.036572  
      24A      0.040606    25A      0.043928    26A      0.054251  
      27A      0.060292    28A      0.062974    29A      0.064220  
      30A      0.071782    31A      0.072624    32A      0.077361  
      33A      0.083119    34A      0.087668    35A      0.093643  
      36A      0.095497    37A      0.102278    38A      0.109205  
      39A      0.112268    40A      0.113392    41A      0.122225  
      42A      0.122939    43A      0.142508    44A      0.166216  
      45A      0.171249    46A      0.185328    47A      0.189189  
      48A      0.208762    49A      0.209718    50A      0.212321  
      51A      0.212606    52A      0.229943    53A      0.236809  
      54A      0.247542    55A      0.254247    56A      0.259053  
      57A      0.266832    58A      0.277784    59A      0.285853  
      60A      0.289127    61A      0.300516    62A      0.305921  
      63A      0.310131    64A      0.313914    65A      0.315850  
      66A      0.319526    67A      0.341427    68A      0.344747  
      69A      0.350247    70A      0.351378    71A      0.365676  
      72A      0.370118    73A      0.393512    74A      0.394323  
      75A      0.421454    76A      0.421939    77A      0.437956  
      78A      0.455104    79A      0.493263    80A      0.503532  
[...]
    Number of Cartesian functions: 619
    Spherical Harmonics?: true
    Max angular momentum: 4

	 --------------------------------------------------------
	                 NBF =   150, NAUX =   479
	 --------------------------------------------------------
	   CLASS    FOCC     OCC    AOCC    AVIR     VIR    FVIR
	   PAIRS       0       5       5     145     145       0
	 --------------------------------------------------------

	-----------------------------------------------------------
	 ==================> DF-MP2 Energies <==================== 
	-----------------------------------------------------------
	 Reference Energy          =    -161.6760448483758523 [Eh]
	 Singles Energy            =      -0.0000000000000000 [Eh]
	 Same-Spin Energy          =      -0.0029187786066821 [Eh]
	 Opposite-Spin Energy      =      -0.0105093832715608 [Eh]
	 Correlation Energy        =      -0.0134281618782429 [Eh]
	 Total Energy              =    -161.6894730102540905 [Eh]
	-----------------------------------------------------------
	 ================> DF-SCS-MP2 Energies <================== 
	-----------------------------------------------------------
	 SCS Same-Spin Scale       =       0.3333333333333333 [-]
	 SCS Opposite-Spin Scale   =       1.2000000000000000 [-]
	 SCS Same-Spin Energy      =      -0.0009729262022274 [Eh]
	 SCS Opposite-Spin Energy  =      -0.0126112599258729 [Eh]
	 SCS Correlation Energy    =      -0.0135841861281003 [Eh]
	 SCS Total Energy          =    -161.6896290345039517 [Eh]
	-----------------------------------------------------------


*** tstop() called on ddmfs1 at Mon Jan 22 04:20:45 2024
Module time:
	user time   =      15.13 seconds =       0.25 minutes
	system time =       0.94 seconds =       0.02 minutes
	total time  =          7 seconds =       0.12 minutes
Total time:
	user time   =     276.60 seconds =       4.61 minutes
	system time =      30.40 seconds =       0.51 minutes
	total time  =         57 seconds =       0.95 minutes

    Psi4 stopped on: Monday, 22 January 2024 04:20AM
    Psi4 wall time for execution: 0:00:09.34


    -----------------------------------------------------------------------
          Psi4: An Open-Source Ab Initio Electronic Structure Package
                               Psi4 1.8.2 release

                         Git: Rev {} zzzzzzz 


    D. G. A. Smith, L. A. Burns, A. C. Simmonett, R. M. Parrish,
    M. C. Schieber, R. Galvelis, P. Kraus, H. Kruse, R. Di Remigio,
    A. Alenaizan, A. M. James, S. Lehtola, J. P. Misiewicz, M. Scheurer,
    R. A. Shaw, J. B. Schriber, Y. Xie, Z. L. Glick, D. A. Sirianni,
    J. S. O'Brien, J. M. Waldrop, A. Kumar, E. G. Hohenstein,
    B. P. Pritchard, B. R. Brooks, H. F. Schaefer III, A. Yu. Sokolov,
    K. Patkowski, A. E. DePrince III, U. Bozkaya, R. A. King,
    F. A. Evangelista, J. M. Turney, T. D. Crawford, C. D. Sherrill,
    J. Chem. Phys. 152(18) 184108 (2020). https://doi.org/10.1063/5.0006002

                            Additional Code Authors
    E. T. Seidl, C. L. Janssen, E. F. Valeev, M. L. Leininger,
    J. F. Gonthier, R. M. Richard, H. R. McAlexander, M. Saitow, X. Wang,
    P. Verma, M. H. Lechner, A. Jiang, S. Behnle, A. G. Heide,
    M. F. Herbst, and D. L. Poole

             Previous Authors, Complete List of Code Contributors,
                       and Citations for Specific Modules
    https://github.com/psi4/psi4/blob/master/codemeta.json
    https://github.com/psi4/psi4/graphs/contributors
    http://psicode.org/psi4manual/master/introduction.html#citing-psifour

    -----------------------------------------------------------------------


    Psi4 started on: Monday, 22 January 2024 04:19AM

    Process ID: 32045
    Host:       ddmfs1
    PSIDATADIR: /ddmfs1b/softs/psi4conda/share/psi4
    Memory:     55.9 GiB
    Threads:    20
    
  ==> Input QCSchema <==

--------------------------------------------------------------------------
{'driver': 'energy',
 'extras': {'psiapi': True, 'wfn_qcvars_only': True},
 'id': None,
 'keywords': {'SCF_TYPE': 'DF', 'function_kwargs': {}},
 'model': {'basis': 'aug-cc-pvtz', 'method': 'mp2'},
 'molecule': {'atom_labels': ['', '', ''],
              'atomic_numbers': [17, 11, 11],
              'extras': {},
              'fix_com': True,
              'fix_orientation': True,
              'fix_symmetry': 'c1',
              'fragment_charges': [-1.0, 1.0, 1.0],
              'fragment_multiplicities': [1, 1, 1],
              'fragments': [[0], [1], [2]],
              'geometry': [0.0, 0.0, 0.0, 0.0, 4.478845559125975, 0.0, 4.478845559125975, 0.0, 0.0],
              'mass_numbers': [35, 23, 23],
              'masses': [34.968852682, 22.989769282, 22.989769282],
              'molecular_charge': 1.0,
              'molecular_multiplicity': 1,
              'name': 'dimer',
              'provenance': {'creator': 'QCElemental',
                             'routine': 'qcelemental.molparse.from_string',
                             'version': '0.26.0'},
              'real': [True, True, True],
              'schema_name': 'qcschema_molecule',
              'schema_version': 2,
              'symbols': ['Cl', 'Na', 'Na'],
              'validated': True},
 'protocols': {'stdout': True},
 'provenance': {'creator': 'QCElemental', 'routine': 'qcelemental.models.results', 'version': '0.26.0'},
 'schema_name': 'qcschema_input',
 'schema_version': 1}
--------------------------------------------------------------------------

Scratch directory: /ddmfs1a/scratch/
   => Libint2 <=

    Primary   basis highest AM E, G, H:  5, 4, 3
    Auxiliary basis highest AM E, G, H:  6, 5, 4
    Onebody   basis highest AM E, G, H:  6, 5, 4
    Solid Harmonics ordering:            gaussian

*** tstart() called on ddmfs1
*** at Mon Jan 22 04:20:45 2024

   => Loading Basis Set <=

    Name: AUG-CC-PVTZ
    Role: ORBITAL
    Keyword: BASIS
    atoms 1   entry CL         line   988 file /ddmfs1b/softs/psi4conda/share/psi4/basis/aug-cc-pvtz.gbs 
    atoms 2-3 entry NA         line   469 file /ddmfs1b/softs/psi4conda/share/psi4/basis/aug-cc-pvtz.gbs 


         ---------------------------------------------------------
                                   SCF
               by Justin Turney, Rob Parrish, Andy Simmonett
                          and Daniel G. A. Smith
                              RHF Reference
                       20 Threads,  57220 MiB Core
         ---------------------------------------------------------

  ==> Geometry <==

    Molecular point group: c1
    Full point group: D1

    Geometry (in Bohr), charge = 1, multiplicity = 1:

       Center              X                  Y                   Z               Mass       
    ------------   -----------------  -----------------  -----------------  -----------------
         CL           0.000000000000     0.000000000000     0.000000000000    34.968852682000
         NA           0.000000000000     4.478845559126     0.000000000000    22.989769282000
         NA           4.478845559126     0.000000000000     0.000000000000    22.989769282000

  Running in c1 symmetry.

  Rotational constants: A =      0.13054  B =      0.13054  C =      0.06527 [cm^-1]
  Rotational constants: A =   3913.34509  B =   3913.34509  C =   1956.67254 [MHz]
  Nuclear repulsion =  102.606779907198501

  Charge       = 1
  Multiplicity = 1
  Electrons    = 38
  Nalpha       = 19
  Nbeta        = 19

  ==> Algorithm <==

  SCF Algorithm Type is DF.
  DIIS enabled.
  MOM disabled.
  Fractional occupation disabled.
  Guess Type is SAD.
  Energy threshold   = 1.00e-08
  Density threshold  = 1.00e-08
  Integral threshold = 1.00e-12

  ==> Primary Basis <==

  Basis Set: AUG-CC-PVTZ
    Blend: AUG-CC-PVTZ
    Number of shells: 48
    Number of basis functions: 150
    Number of Cartesian functions: 177
    Spherical Harmonics?: true
    Max angular momentum: 3

   => Loading Basis Set <=

    Name: (AUG-CC-PVTZ AUX)
    Role: JKFIT
    Keyword: DF_BASIS_SCF
    atoms 1   entry CL         line   816 file /ddmfs1b/softs/psi4conda/share/psi4/basis/aug-cc-pvtz-jkfit.gbs 
    atoms 2-3 entry NA         line   498 file /ddmfs1b/softs/psi4conda/share/psi4/basis/def2-universal-jkfit.gbs 

  ==> Integral Setup <==

  DFHelper Memory: AOs need 0.071 GiB; user supplied 41.910 GiB. 
  Using in-core AOs.

  ==> MemDFJK: Density-Fitted J/K Matrices <==

    J tasked:                   Yes
    K tasked:                   Yes
    wK tasked:                   No
    OpenMP threads:              20
    Memory [MiB]:             42915
    Algorithm:                 Core
    Schwarz Cutoff:           1E-12
    Mask sparsity (%):       0.0000
    Fitting Condition:        1E-10

   => Auxiliary Basis Set <=

  Basis Set: (AUG-CC-PVTZ AUX)
    Blend: AUG-CC-PVTZ-JKFIT + DEF2-UNIVERSAL-JKFIT
    Number of shells: 110
    Number of basis functions: 370
    Number of Cartesian functions: 454
    Spherical Harmonics?: true
    Max angular momentum: 4

  Minimum eigenvalue in the overlap matrix is 3.2064843780E-05.
  Reciprocal condition number of the overlap matrix is 4.2145878892E-06.
    Using symmetric orthogonalization.

  ==> Pre-Iterations <==

  SCF Guess: Superposition of Atomic Densities via on-the-fly atomic UHF (no occupation information).

   -------------------------
    Irrep   Nso     Nmo    
   -------------------------
     A        150     150 
   -------------------------
    Total     150     150
   -------------------------

  ==> Iterations <==

                           Total Energy        Delta E     RMS |[F,P]|

   @DF-RHF iter SAD:  -782.78079798229862   -7.82781e+02   0.00000e+00 
   @DF-RHF iter   1:  -783.13297425358496   -3.52176e-01   1.87821e-03 DIIS/ADIIS
   @DF-RHF iter   2:  -783.17322113304419   -4.02469e-02   8.19934e-04 DIIS/ADIIS
   @DF-RHF iter   3:  -783.17852471505910   -5.30358e-03   5.57562e-05 DIIS
   @DF-RHF iter   4:  -783.17858422124345   -5.95062e-05   1.36473e-05 DIIS
   @DF-RHF iter   5:  -783.17859064764889   -6.42641e-06   3.93258e-06 DIIS
   @DF-RHF iter   6:  -783.17859114938494   -5.01736e-07   1.07118e-06 DIIS
   @DF-RHF iter   7:  -783.17859121683853   -6.74536e-08   1.84428e-07 DIIS
   @DF-RHF iter   8:  -783.17859121872527   -1.88675e-09   3.17746e-08 DIIS
   @DF-RHF iter   9:  -783.17859121877416   -4.88853e-11   5.92787e-09 DIIS
  Energy and wave function converged.


  ==> Post-Iterations <==

    Orbital Energies [Eh]
    ---------------------

    Doubly Occupied:                                                      

       1A   -104.903213     2A    -40.661079     3A    -40.661079  
       4A    -10.629940     5A     -8.096051     6A     -8.095942  
       7A     -8.095684     8A     -2.982331     9A     -2.982280  
      10A     -1.706655    11A     -1.705566    12A     -1.705412  
      13A     -1.705028    14A     -1.705018    15A     -1.704937  
      16A     -1.151024    17A     -0.574269    18A     -0.571956  
      19A     -0.556818  

    Virtual:                                                              

      20A     -0.151264    21A     -0.116700    22A     -0.091449  
      23A     -0.084966    24A     -0.067301    25A     -0.063711  
      26A     -0.057467    27A     -0.057004    28A     -0.050074  
      29A     -0.043627    30A     -0.039814    31A     -0.033237  
      32A     -0.032511    33A     -0.030152    34A     -0.028199  
      35A     -0.026342    36A     -0.022093    37A     -0.017791  
      38A     -0.014189    39A     -0.012364    40A     -0.011031  
      41A     -0.008799    42A     -0.003124    43A      0.005237  
      44A      0.009750    45A      0.009863    46A      0.017830  
      47A      0.018709    48A      0.025317    49A      0.029203  
      50A      0.038661    51A      0.054191    52A      0.065778  
      53A      0.075834    54A      0.076806    55A      0.081947  
      56A      0.083125    57A      0.096174    58A      0.096917  
      59A      0.106542    60A      0.107865    61A      0.117744  
      62A      0.127011    63A      0.136108    64A      0.137340  
      65A      0.139056    66A      0.153608    67A      0.162914  
      68A      0.163573    69A      0.171224    70A      0.181600  
      71A      0.181965    72A      0.184149    73A      0.194585  
      74A      0.195187    75A      0.205319    76A      0.209667  
      77A      0.223669    78A      0.223930    79A      0.236795  
      80A      0.239836    81A      0.259639    82A      0.286876  
      83A      0.287432    84A      0.324099    85A      0.336430  
      86A      0.339117    87A      0.354084    88A      0.361717  
      89A      0.391120    90A      0.395142    91A      0.405363  
      92A      0.413720    93A      0.454868    94A      0.466258  
      95A      0.466806    96A      0.470881    97A      0.472738  
      98A      0.473653    99A      0.503600   100A      0.504450  
     101A      0.511650   102A      0.536077   103A      0.537459  
     104A      0.556852   105A      0.561047   106A      0.589316  
     107A      0.595422   108A      0.610568   109A      0.618517  
     110A      0.630311   111A      0.670759   112A      0.692301  
     113A      0.731107   114A      0.740986   115A      0.741134  
     116A      0.757377   117A      0.797760   118A      0.868610  
     119A      0.972438   120A      0.980740   121A      1.018262  
     122A      1.020475   123A      1.072153   124A      1.146104  
     125A      1.188551   126A      1.243242   127A      1.375033  
     128A      1.388929   129A      1.427287   130A      1.432514  
     131A      1.517170   132A      1.693695   133A      2.036809  
     134A      2.381657   135A      2.538601   136A      2.540307  
     137A      2.585306   138A      2.602875   139A      2.762478  
     140A      2.766320   141A      2.895998   142A      2.958374  
     143A      3.074656   144A      3.089519   145A      3.149070  
     146A      3.175630   147A      3.209281   148A      3.231296  
     149A      3.259195   150A      6.801092  

    Final Occupation by Irrep:
              A 
    DOCC [    19 ]
    NA   [    19 ]
    NB   [    19 ]

  @DF-RHF Final Energy:  -783.17859121877416

   => Energetics <=

    Nuclear Repulsion Energy =            102.6067799071985007
    One-Electron Energy =               -1291.1821802502759056
    Two-Electron Energy =                 405.3968091243033314
    Total Energy =                       -783.1785912187741587

Computation Completed


Properties will be evaluated at   0.000000,   0.000000,   0.000000 [a0]

Properties computed using the SCF density matrix


 Multipole Moments:

 ------------------------------------------------------------------------------------
     Multipole            Electronic (a.u.)      Nuclear  (a.u.)        Total (a.u.)
 ------------------------------------------------------------------------------------

 L = 1.  Multiply by 2.5417464519 to convert [e a0] to [Debye]
 Dipole X            :        -45.5151509           49.2673012            3.7521503
 Dipole Y            :        -45.5151509           49.2673012            3.7521503
 Dipole Z            :          0.0000000            0.0000000            0.0000000
 Magnitude           :                                                    5.3063418

 ------------------------------------------------------------------------------------

*** tstop() called on ddmfs1 at Mon Jan 22 04:20:48 2024
Module time:
	user time   =      33.01 seconds =       0.55 minutes
	system time =       4.71 seconds =       0.08 minutes
	total time  =          3 seconds =       0.05 minutes
Total time:
	user time   =     310.75 seconds =       5.18 minutes
	system time =      35.15 seconds =       0.59 minutes
	total time  =         60 seconds =       1.00 minutes

*** tstart() called on ddmfs1
*** at Mon Jan 22 04:20:48 2024


  //>>>>>>>>>>>>>>>>>>>>>>>>>>>>>>>>>>>//
  //               DFMP2               //
  //<<<<<<<<<<<<<<<<<<<<<<<<<<<<<<<<<<<//

   => Loading Basis Set <=

    Name: (AUG-CC-PVTZ AUX)
    Role: RIFIT
    Keyword: DF_BASIS_MP2
    atoms 1   entry CL         line   742 file /ddmfs1b/softs/psi4conda/share/psi4/basis/aug-cc-pvtz-ri.gbs 
    atoms 2-3 entry NA         line   610 file /ddmfs1b/softs/psi4conda/share/psi4/basis/def2-qzvpp-ri.gbs 

	 --------------------------------------------------------
	                          DF-MP2                         
	      2nd-Order Density-Fitted Moller-Plesset Theory     
	              RMP2 Wavefunction,  20 Threads             
	                                                         
	        Rob Parrish, Justin Turney, Andy Simmonett,      
	           Ed Hohenstein, and C. David Sherrill          
	 --------------------------------------------------------

   => Auxiliary Basis Set <=

  Basis Set: (AUG-CC-PVTZ AUX)
    Blend: AUG-CC-PVTZ-RI + DEF2-QZVPP-RI
    Number of shells: 121
    Number of basis functions: 479
    Number of Cartesian functions: 619
    Spherical Harmonics?: true
    Max angular momentum: 4

	 --------------------------------------------------------
	                 NBF =   150, NAUX =   479
	 --------------------------------------------------------
	   CLASS    FOCC     OCC    AOCC    AVIR     VIR    FVIR
	   PAIRS       0      19      19     131     131       0
	 --------------------------------------------------------

	-----------------------------------------------------------
	 ==================> DF-MP2 Energies <==================== 
	-----------------------------------------------------------
	 Reference Energy          =    -783.1785912187741587 [Eh]
	 Singles Energy            =      -0.0000000000000000 [Eh]
	 Same-Spin Energy          =      -0.0690407798057612 [Eh]
	 Opposite-Spin Energy      =      -0.2013935329843002 [Eh]
	 Correlation Energy        =      -0.2704343127900614 [Eh]
	 Total Energy              =    -783.4490255315641889 [Eh]
	-----------------------------------------------------------
	 ================> DF-SCS-MP2 Energies <================== 
	-----------------------------------------------------------
	 SCS Same-Spin Scale       =       0.3333333333333333 [-]
	 SCS Opposite-Spin Scale   =       1.2000000000000000 [-]
	 SCS Same-Spin Energy      =      -0.0230135932685871 [Eh]
	 SCS Opposite-Spin Energy  =      -0.2416722395811602 [Eh]
	 SCS Correlation Energy    =      -0.2646858328497473 [Eh]
	 SCS Total Energy          =    -783.4432770516239088 [Eh]
	-----------------------------------------------------------


*** tstop() called on ddmfs1 at Mon Jan 22 04:20:55 2024
Module time:
	user time   =      15.40 seconds =       0.26 minutes
	system time =       0.96 seconds =       0.02 minutes
	total time  =          7 seconds =       0.12 minutes
Total time:
	user time   =     326.16 seconds =       5.44 minutes
	system time =      36.11 seconds =       0.60 minutes
	total time  =         67 seconds =       1.12 minutes

    Psi4 stopped on: Monday, 22 January 2024 04:20AM
    Psi4 wall time for execution: 0:00:09.66


  //>>>>>>>>>>>>>>>>>>>>>>>>>>>>>>>>>>>//
  //          ManyBody Results         //
  //<<<<<<<<<<<<<<<<<<<<<<<<<<<<<<<<<<<//


   ==> N-Body: Counterpoise Corrected (CP) energies <==

        n-Body     Total Energy            Interaction Energy                          N-body Contribution to Interaction Energy
                   [Eh]                    [Eh]                  [kcal/mol]            [Eh]                  [kcal/mol]
             1  N/A                         0.000000000000        0.000000000000        0.000000000000        0.000000000000
             2  N/A                        -0.252519595489     -158.458438483706       -0.252519595489     -158.458438483706
  FULL/RTN   3  N/A                        -0.252465012598     -158.424187202616        0.000054582891        0.034251281090


    Psi4 stopped on: Monday, 22 January 2024 04:20AM
    Psi4 wall time for execution: 0:01:09.86

*** Psi4 exiting successfully. Buy a developer a beer!
