
    -----------------------------------------------------------------------
          Psi4: An Open-Source Ab Initio Electronic Structure Package
                               Psi4 1.8.2 release

                         Git: Rev {} zzzzzzz 


    D. G. A. Smith, L. A. Burns, A. C. Simmonett, R. M. Parrish,
    M. C. Schieber, R. Galvelis, P. Kraus, H. Kruse, R. Di Remigio,
    A. Alenaizan, A. M. James, S. Lehtola, J. P. Misiewicz, M. Scheurer,
    R. A. Shaw, J. B. Schriber, Y. Xie, Z. L. Glick, D. A. Sirianni,
    J. S. O'Brien, J. M. Waldrop, A. Kumar, E. G. Hohenstein,
    B. P. Pritchard, B. R. Brooks, H. F. Schaefer III, A. Yu. Sokolov,
    K. Patkowski, A. E. DePrince III, U. Bozkaya, R. A. King,
    F. A. Evangelista, J. M. Turney, T. D. Crawford, C. D. Sherrill,
    J. Chem. Phys. 152(18) 184108 (2020). https://doi.org/10.1063/5.0006002

                            Additional Code Authors
    E. T. Seidl, C. L. Janssen, E. F. Valeev, M. L. Leininger,
    J. F. Gonthier, R. M. Richard, H. R. McAlexander, M. Saitow, X. Wang,
    P. Verma, M. H. Lechner, A. Jiang, S. Behnle, A. G. Heide,
    M. F. Herbst, and D. L. Poole

             Previous Authors, Complete List of Code Contributors,
                       and Citations for Specific Modules
    https://github.com/psi4/psi4/blob/master/codemeta.json
    https://github.com/psi4/psi4/graphs/contributors
    http://psicode.org/psi4manual/master/introduction.html#citing-psifour

    -----------------------------------------------------------------------


    Psi4 started on: Monday, 22 January 2024 12:03PM

    Process ID: 46264
    Host:       ddmfs1
    PSIDATADIR: /ddmfs1b/softs/psi4conda/share/psi4
    Memory:     500.0 MiB
    Threads:    20
    
  ==> Input File <==

--------------------------------------------------------------------------
MEMORY 60 GB

molecule dimer {
-1 1
Gh(Na)     0.000000     0.000000     0.000000
Gh(Cl)     0.000000     2.370103     0.000000
Cl         2.844124     0.000000     0.000000

units ang
no_reorient
no_com
symmetry c1
}

set {
basis        aug-cc-pVTZ
scf_type     df
}

energy("mp2")
--------------------------------------------------------------------------

  Memory set to  55.879 GiB by Python driver.

Scratch directory: /ddmfs1a/scratch/
   => Libint2 <=

    Primary   basis highest AM E, G, H:  5, 4, 3
    Auxiliary basis highest AM E, G, H:  6, 5, 4
    Onebody   basis highest AM E, G, H:  6, 5, 4
    Solid Harmonics ordering:            gaussian

*** tstart() called on ddmfs1
*** at Mon Jan 22 12:03:43 2024

   => Loading Basis Set <=

    Name: AUG-CC-PVTZ
    Role: ORBITAL
    Keyword: BASIS
    atoms 1   entry NA         line   469 file /ddmfs1b/softs/psi4conda/share/psi4/basis/aug-cc-pvtz.gbs 
    atoms 2-3 entry CL         line   988 file /ddmfs1b/softs/psi4conda/share/psi4/basis/aug-cc-pvtz.gbs 


         ---------------------------------------------------------
                                   SCF
               by Justin Turney, Rob Parrish, Andy Simmonett
                          and Daniel G. A. Smith
                              RHF Reference
                       20 Threads,  57220 MiB Core
         ---------------------------------------------------------

  ==> Geometry <==

    Molecular point group: c1
    Full point group: Cs

    Geometry (in Angstrom), charge = -1, multiplicity = 1:

       Center              X                  Y                   Z               Mass       
    ------------   -----------------  -----------------  -----------------  -----------------
      Gh(NA)          0.000000000000     0.000000000000     0.000000000000    22.989769282000
      Gh(CL)          0.000000000000     2.370103000000     0.000000000000    34.968852682000
         CL           2.844124000000     0.000000000000     0.000000000000    34.968852682000

  Running in c1 symmetry.

  Rotational constants: A =      0.08582  B =      0.05960  C =      0.03517 [cm^-1]
  Rotational constants: A =   2572.77245  B =   1786.64703  C =   1054.41476 [MHz]
  Nuclear repulsion =    0.000000000000000

  Charge       = -1
  Multiplicity = 1
  Electrons    = 18
  Nalpha       = 9
  Nbeta        = 9

  ==> Algorithm <==

  SCF Algorithm Type is DF.
  DIIS enabled.
  MOM disabled.
  Fractional occupation disabled.
  Guess Type is SAD.
  Energy threshold   = 1.00e-08
  Density threshold  = 1.00e-08
  Integral threshold = 1.00e-12

  ==> Primary Basis <==

  Basis Set: AUG-CC-PVTZ
    Blend: AUG-CC-PVTZ
    Number of shells: 48
    Number of basis functions: 150
    Number of Cartesian functions: 177
    Spherical Harmonics?: true
    Max angular momentum: 3

   => Loading Basis Set <=

    Name: (AUG-CC-PVTZ AUX)
    Role: JKFIT
    Keyword: DF_BASIS_SCF
    atoms 1   entry NA         line   498 file /ddmfs1b/softs/psi4conda/share/psi4/basis/def2-universal-jkfit.gbs 
    atoms 2-3 entry CL         line   816 file /ddmfs1b/softs/psi4conda/share/psi4/basis/aug-cc-pvtz-jkfit.gbs 

  ==> Integral Setup <==

  DFHelper Memory: AOs need 0.077 GiB; user supplied 41.910 GiB. 
  Using in-core AOs.

  ==> MemDFJK: Density-Fitted J/K Matrices <==

    J tasked:                   Yes
    K tasked:                   Yes
    wK tasked:                   No
    OpenMP threads:              20
    Memory [MiB]:             42915
    Algorithm:                 Core
    Schwarz Cutoff:           1E-12
    Mask sparsity (%):       0.0000
    Fitting Condition:        1E-10

   => Auxiliary Basis Set <=

  Basis Set: (AUG-CC-PVTZ AUX)
    Blend: AUG-CC-PVTZ-JKFIT + DEF2-UNIVERSAL-JKFIT
    Number of shells: 118
    Number of basis functions: 404
    Number of Cartesian functions: 497
    Spherical Harmonics?: true
    Max angular momentum: 4

  Minimum eigenvalue in the overlap matrix is 5.8839725714E-05.
  Reciprocal condition number of the overlap matrix is 1.0201867819E-05.
    Using symmetric orthogonalization.

  ==> Pre-Iterations <==

  SCF Guess: Superposition of Atomic Densities via on-the-fly atomic UHF (no occupation information).

   -------------------------
    Irrep   Nso     Nmo    
   -------------------------
     A        150     150 
   -------------------------
    Total     150     150
   -------------------------

  ==> Iterations <==

                           Total Energy        Delta E     RMS |[F,P]|

   @DF-RHF iter SAD:  -459.11248995886149   -4.59112e+02   0.00000e+00 
   @DF-RHF iter   1:  -459.51385564605317   -4.01366e-01   1.98854e-03 DIIS/ADIIS
   @DF-RHF iter   2:  -459.56474158339347   -5.08859e-02   1.01698e-03 DIIS/ADIIS
   @DF-RHF iter   3:  -459.57344637965235   -8.70480e-03   6.73330e-05 DIIS
   @DF-RHF iter   4:  -459.57350074006024   -5.43604e-05   1.37992e-05 DIIS
   @DF-RHF iter   5:  -459.57350439747268   -3.65741e-06   1.41638e-06 DIIS
   @DF-RHF iter   6:  -459.57350447830134   -8.08287e-08   1.13361e-07 DIIS
   @DF-RHF iter   7:  -459.57350447906072   -7.59371e-10   1.44360e-08 DIIS
   @DF-RHF iter   8:  -459.57350447908090   -2.01794e-11   2.09181e-09 DIIS
  Energy and wave function converged.


  ==> Post-Iterations <==

    Orbital Energies [Eh]
    ---------------------

    Doubly Occupied:                                                      

       1A   -104.506350     2A    -10.229837     3A     -7.695888  
       4A     -7.695885     5A     -7.695865     6A     -0.733500  
       7A     -0.150336     8A     -0.150325     9A     -0.150324  

    Virtual:                                                              

      10A      0.074200    11A      0.085574    12A      0.086560  
      13A      0.102436    14A      0.132835    15A      0.142582  
      16A      0.145839    17A      0.157904    18A      0.166964  
      19A      0.167682    20A      0.176041    21A      0.181078  
      22A      0.205182    23A      0.229555    24A      0.244021  
      25A      0.249177    26A      0.255965    27A      0.274035  
      28A      0.276267    29A      0.291288    30A      0.323025  
      31A      0.325241    32A      0.326743    33A      0.359865  
      34A      0.373926    35A      0.383910    36A      0.385288  
      37A      0.399328    38A      0.421957    39A      0.427785  
      40A      0.444487    41A      0.458400    42A      0.463653  
      43A      0.468087    44A      0.487297    45A      0.494295  
      46A      0.508559    47A      0.532951    48A      0.548813  
      49A      0.593775    50A      0.608506    51A      0.613953  
      52A      0.625177    53A      0.650722    54A      0.650971  
      55A      0.664628    56A      0.692459    57A      0.708227  
      58A      0.720670    59A      0.723751    60A      0.737525  
      61A      0.774788    62A      0.807743    63A      0.861052  
      64A      0.873684    65A      0.876627    66A      0.911138  
      67A      0.925177    68A      0.936281    69A      0.945848  
      70A      0.959801    71A      0.976809    72A      1.006366  
      73A      1.020905    74A      1.024262    75A      1.036816  
      76A      1.061301    77A      1.119278    78A      1.192989  
      79A      1.251439    80A      1.269756    81A      1.308111  
      82A      1.338295    83A      1.341017    84A      1.376169  
      85A      1.432440    86A      1.447800    87A      1.472541  
      88A      1.477099    89A      1.498459    90A      1.508063  
      91A      1.513521    92A      1.546341    93A      1.549076  
      94A      1.556562    95A      1.588827    96A      1.616732  
      97A      1.651461    98A      1.677655    99A      1.681675  
     100A      1.714574   101A      1.732230   102A      1.787668  
     103A      1.837649   104A      1.860660   105A      1.879970  
     106A      1.911899   107A      2.001386   108A      2.295875  
     109A      2.859762   110A      2.868979   111A      2.921942  
     112A      2.931641   113A      2.935414   114A      3.065218  
     115A      3.097229   116A      3.229904   117A      3.380193  
     118A      3.387439   119A      3.410929   120A      3.434783  
     121A      3.509153   122A      3.529715   123A      3.629950  
     124A      4.081864   125A      4.086311   126A      4.111614  
     127A      4.147929   128A      4.151799   129A      4.169741  
     130A      4.205694   131A      4.284359   132A      4.322630  
     133A      4.370154   134A      4.633340   135A      4.848490  
     136A      4.859511   137A      4.914949   138A      4.922009  
     139A      4.941260   140A      5.188124   141A      5.933866  
     142A      6.537212   143A      6.884610   144A      7.228058  
     145A     15.171805   146A     27.980157   147A     28.020885  
     148A     28.201886   149A     64.704053   150A    161.034066  

    Final Occupation by Irrep:
              A 
    DOCC [     9 ]
    NA   [     9 ]
    NB   [     9 ]

  @DF-RHF Final Energy:  -459.57350447908090

   => Energetics <=

    Nuclear Repulsion Energy =              0.0000000000000000
    One-Electron Energy =                -641.1303896592595493
    Two-Electron Energy =                 181.5568851801786536
    Total Energy =                       -459.5735044790808956

Computation Completed


Properties will be evaluated at   0.000000,   0.000000,   0.000000 [a0]

Properties computed using the SCF density matrix


 Multipole Moments:

 ------------------------------------------------------------------------------------
     Multipole            Electronic (a.u.)      Nuclear  (a.u.)        Total (a.u.)
 ------------------------------------------------------------------------------------

 L = 1.  Multiply by 2.5417464519 to convert [e a0] to [Debye]
 Dipole X            :        -96.7434331           91.3684623           -5.3749708
 Dipole Y            :          0.0000217            0.0000000            0.0000217
 Dipole Z            :         -0.0000000            0.0000000           -0.0000000
 Magnitude           :                                                    5.3749708

 ------------------------------------------------------------------------------------

*** tstop() called on ddmfs1 at Mon Jan 22 12:03:45 2024
Module time:
	user time   =      25.37 seconds =       0.42 minutes
	system time =       3.41 seconds =       0.06 minutes
	total time  =          2 seconds =       0.03 minutes
Total time:
	user time   =      25.37 seconds =       0.42 minutes
	system time =       3.41 seconds =       0.06 minutes
	total time  =          2 seconds =       0.03 minutes

*** tstart() called on ddmfs1
*** at Mon Jan 22 12:03:45 2024


  //>>>>>>>>>>>>>>>>>>>>>>>>>>>>>>>>>>>//
  //               DFMP2               //
  //<<<<<<<<<<<<<<<<<<<<<<<<<<<<<<<<<<<//

   => Loading Basis Set <=

    Name: (AUG-CC-PVTZ AUX)
    Role: RIFIT
    Keyword: DF_BASIS_MP2
    atoms 1   entry NA         line   610 file /ddmfs1b/softs/psi4conda/share/psi4/basis/def2-qzvpp-ri.gbs 
    atoms 2-3 entry CL         line   742 file /ddmfs1b/softs/psi4conda/share/psi4/basis/aug-cc-pvtz-ri.gbs 

	 --------------------------------------------------------
	                          DF-MP2                         
	      2nd-Order Density-Fitted Moller-Plesset Theory     
	              RMP2 Wavefunction,  20 Threads             
	                                                         
	        Rob Parrish, Justin Turney, Andy Simmonett,      
	           Ed Hohenstein, and C. David Sherrill          
	 --------------------------------------------------------

   => Auxiliary Basis Set <=

  Basis Set: (AUG-CC-PVTZ AUX)
    Blend: AUG-CC-PVTZ-RI + DEF2-QZVPP-RI
    Number of shells: 116
    Number of basis functions: 460
    Number of Cartesian functions: 596
    Spherical Harmonics?: true
    Max angular momentum: 4

	 --------------------------------------------------------
	                 NBF =   150, NAUX =   460
	 --------------------------------------------------------
	   CLASS    FOCC     OCC    AOCC    AVIR     VIR    FVIR
	   PAIRS       0       9       9     141     141       0
	 --------------------------------------------------------

	-----------------------------------------------------------
	 ==================> DF-MP2 Energies <==================== 
	-----------------------------------------------------------
	 Reference Energy          =    -459.5735044790808956 [Eh]
	 Singles Energy            =      -0.0000000000000000 [Eh]
	 Same-Spin Energy          =      -0.0625891017448956 [Eh]
	 Opposite-Spin Energy      =      -0.1797551426941539 [Eh]
	 Correlation Energy        =      -0.2423442444390495 [Eh]
	 Total Energy              =    -459.8158487235199345 [Eh]
	-----------------------------------------------------------
	 ================> DF-SCS-MP2 Energies <================== 
	-----------------------------------------------------------
	 SCS Same-Spin Scale       =       0.3333333333333333 [-]
	 SCS Opposite-Spin Scale   =       1.2000000000000000 [-]
	 SCS Same-Spin Energy      =      -0.0208630339149652 [Eh]
	 SCS Opposite-Spin Energy  =      -0.2157061712329847 [Eh]
	 SCS Correlation Energy    =      -0.2365692051479499 [Eh]
	 SCS Total Energy          =    -459.8100736842288256 [Eh]
	-----------------------------------------------------------


*** tstop() called on ddmfs1 at Mon Jan 22 12:03:50 2024
Module time:
	user time   =      12.51 seconds =       0.21 minutes
	system time =       1.04 seconds =       0.02 minutes
	total time  =          5 seconds =       0.08 minutes
Total time:
	user time   =      37.89 seconds =       0.63 minutes
	system time =       4.45 seconds =       0.07 minutes
	total time  =          7 seconds =       0.12 minutes

    Psi4 stopped on: Monday, 22 January 2024 12:03PM
    Psi4 wall time for execution: 0:00:07.31

*** Psi4 exiting successfully. Buy a developer a beer!
