
    -----------------------------------------------------------------------
          Psi4: An Open-Source Ab Initio Electronic Structure Package
                               Psi4 1.8.2 release

                         Git: Rev {} zzzzzzz 


    D. G. A. Smith, L. A. Burns, A. C. Simmonett, R. M. Parrish,
    M. C. Schieber, R. Galvelis, P. Kraus, H. Kruse, R. Di Remigio,
    A. Alenaizan, A. M. James, S. Lehtola, J. P. Misiewicz, M. Scheurer,
    R. A. Shaw, J. B. Schriber, Y. Xie, Z. L. Glick, D. A. Sirianni,
    J. S. O'Brien, J. M. Waldrop, A. Kumar, E. G. Hohenstein,
    B. P. Pritchard, B. R. Brooks, H. F. Schaefer III, A. Yu. Sokolov,
    K. Patkowski, A. E. DePrince III, U. Bozkaya, R. A. King,
    F. A. Evangelista, J. M. Turney, T. D. Crawford, C. D. Sherrill,
    J. Chem. Phys. 152(18) 184108 (2020). https://doi.org/10.1063/5.0006002

                            Additional Code Authors
    E. T. Seidl, C. L. Janssen, E. F. Valeev, M. L. Leininger,
    J. F. Gonthier, R. M. Richard, H. R. McAlexander, M. Saitow, X. Wang,
    P. Verma, M. H. Lechner, A. Jiang, S. Behnle, A. G. Heide,
    M. F. Herbst, and D. L. Poole

             Previous Authors, Complete List of Code Contributors,
                       and Citations for Specific Modules
    https://github.com/psi4/psi4/blob/master/codemeta.json
    https://github.com/psi4/psi4/graphs/contributors
    http://psicode.org/psi4manual/master/introduction.html#citing-psifour

    -----------------------------------------------------------------------


    Psi4 started on: Monday, 22 January 2024 04:27AM

    Process ID: 32314
    Host:       ddmfs1
    PSIDATADIR: /ddmfs1b/softs/psi4conda/share/psi4
    Memory:     500.0 MiB
    Threads:    20
    
  ==> Input File <==

--------------------------------------------------------------------------
MEMORY 60 GB

molecule dimer {
1 1
Na     0.000000     0.000000     0.000000
--
-1 1
Cl     0.000000     2.370103     0.000000
--
-1 1
Cl     2.370103     0.000000     0.000000

units ang
no_reorient
no_com
symmetry c1
}

set {
basis        aug-cc-pVTZ
scf_type     df
}

energy("mp2", bsse_type="cp")
--------------------------------------------------------------------------

  Memory set to  55.879 GiB by Python driver.

Scratch directory: /ddmfs1a/scratch/

  //>>>>>>>>>>>>>>>>>>>>>>>>>>>>>>>>>>>>>>>>//
  // ManyBody Setup: N-Body Levels [1, 2, 3]//
  //<<<<<<<<<<<<<<<<<<<<<<<<<<<<<<<<<<<<<<<<//

        Number of 1-body computations:     3
        Number of 2-body computations:     3
        Number of 3-body computations:     1

    -----------------------------------------------------------------------
          Psi4: An Open-Source Ab Initio Electronic Structure Package
                               Psi4 1.8.2 release

                         Git: Rev {} zzzzzzz 


    D. G. A. Smith, L. A. Burns, A. C. Simmonett, R. M. Parrish,
    M. C. Schieber, R. Galvelis, P. Kraus, H. Kruse, R. Di Remigio,
    A. Alenaizan, A. M. James, S. Lehtola, J. P. Misiewicz, M. Scheurer,
    R. A. Shaw, J. B. Schriber, Y. Xie, Z. L. Glick, D. A. Sirianni,
    J. S. O'Brien, J. M. Waldrop, A. Kumar, E. G. Hohenstein,
    B. P. Pritchard, B. R. Brooks, H. F. Schaefer III, A. Yu. Sokolov,
    K. Patkowski, A. E. DePrince III, U. Bozkaya, R. A. King,
    F. A. Evangelista, J. M. Turney, T. D. Crawford, C. D. Sherrill,
    J. Chem. Phys. 152(18) 184108 (2020). https://doi.org/10.1063/5.0006002

                            Additional Code Authors
    E. T. Seidl, C. L. Janssen, E. F. Valeev, M. L. Leininger,
    J. F. Gonthier, R. M. Richard, H. R. McAlexander, M. Saitow, X. Wang,
    P. Verma, M. H. Lechner, A. Jiang, S. Behnle, A. G. Heide,
    M. F. Herbst, and D. L. Poole

             Previous Authors, Complete List of Code Contributors,
                       and Citations for Specific Modules
    https://github.com/psi4/psi4/blob/master/codemeta.json
    https://github.com/psi4/psi4/graphs/contributors
    http://psicode.org/psi4manual/master/introduction.html#citing-psifour

    -----------------------------------------------------------------------


    Psi4 started on: Monday, 22 January 2024 04:27AM

    Process ID: 32314
    Host:       ddmfs1
    PSIDATADIR: /ddmfs1b/softs/psi4conda/share/psi4
    Memory:     55.9 GiB
    Threads:    20
    
  ==> Input QCSchema <==

--------------------------------------------------------------------------
{'driver': 'energy',
 'extras': {'psiapi': True, 'wfn_qcvars_only': True},
 'id': None,
 'keywords': {'SCF_TYPE': 'DF', 'function_kwargs': {}},
 'model': {'basis': 'aug-cc-pvtz', 'method': 'mp2'},
 'molecule': {'atom_labels': ['', '', ''],
              'atomic_numbers': [11, 17, 17],
              'extras': {},
              'fix_com': True,
              'fix_orientation': True,
              'fix_symmetry': 'c1',
              'fragment_charges': [1.0, 0.0, 0.0],
              'fragment_multiplicities': [1, 1, 1],
              'fragments': [[0], [1], [2]],
              'geometry': [0.0, 0.0, 0.0, 0.0, 4.478845559125975, 0.0, 4.478845559125975, 0.0, 0.0],
              'mass_numbers': [23, 35, 35],
              'masses': [22.989769282, 34.968852682, 34.968852682],
              'molecular_charge': 1.0,
              'molecular_multiplicity': 1,
              'name': 'dimer',
              'provenance': {'creator': 'QCElemental',
                             'routine': 'qcelemental.molparse.from_string',
                             'version': '0.26.0'},
              'real': [True, False, False],
              'schema_name': 'qcschema_molecule',
              'schema_version': 2,
              'symbols': ['Na', 'Cl', 'Cl'],
              'validated': True},
 'protocols': {'stdout': True},
 'provenance': {'creator': 'QCElemental', 'routine': 'qcelemental.models.results', 'version': '0.26.0'},
 'schema_name': 'qcschema_input',
 'schema_version': 1}
--------------------------------------------------------------------------

Scratch directory: /ddmfs1a/scratch/
   => Libint2 <=

    Primary   basis highest AM E, G, H:  5, 4, 3
    Auxiliary basis highest AM E, G, H:  6, 5, 4
    Onebody   basis highest AM E, G, H:  6, 5, 4
    Solid Harmonics ordering:            gaussian

*** tstart() called on ddmfs1
*** at Mon Jan 22 04:27:57 2024

   => Loading Basis Set <=

    Name: AUG-CC-PVTZ
    Role: ORBITAL
    Keyword: BASIS
    atoms 1   entry NA         line   469 file /ddmfs1b/softs/psi4conda/share/psi4/basis/aug-cc-pvtz.gbs 
    atoms 2-3 entry CL         line   988 file /ddmfs1b/softs/psi4conda/share/psi4/basis/aug-cc-pvtz.gbs 


         ---------------------------------------------------------
                                   SCF
               by Justin Turney, Rob Parrish, Andy Simmonett
                          and Daniel G. A. Smith
                              RHF Reference
                       20 Threads,  57220 MiB Core
         ---------------------------------------------------------

  ==> Geometry <==

    Molecular point group: c1
    Full point group: D1

    Geometry (in Bohr), charge = 1, multiplicity = 1:

       Center              X                  Y                   Z               Mass       
    ------------   -----------------  -----------------  -----------------  -----------------
         NA           0.000000000000     0.000000000000     0.000000000000    22.989769282000
      Gh(CL)          0.000000000000     4.478845559126     0.000000000000    34.968852682000
      Gh(CL)          4.478845559126     0.000000000000     0.000000000000    34.968852682000

  Running in c1 symmetry.

  Rotational constants: A =      0.08582  B =      0.08582  C =      0.04291 [cm^-1]
  Rotational constants: A =   2572.77245  B =   2572.77245  C =   1286.38622 [MHz]
  Nuclear repulsion =    0.000000000000000

  Charge       = 1
  Multiplicity = 1
  Electrons    = 10
  Nalpha       = 5
  Nbeta        = 5

  ==> Algorithm <==

  SCF Algorithm Type is DF.
  DIIS enabled.
  MOM disabled.
  Fractional occupation disabled.
  Guess Type is SAD.
  Energy threshold   = 1.00e-08
  Density threshold  = 1.00e-08
  Integral threshold = 1.00e-12

  ==> Primary Basis <==

  Basis Set: AUG-CC-PVTZ
    Blend: AUG-CC-PVTZ
    Number of shells: 48
    Number of basis functions: 150
    Number of Cartesian functions: 177
    Spherical Harmonics?: true
    Max angular momentum: 3

   => Loading Basis Set <=

    Name: (AUG-CC-PVTZ AUX)
    Role: JKFIT
    Keyword: DF_BASIS_SCF
    atoms 1   entry NA         line   498 file /ddmfs1b/softs/psi4conda/share/psi4/basis/def2-universal-jkfit.gbs 
    atoms 2-3 entry CL         line   816 file /ddmfs1b/softs/psi4conda/share/psi4/basis/aug-cc-pvtz-jkfit.gbs 

  ==> Integral Setup <==

  DFHelper Memory: AOs need 0.077 GiB; user supplied 41.910 GiB. 
  Using in-core AOs.

  ==> MemDFJK: Density-Fitted J/K Matrices <==

    J tasked:                   Yes
    K tasked:                   Yes
    wK tasked:                   No
    OpenMP threads:              20
    Memory [MiB]:             42915
    Algorithm:                 Core
    Schwarz Cutoff:           1E-12
    Mask sparsity (%):       0.0000
    Fitting Condition:        1E-10

   => Auxiliary Basis Set <=

  Basis Set: (AUG-CC-PVTZ AUX)
    Blend: AUG-CC-PVTZ-JKFIT + DEF2-UNIVERSAL-JKFIT
    Number of shells: 118
    Number of basis functions: 404
    Number of Cartesian functions: 497
    Spherical Harmonics?: true
    Max angular momentum: 4

  Minimum eigenvalue in the overlap matrix is 5.6019396461E-05.
  Reciprocal condition number of the overlap matrix is 9.4233536844E-06.
    Using symmetric orthogonalization.

  ==> Pre-Iterations <==

  SCF Guess: Superposition of Atomic Densities via on-the-fly atomic UHF (no occupation information).

   -------------------------
    Irrep   Nso     Nmo    
   -------------------------
     A        150     150 
   -------------------------
    Total     150     150
   -------------------------

  ==> Iterations <==

                           Total Energy        Delta E     RMS |[F,P]|

   @DF-RHF iter SAD:  -161.74563368758263   -1.61746e+02   0.00000e+00 
   @DF-RHF iter   1:  -161.67603450181446    6.95992e-02   3.95665e-05 DIIS
   @DF-RHF iter   2:  -161.67605236287767   -1.78611e-05   7.63814e-06 DIIS
   @DF-RHF iter   3:  -161.67605282995959   -4.67082e-07   3.34358e-07 DIIS
   @DF-RHF iter   4:  -161.67605283079669   -8.37105e-10   3.38944e-08 DIIS
   @DF-RHF iter   5:  -161.67605283080565   -8.95284e-12   1.82800e-09 DIIS
  Energy and wave function converged.


  ==> Post-Iterations <==

    Orbital Energies [Eh]
    ---------------------

    Doubly Occupied:                                                      

       1A    -40.762143     2A     -3.074621     3A     -1.797957  
       4A     -1.797870     5A     -1.797750  

    Virtual:                                                              

       6A     -0.181828     7A     -0.109443     8A     -0.109440  
       9A     -0.109430    10A     -0.070027    11A     -0.050807  
      12A     -0.050752    13A     -0.050475    14A     -0.050427  
      15A     -0.050391    16A     -0.049082    17A     -0.048978  
      18A     -0.048945    19A     -0.017201    20A     -0.003006  
      21A     -0.000322    22A     -0.000084    23A      0.015549  
      24A      0.017588    25A      0.022226    26A      0.026593  
      27A      0.033323    28A      0.033977    29A      0.043882  
      30A      0.055473    31A      0.061937    32A      0.064669  
      33A      0.069740    34A      0.104993    35A      0.120953  
      36A      0.123430    37A      0.148593    38A      0.152435  
      39A      0.153787    40A      0.156321    41A      0.156752  
      42A      0.165388    43A      0.167165    44A      0.175901  
      45A      0.210498    46A      0.293077    47A      0.305481  
      48A      0.308481    49A      0.313006    50A      0.320532  
      51A      0.331209    52A      0.336925    53A      0.353130  
      54A      0.354513    55A      0.356555    56A      0.364078  
      57A      0.364877    58A      0.365803    59A      0.415107  
      60A      0.429865    61A      0.432797    62A      0.441955  
      63A      0.496491    64A      0.507415    65A      0.512652  
      66A      0.514960    67A      0.523117    68A      0.544540  
      69A      0.547779    70A      0.581232    71A      0.602803  
      72A      0.603994    73A      0.616499    74A      0.805121  
      75A      0.815899    76A      1.024382    77A      1.054293  
      78A      1.100652    79A      1.124812    80A      1.130584  
      81A      1.140080    82A      1.172377    83A      1.177508  
      84A      1.178683    85A      1.198345    86A      1.222708  
      87A      1.242354    88A      1.245069    89A      1.277976  
      90A      1.290895    91A      1.330966    92A      1.345915  
      93A      1.346526    94A      1.354034    95A      1.376562  
      96A      1.385521    97A      1.414761    98A      1.430087  
      99A      1.442303   100A      1.490825   101A      1.500708  
     102A      1.505915   103A      1.519541   104A      1.544924  
     105A      1.712735   106A      1.772879   107A      1.879594  
     108A      2.247717   109A      3.684571   110A      3.719107  
     111A      3.730934   112A      3.739281   113A      3.746159  
     114A      3.756079   115A      3.767143   116A      3.785196  
     117A      3.797059   118A      3.797327   119A      3.797646  
     120A      3.841219   121A      3.849513   122A      3.904291  
     123A      3.946702   124A      3.949329   125A      3.954679  
     126A      3.959101   127A      3.959281   128A      4.179246  
     129A      4.399545   130A      4.432959   131A      4.484007  
     132A      4.491918   133A      4.502915   134A      4.515289  
     135A      4.534211   136A      4.552598   137A      4.555988  
     138A      4.605504   139A      4.758838   140A      4.791978  
     141A     14.739839   142A     14.867678   143A     27.607135  
     144A     27.625014   145A     27.663943   146A     27.670320  
     147A     27.814336   148A     27.891456   149A    160.658458  
     150A    160.683364  

    Final Occupation by Irrep:
              A 
    DOCC [     5 ]
    NA   [     5 ]
    NB   [     5 ]

  @DF-RHF Final Energy:  -161.67605283080565

   => Energetics <=

    Nuclear Repulsion Energy =              0.0000000000000000
    One-Electron Energy =                -224.8914239538511595
    Two-Electron Energy =                  63.2153711230455144
    Total Energy =                       -161.6760528308056450

Computation Completed


Properties will be evaluated at   0.000000,   0.000000,   0.000000 [a0]

Properties computed using the SCF density matrix


 Multipole Moments:

 ------------------------------------------------------------------------------------
     Multipole            Electronic (a.u.)      Nuclear  (a.u.)        Total (a.u.)
 ------------------------------------------------------------------------------------

 L = 1.  Multiply by 2.5417464519 to convert [e a0] to [Debye]
 Dipole X            :          0.0004124            0.0000000            0.0004124
 Dipole Y            :          0.0004124            0.0000000            0.0004124
 Dipole Z            :          0.0000000            0.0000000            0.0000000
 Magnitude           :                                                    0.0005832

 ------------------------------------------------------------------------------------

*** tstop() called on ddmfs1 at Mon Jan 22 04:27:59 2024
Module time:
	user time   =      27.95 seconds =       0.47 minutes
	system time =       4.72 seconds =       0.08 minutes
	total time  =          2 seconds =       0.03 minutes
Total time:
	user time   =      27.95 seconds =       0.47 minutes
	system time =       4.72 seconds =       0.08 minutes
	total time  =          2 seconds =       0.03 minutes

*** tstart() called on ddmfs1
*** at Mon Jan 22 04:27:59 2024


  //>>>>>>>>>>>>>>>>>>>>>>>>>>>>>>>>>>>//
  //               DFMP2               //
  //<<<<<<<<<<<<<<<<<<<<<<<<<<<<<<<<<<<//

   => Loading Basis Set <=

    Name: (AUG-CC-PVTZ AUX)
    Role: RIFIT
    Keyword: DF_BASIS_MP2
    atoms 1   entry NA         line   610 file /ddmfs1b/softs/psi4conda/share/psi4/basis/def2-qzvpp-ri.gbs 
    atoms 2-3 entry CL         line   742 file /ddmfs1b/softs/psi4conda/share/psi4/basis/aug-cc-pvtz-ri.gbs 

	 --------------------------------------------------------
	                          DF-MP2                         
	      2nd-Order Density-Fitted Moller-Plesset Theory     
	              RMP2 Wavefunction,  20 Threads             
	                                                         
	        Rob Parrish, Justin Turney, Andy Simmonett,      
	           Ed Hohenstein, and C. David Sherrill          
	 --------------------------------------------------------

   => Auxiliary Basis Set <=

  Basis Set: (AUG-CC-PVTZ AUX)
    Blend: AUG-CC-PVTZ-RI + DEF2-QZVPP-RI
    Number of shells: 116
    Number of basis functions: 460
    Number of Cartesian functions: 596
    Spherical Harmonics?: true
    Max angular momentum: 4

	 --------------------------------------------------------
	                 NBF =   150, NAUX =   460
	 --------------------------------------------------------
	   CLASS    FOCC     OCC    AOCC    AVIR     VIR    FVIR
	   PAIRS       0       5       5     145     145       0
	 --------------------------------------------------------

	-----------------------------------------------------------
	 ==================> DF-MP2 Energies <==================== 
	-----------------------------------------------------------
	 Reference Energy          =    -161.6760528308056450 [Eh]
	 Singles Energy            =      -0.0000000000000000 [Eh]
	 Same-Spin Energy          =      -0.0034216998484459 [Eh]
	 Opposite-Spin Energy      =      -0.0117896914575045 [Eh]
	 Correlation Energy        =      -0.0152113913059504 [Eh]
	 Total Energy              =    -161.6912642221115846 [Eh]
	-----------------------------------------------------------
	 ================> DF-SCS-MP2 Energies <================== 
	-----------------------------------------------------------
	 SCS Same-Spin Scale       =       0.3333333333333333 [-]
	 SCS Opposite-Spin Scale   =       1.2000000000000000 [-]
	 SCS Same-Spin Energy      =      -0.0011405666161486 [Eh]
	 SCS Opposite-Spin Energy  =      -0.0141476297490054 [Eh]
	 SCS Correlation Energy    =      -0.0152881963651541 [Eh]
	 SCS Total Energy          =    -161.6913410271708074 [Eh]
	-----------------------------------------------------------


*** tstop() called on ddmfs1 at Mon Jan 22 04:28:04 2024
Module time:
	user time   =      13.35 seconds =       0.22 minutes
	system time =       1.04 seconds =       0.02 minutes
	total time  =          5 seconds =       0.08 minutes
Total time:
	user time   =      41.32 seconds =       0.69 minutes
	system time =       5.77 seconds =       0.10 minutes
	total time  =          7 seconds =       0.12 minutes

    Psi4 stopped on: Monday, 22 January 2024 04:28AM
    Psi4 wall time for execution: 0:00:07.57


    -----------------------------------------------------------------------
          Psi4: An Open-Source Ab Initio Electronic Structure Package
                               Psi4 1.8.2 release

                         Git: Rev {} zzzzzzz 


    D. G. A. Smith, L. A. Burns, A. C. Simmonett, R. M. Parrish,
    M. C. Schieber, R. Galvelis, P. Kraus, H. Kruse, R. Di Remigio,
    A. Alenaizan, A. M. James, S. Lehtola, J. P. Misiewicz, M. Scheurer,
    R. A. Shaw, J. B. Schriber, Y. Xie, Z. L. Glick, D. A. Sirianni,
    J. S. O'Brien, J. M. Waldrop, A. Kumar, E. G. Hohenstein,
    B. P. Pritchard, B. R. Brooks, H. F. Schaefer III, A. Yu. Sokolov,
    K. Patkowski, A. E. DePrince III, U. Bozkaya, R. A. King,
    F. A. Evangelista, J. M. Turney, T. D. Crawford, C. D. Sherrill,
    J. Chem. Phys. 152(18) 184108 (2020). https://doi.org/10.1063/5.0006002

                            Additional Code Authors
    E. T. Seidl, C. L. Janssen, E. F. Valeev, M. L. Leininger,
    J. F. Gonthier, R. M. Richard, H. R. McAlexander, M. Saitow, X. Wang,
    P. Verma, M. H. Lechner, A. Jiang, S. Behnle, A. G. Heide,
    M. F. Herbst, and D. L. Poole

             Previous Authors, Complete List of Code Contributors,
                       and Citations for Specific Modules
    https://github.com/psi4/psi4/blob/master/codemeta.json
    https://github.com/psi4/psi4/graphs/contributors
    http://psicode.org/psi4manual/master/introduction.html#citing-psifour

    -----------------------------------------------------------------------


    Psi4 started on: Monday, 22 January 2024 04:27AM

    Process ID: 32314
    Host:       ddmfs1
    PSIDATADIR: /ddmfs1b/softs/psi4conda/share/psi4
    Memory:     55.9 GiB
    Threads:    20
    
  ==> Input QCSchema <==

--------------------------------------------------------------------------
{'driver': 'energy',
 'extras': {'psiapi': True, 'wfn_qcvars_only': True},
 'id': None,
 'keywords': {'SCF_TYPE': 'DF', 'function_kwargs': {}},
 'model': {'basis': 'aug-cc-pvtz', 'method': 'mp2'},
 'molecule': {'atom_labels': ['', '', ''],
              'atomic_numbers': [11, 17, 17],
              'extras': {},
              'fix_com': True,
              'fix_orientation': True,
              'fix_symmetry': 'c1',
              'fragment_charges': [0.0, -1.0, 0.0],
              'fragment_multiplicities': [1, 1, 1],
              'fragments': [[0], [1], [2]],
              'geometry': [0.0, 0.0, 0.0, 0.0, 4.478845559125975, 0.0, 4.478845559125975, 0.0, 0.0],
              'mass_numbers': [23, 35, 35],
              'masses': [22.989769282, 34.968852682, 34.968852682],
              'molecular_charge': -1.0,
              'molecular_multiplicity': 1,
              'name': 'dimer',
              'provenance': {'creator': 'QCElemental',
                             'routine': 'qcelemental.molparse.from_string',
                             'version': '0.26.0'},
              'real': [False, True, False],
              'schema_name': 'qcschema_molecule',
              'schema_version': 2,
              'symbols': ['Na', 'Cl', 'Cl'],
              'validated': True},
 'protocols': {'stdout': True},
 'provenance': {'creator': 'QCElemental', 'routine': 'qcelemental.models.results', 'version': '0.26.0'},
 'schema_name': 'qcschema_input',
 'schema_version': 1}
--------------------------------------------------------------------------

Scratch directory: /ddmfs1a/scratch/
   => Libint2 <=

    Primary   basis highest AM E, G, H:  5, 4, 3
    Auxiliary basis highest AM E, G, H:  6, 5, 4
    Onebody   basis highest AM E, G, H:  6, 5, 4
    Solid Harmonics ordering:            gaussian

*** tstart() called on ddmfs1
*** at Mon Jan 22 04:28:04 2024

   => Loading Basis Set <=

    Name: AUG-CC-PVTZ
    Role: ORBITAL
    Keyword: BASIS
    atoms 1   entry NA         line   469 file /ddmfs1b/softs/psi4conda/share/psi4/basis/aug-cc-pvtz.gbs 
    atoms 2-3 entry CL         line   988 file /ddmfs1b/softs/psi4conda/share/psi4/basis/aug-cc-pvtz.gbs 


         ---------------------------------------------------------
                                   SCF
               by Justin Turney, Rob Parrish, Andy Simmonett
                          and Daniel G. A. Smith
                              RHF Reference
                       20 Threads,  57220 MiB Core
         ---------------------------------------------------------

  ==> Geometry <==

    Molecular point group: c1
    Full point group: C1h

    Geometry (in Bohr), charge = -1, multiplicity = 1:

       Center              X                  Y                   Z               Mass       
    ------------   -----------------  -----------------  -----------------  -----------------
      Gh(NA)          0.000000000000     0.000000000000     0.000000000000    22.989769282000
         CL           0.000000000000     4.478845559126     0.000000000000    34.968852682000
      Gh(CL)          4.478845559126     0.000000000000     0.000000000000    34.968852682000

  Running in c1 symmetry.

  Rotational constants: A =      0.08582  B =      0.08582  C =      0.04291 [cm^-1]
  Rotational constants: A =   2572.77245  B =   2572.77245  C =   1286.38622 [MHz]
  Nuclear repulsion =    0.000000000000000

  Charge       = -1
  Multiplicity = 1
  Electrons    = 18
  Nalpha       = 9
  Nbeta        = 9

  ==> Algorithm <==

  SCF Algorithm Type is DF.
  DIIS enabled.
  MOM disabled.
  Fractional occupation disabled.
  Guess Type is SAD.
  Energy threshold   = 1.00e-08
  Density threshold  = 1.00e-08
  Integral threshold = 1.00e-12

  ==> Primary Basis <==

  Basis Set: AUG-CC-PVTZ
    Blend: AUG-CC-PVTZ
    Number of shells: 48
    Number of basis functions: 150
    Number of Cartesian functions: 177
    Spherical Harmonics?: true
    Max angular momentum: 3

   => Loading Basis Set <=

    Name: (AUG-CC-PVTZ AUX)
    Role: JKFIT
    Keyword: DF_BASIS_SCF
    atoms 1   entry NA         line   498 file /ddmfs1b/softs/psi4conda/share/psi4/basis/def2-universal-jkfit.gbs 
    atoms 2-3 entry CL         line   816 file /ddmfs1b/softs/psi4conda/share/psi4/basis/aug-cc-pvtz-jkfit.gbs 

  ==> Integral Setup <==

  DFHelper Memory: AOs need 0.077 GiB; user supplied 41.910 GiB. 
  Using in-core AOs.

  ==> MemDFJK: Density-Fitted J/K Matrices <==

    J tasked:                   Yes
    K tasked:                   Yes
    wK tasked:                   No
    OpenMP threads:              20
    Memory [MiB]:             42915
    Algorithm:                 Core
    Schwarz Cutoff:           1E-12
    Mask sparsity (%):       0.0000
    Fitting Condition:        1E-10

   => Auxiliary Basis Set <=

  Basis Set: (AUG-CC-PVTZ AUX)
    Blend: AUG-CC-PVTZ-JKFIT + DEF2-UNIVERSAL-JKFIT
    Number of shells: 118
    Number of basis functions: 404
    Number of Cartesian functions: 497
    Spherical Harmonics?: true
    Max angular momentum: 4

  Minimum eigenvalue in the overlap matrix is 5.6019396461E-05.
  Reciprocal condition number of the overlap matrix is 9.4233536844E-06.
    Using symmetric orthogonalization.

  ==> Pre-Iterations <==

  SCF Guess: Superposition of Atomic Densities via on-the-fly atomic UHF (no occupation information).

   -------------------------
    Irrep   Nso     Nmo    
   -------------------------
     A        150     150 
   -------------------------
    Total     150     150
   -------------------------

  ==> Iterations <==

                           Total Energy        Delta E     RMS |[F,P]|

   @DF-RHF iter SAD:  -459.11248996903203   -4.59112e+02   0.00000e+00 
   @DF-RHF iter   1:  -459.51385085140890   -4.01361e-01   1.98941e-03 ADIIS/DIIS
   @DF-RHF iter   2:  -459.56475145403982   -5.09006e-02   1.01809e-03 ADIIS/DIIS
   @DF-RHF iter   3:  -459.57345627816102   -8.70482e-03   6.77057e-05 DIIS
   @DF-RHF iter   4:  -459.57351075597114   -5.44778e-05   1.38093e-05 DIIS
   @DF-RHF iter   5:  -459.57351437640523   -3.62043e-06   1.42527e-06 DIIS
   @DF-RHF iter   6:  -459.57351445869352   -8.22883e-08   1.19066e-07 DIIS
   @DF-RHF iter   7:  -459.57351445955305   -8.59529e-10   1.48487e-08 DIIS
   @DF-RHF iter   8:  -459.57351445957397   -2.09184e-11   2.12680e-09 DIIS
  Energy and wave function converged.


  ==> Post-Iterations <==

    Orbital Energies [Eh]
    ---------------------

    Doubly Occupied:                                                      

       1A   -104.506484     2A    -10.229863     3A     -7.695923  
       4A     -7.695917     5A     -7.695899     6A     -0.733493  
       7A     -0.150334     8A     -0.150321     9A     -0.150319  

    Virtual:                                                              

      10A      0.075973    11A      0.086166    12A      0.087363  
      13A      0.101187    14A      0.136014    15A      0.145691  
      16A      0.149852    17A      0.161036    18A      0.170182  
      19A      0.170467    20A      0.176134    21A      0.180348  
      22A      0.200972    23A      0.234324    24A      0.247533  
      25A      0.253512    26A      0.258318    27A      0.281040  
      28A      0.285704    29A      0.301597    30A      0.322515  
      31A      0.326626    32A      0.328190    33A      0.372064  
      34A      0.383245    35A      0.390956    36A      0.393479  
      37A      0.410598    38A      0.426340    39A      0.434156  
      40A      0.454225    41A      0.463335    42A      0.467333  
      43A      0.475366    44A      0.508819    45A      0.509099  
      46A      0.515817    47A      0.539922    48A      0.561380  
      49A      0.602680    50A      0.619527    51A      0.627834  
      52A      0.650790    53A      0.670832    54A      0.674240  
      55A      0.677593    56A      0.708705    57A      0.718333  
      58A      0.724693    59A      0.736735    60A      0.757321  
      61A      0.786601    62A      0.830410    63A      0.879112  
      64A      0.885335    65A      0.887321    66A      0.924381  
      67A      0.934945    68A      0.948421    69A      0.968036  
      70A      0.991954    71A      1.004810    72A      1.042813  
      73A      1.055000    74A      1.070299    75A      1.086772  
      76A      1.104859    77A      1.156604    78A      1.219503  
      79A      1.276790    80A      1.285918    81A      1.325920  
      82A      1.372336    83A      1.382110    84A      1.395017  
      85A      1.427266    86A      1.468251    87A      1.486440  
      88A      1.501945    89A      1.525076    90A      1.541587  
      91A      1.555494    92A      1.576660    93A      1.609429  
      94A      1.628006    95A      1.643695    96A      1.652895  
      97A      1.700842    98A      1.705548    99A      1.746131  
     100A      1.801096   101A      1.801185   102A      1.832861  
     103A      1.857264   104A      1.861574   105A      1.925562  
     106A      2.025931   107A      2.171883   108A      2.339137  
     109A      2.882480   110A      2.891314   111A      2.935754  
     112A      2.954529   113A      2.995524   114A      3.121947  
     115A      3.172407   116A      3.293031   117A      3.391790  
     118A      3.404905   119A      3.451013   120A      3.453366  
     121A      3.504152   122A      3.602314   123A      3.642471  
     124A      4.104134   125A      4.105604   126A      4.127029  
     127A      4.165461   128A      4.172350   129A      4.186811  
     130A      4.240199   131A      4.306739   132A      4.338922  
     133A      4.445795   134A      4.661660   135A      4.863946  
     136A      4.872178   137A      4.931121   138A      4.953364  
     139A      4.971287   140A      5.243911   141A      6.532713  
     142A      6.567606   143A      7.228589   144A      7.533201  
     145A     15.219492   146A     27.995402   147A     28.051366  
     148A     28.236660   149A     64.751102   150A    161.052001  

    Final Occupation by Irrep:
              A 
    DOCC [     9 ]
    NA   [     9 ]
    NB   [     9 ]

  @DF-RHF Final Energy:  -459.57351445957397

   => Energetics <=

    Nuclear Repulsion Energy =              0.0000000000000000
    One-Electron Energy =                -641.1299217829614463
    Two-Electron Energy =                 181.5564073233874467
    Total Energy =                       -459.5735144595739712

Computation Completed


Properties will be evaluated at   0.000000,   0.000000,   0.000000 [a0]

Properties computed using the SCF density matrix


 Multipole Moments:

 ------------------------------------------------------------------------------------
     Multipole            Electronic (a.u.)      Nuclear  (a.u.)        Total (a.u.)
 ------------------------------------------------------------------------------------

 L = 1.  Multiply by 2.5417464519 to convert [e a0] to [Debye]
 Dipole X            :          0.0000111            0.0000000            0.0000111
 Dipole Y            :        -80.6198010           76.1403745           -4.4794265
 Dipole Z            :         -0.0000000            0.0000000           -0.0000000
 Magnitude           :                                                    4.4794265

 ------------------------------------------------------------------------------------

*** tstop() called on ddmfs1 at Mon Jan 22 04:28:07 2024
Module time:
	user time   =      26.39 seconds =       0.44 minutes
	system time =       3.08 seconds =       0.05 minutes
	total time  =          3 seconds =       0.05 minutes
Total time:
	user time   =      68.87 seconds =       1.15 minutes
	system time =       8.89 seconds =       0.15 minutes
	total time  =         10 seconds =       0.17 minutes

*** tstart() called on ddmfs1
*** at Mon Jan 22 04:28:07 2024


  //>>>>>>>>>>>>>>>>>>>>>>>>>>>>>>>>>>>//
  //               DFMP2               //
  //<<<<<<<<<<<<<<<<<<<<<<<<<<<<<<<<<<<//

   => Loading Basis Set <=

    Name: (AUG-CC-PVTZ AUX)
    Role: RIFIT
    Keyword: DF_BASIS_MP2
    atoms 1   entry NA         line   610 file /ddmfs1b/softs/psi4conda/share/psi4/basis/def2-qzvpp-ri.gbs 
    atoms 2-3 entry CL         line   742 file /ddmfs1b/softs/psi4conda/share/psi4/basis/aug-cc-pvtz-ri.gbs 

	 --------------------------------------------------------
	                          DF-MP2                         
	      2nd-Order Density-Fitted Moller-Plesset Theory     
	              RMP2 Wavefunction,  20 Threads             
	                                                         
	        Rob Parrish, Justin Turney, Andy Simmonett,      
	           Ed Hohenstein, and C. David Sherrill          
	 --------------------------------------------------------

   => Auxiliary Basis Set <=

  Basis Set: (AUG-CC-PVTZ AUX)
    Blend: AUG-CC-PVTZ-RI + DEF2-QZVPP-RI
    Number of shells: 116
    Number of basis functions: 460
    Number of Cartesian functions: 596
    Spherical Harmonics?: true
    Max angular momentum: 4

	 --------------------------------------------------------
	                 NBF =   150, NAUX =   460
	 --------------------------------------------------------
	   CLASS    FOCC     OCC    AOCC    AVIR     VIR    FVIR
	   PAIRS       0       9       9     141     141       0
	 --------------------------------------------------------

	-----------------------------------------------------------
	 ==================> DF-MP2 Energies <==================== 
	-----------------------------------------------------------
	 Reference Energy          =    -459.5735144595739712 [Eh]
	 Singles Energy            =      -0.0000000000000000 [Eh]
	 Same-Spin Energy          =      -0.0627440531322652 [Eh]
	 Opposite-Spin Energy      =      -0.1803369400807014 [Eh]
	 Correlation Energy        =      -0.2430809932129666 [Eh]
	 Total Energy              =    -459.8165954527869417 [Eh]
	-----------------------------------------------------------
	 ================> DF-SCS-MP2 Energies <================== 
	-----------------------------------------------------------
	 SCS Same-Spin Scale       =       0.3333333333333333 [-]
	 SCS Opposite-Spin Scale   =       1.2000000000000000 [-]
	 SCS Same-Spin Energy      =      -0.0209146843774217 [Eh]
	 SCS Opposite-Spin Energy  =      -0.2164043280968417 [Eh]
	 SCS Correlation Energy    =      -0.2373190124742634 [Eh]
	 SCS Total Energy          =    -459.8108334720482162 [Eh]
	-----------------------------------------------------------


*** tstop() called on ddmfs1 at Mon Jan 22 04:28:11 2024
Module time:
	user time   =      13.29 seconds =       0.22 minutes
	system time =       0.98 seconds =       0.02 minutes
	total time  =          4 seconds =       0.07 minutes
Total time:
	user time   =      82.18 seconds =       1.37 minutes
	system time =       9.87 seconds =       0.16 minutes
	total time  =         14 seconds =       0.23 minutes

    Psi4 stopped on: Monday, 22 January 2024 04:28AM
    Psi4 wall time for execution: 0:00:07.12


    -----------------------------------------------------------------------
          Psi4: An Open-Source Ab Initio Electronic Structure Package
                               Psi4 1.8.2 release

                         Git: Rev {} zzzzzzz 


    D. G. A. Smith, L. A. Burns, A. C. Simmonett, R. M. Parrish,
    M. C. Schieber, R. Galvelis, P. Kraus, H. Kruse, R. Di Remigio,
    A. Alenaizan, A. M. James, S. Lehtola, J. P. Misiewicz, M. Scheurer,
    R. A. Shaw, J. B. Schriber, Y. Xie, Z. L. Glick, D. A. Sirianni,
    J. S. O'Brien, J. M. Waldrop, A. Kumar, E. G. Hohenstein,
    B. P. Pritchard, B. R. Brooks, H. F. Schaefer III, A. Yu. Sokolov,
    K. Patkowski, A. E. DePrince III, U. Bozkaya, R. A. King,
    F. A. Evangelista, J. M. Turney, T. D. Crawford, C. D. Sherrill,
    J. Chem. Phys. 152(18) 184108 (2020). https://doi.org/10.1063/5.0006002

                            Additional Code Authors
    E. T. Seidl, C. L. Janssen, E. F. Valeev, M. L. Leininger,
    J. F. Gonthier, R. M. Richard, H. R. McAlexander, M. Saitow, X. Wang,
    P. Verma, M. H. Lechner, A. Jiang, S. Behnle, A. G. Heide,
    M. F. Herbst, and D. L. Poole

             Previous Authors, Complete List of Code Contributors,
                       and Citations for Specific Modules
    https://github.com/psi4/psi4/blob/master/codemeta.json
    https://github.com/psi4/psi4/graphs/contributors
    http://psicode.org/psi4manual/master/introduction.html#citing-psifour

    -----------------------------------------------------------------------


    Psi4 started on: Monday, 22 January 2024 04:27AM

    Process ID: 32314
    Host:       ddmfs1
    PSIDATADIR: /ddmfs1b/softs/psi4conda/share/psi4
    Memory:     55.9 GiB
    Threads:    20
    
  ==> Input QCSchema <==

--------------------------------------------------------------------------
{'driver': 'energy',
 'extras': {'psiapi': True, 'wfn_qcvars_only': True},
 'id': None,
 'keywords': {'SCF_TYPE': 'DF', 'function_kwargs': {}},
 'model': {'basis': 'aug-cc-pvtz', 'method': 'mp2'},
 'molecule': {'atom_labels': ['', '', ''],
              'atomic_numbers': [11, 17, 17],
              'extras': {},
              'fix_com': True,
              'fix_orientation': True,
              'fix_symmetry': 'c1',
              'fragment_charges': [0.0, -1.0, -1.0],
              'fragment_multiplicities': [1, 1, 1],
              'fragments': [[0], [1], [2]],
              'geometry': [0.0, 0.0, 0.0, 0.0, 4.478845559125975, 0.0, 4.478845559125975, 0.0, 0.0],
              'mass_numbers': [23, 35, 35],
              'masses': [22.989769282, 34.968852682, 34.968852682],
              'molecular_charge': -2.0,
              'molecular_multiplicity': 1,
              'name': 'dimer',
              'provenance': {'creator': 'QCElemental',
                             'routine': 'qcelemental.molparse.from_string',
                             'version': '0.26.0'},
              'real': [False, True, True],
              'schema_name': 'qcschema_molecule',
              'schema_version': 2,
              'symbols': ['Na', 'Cl', 'Cl'],
              'validated': True},
 'protocols': {'stdout': True},
 'provenance': {'creator': 'QCElemental', 'routine': 'qcelemental.models.results', 'version': '0.26.0'},
 'schema_name': 'qcschema_input',
 'schema_version': 1}
--------------------------------------------------------------------------

Scratch directory: /ddmfs1a/scratch/
   => Libint2 <=

    Primary   basis highest AM E, G, H:  5, 4, 3
    Auxiliary basis highest AM E, G, H:  6, 5, 4
    Onebody   basis highest AM E, G, H:  6, 5, 4
    Solid Harmonics ordering:            gaussian

*** tstart() called on ddmfs1
*** at Mon Jan 22 04:28:12 2024

   => Loading Basis Set <=

    Name: AUG-CC-PVTZ
    Role: ORBITAL
    Keyword: BASIS
    atoms 1   entry NA         line   469 file /ddmfs1b/softs/psi4conda/share/psi4/basis/aug-cc-pvtz.gbs 
    atoms 2-3 entry CL         line   988 file /ddmfs1b/softs/psi4conda/share/psi4/basis/aug-cc-pvtz.gbs 


         ---------------------------------------------------------
                                   SCF
               by Justin Turney, Rob Parrish, Andy Simmonett
                          and Daniel G. A. Smith
                              RHF Reference
                       20 Threads,  57220 MiB Core
         ---------------------------------------------------------

  ==> Geometry <==

    Molecular point group: c1
    Full point group: D1

    Geometry (in Bohr), charge = -2, multiplicity = 1:

       Center              X                  Y                   Z               Mass       
    ------------   -----------------  -----------------  -----------------  -----------------
      Gh(NA)          0.000000000000     0.000000000000     0.000000000000    22.989769282000
         CL           0.000000000000     4.478845559126     0.000000000000    34.968852682000
         CL           4.478845559126     0.000000000000     0.000000000000    34.968852682000

  Running in c1 symmetry.

  Rotational constants: A =      0.08582  B =      0.08582  C =      0.04291 [cm^-1]
  Rotational constants: A =   2572.77245  B =   2572.77245  C =   1286.38622 [MHz]
  Nuclear repulsion =   45.626458216788997

  Charge       = -2
  Multiplicity = 1
  Electrons    = 36
  Nalpha       = 18
  Nbeta        = 18

  ==> Algorithm <==

  SCF Algorithm Type is DF.
  DIIS enabled.
  MOM disabled.
  Fractional occupation disabled.
  Guess Type is SAD.
  Energy threshold   = 1.00e-08
  Density threshold  = 1.00e-08
  Integral threshold = 1.00e-12

  ==> Primary Basis <==

  Basis Set: AUG-CC-PVTZ
    Blend: AUG-CC-PVTZ
    Number of shells: 48
    Number of basis functions: 150
    Number of Cartesian functions: 177
    Spherical Harmonics?: true
    Max angular momentum: 3

   => Loading Basis Set <=

    Name: (AUG-CC-PVTZ AUX)
    Role: JKFIT
    Keyword: DF_BASIS_SCF
    atoms 1   entry NA         line   498 file /ddmfs1b/softs/psi4conda/share/psi4/basis/def2-universal-jkfit.gbs 
    atoms 2-3 entry CL         line   816 file /ddmfs1b/softs/psi4conda/share/psi4/basis/aug-cc-pvtz-jkfit.gbs 

  ==> Integral Setup <==

  DFHelper Memory: AOs need 0.077 GiB; user supplied 41.910 GiB. 
  Using in-core AOs.

  ==> MemDFJK: Density-Fitted J/K Matrices <==

    J tasked:                   Yes
    K tasked:                   Yes
    wK tasked:                   No
    OpenMP threads:              20
    Memory [MiB]:             42915
    Algorithm:                 Core
    Schwarz Cutoff:           1E-12
    Mask sparsity (%):       0.0000
    Fitting Condition:        1E-10

   => Auxiliary Basis Set <=

  Basis Set: (AUG-CC-PVTZ AUX)
    Blend: AUG-CC-PVTZ-JKFIT + DEF2-UNIVERSAL-JKFIT
    Number of shells: 118
    Number of basis functions: 404
    Number of Cartesian functions: 497
    Spherical Harmonics?: true
    Max angular momentum: 4

  Minimum eigenvalue in the overlap matrix is 5.6019396461E-05.
  Reciprocal condition number of the overlap matrix is 9.4233536844E-06.
    Using symmetric orthogonalization.

  ==> Pre-Iterations <==

  SCF Guess: Superposition of Atomic Densities via on-the-fly atomic UHF (no occupation information).

   -------------------------
    Irrep   Nso     Nmo    
   -------------------------
     A        150     150 
   -------------------------
    Total     150     150
   -------------------------

  ==> Iterations <==

                           Total Energy        Delta E     RMS |[F,P]|

   @DF-RHF iter SAD:  -918.23753480116682   -9.18238e+02   0.00000e+00 
   @DF-RHF iter   1:  -918.86375739311006   -6.26223e-01   2.90041e-03 ADIIS/DIIS
   @DF-RHF iter   2:  -918.50313701041182    3.60620e-01   3.91765e-03 ADIIS/DIIS
   @DF-RHF iter   3:  -918.97697059443226   -4.73834e-01   1.03150e-03 ADIIS/DIIS
   @DF-RHF iter   4:  -918.99522186508375   -1.82513e-02   4.35672e-04 ADIIS/DIIS
   @DF-RHF iter   5:  -918.99942790353543   -4.20604e-03   1.45820e-04 ADIIS/DIIS
   @DF-RHF iter   6:  -918.99996570868700   -5.37805e-04   4.74327e-05 DIIS
   @DF-RHF iter   7:  -919.00003604241385   -7.03337e-05   7.34351e-06 DIIS
   @DF-RHF iter   8:  -919.00003833459050   -2.29218e-06   2.50548e-06 DIIS
   @DF-RHF iter   9:  -919.00003854287183   -2.08281e-07   6.00350e-07 DIIS
   @DF-RHF iter  10:  -919.00003855454815   -1.16763e-08   1.74462e-07 DIIS
   @DF-RHF iter  11:  -919.00003855576540   -1.21724e-09   4.37868e-08 DIIS
   @DF-RHF iter  12:  -919.00003855585373   -8.83347e-11   5.96382e-09 DIIS
  Energy and wave function converged.


  ==> Post-Iterations <==

    Orbital Energies [Eh]
    ---------------------

    Doubly Occupied:                                                      

       1A   -104.371475     2A   -104.371475     3A    -10.094808  
       4A    -10.094805     5A     -7.560761     6A     -7.560759  
       7A     -7.560748     8A     -7.560747     9A     -7.560712  
      10A     -7.560711    11A     -0.601934    12A     -0.593209  
      13A     -0.035350    14A     -0.020854    15A     -0.020829  
      16A     -0.009265    17A     -0.009246    18A      0.015108  

    Virtual:                                                              

      19A      0.139224    20A      0.152483    21A      0.154516  
      22A      0.174094    23A      0.223459    24A      0.236441  
      25A      0.242038    26A      0.264000    27A      0.266301  
      28A      0.270614    29A      0.278910    30A      0.285757  
      31A      0.319288    32A      0.357639    33A      0.367673  
      34A      0.409071    35A      0.423206    36A      0.424657  
      37A      0.428142    38A      0.429884    39A      0.438017  
      40A      0.441582    41A      0.498527    42A      0.519960  
      43A      0.521026    44A      0.526528    45A      0.546811  
      46A      0.548765    47A      0.560625    48A      0.582062  
      49A      0.591324    50A      0.614301    51A      0.625244  
      52A      0.634809    53A      0.643222    54A      0.645680  
      55A      0.697656    56A      0.708863    57A      0.782193  
      58A      0.788630    59A      0.805055    60A      0.808790  
      61A      0.827255    62A      0.830643    63A      0.843263  
      64A      0.858561    65A      0.861261    66A      0.868588  
      67A      0.887457    68A      0.929085    69A      1.029278  
      70A      1.033644    71A      1.039306    72A      1.045142  
      73A      1.051785    74A      1.091642    75A      1.119040  
      76A      1.141984    77A      1.155271    78A      1.155303  
      79A      1.211108    80A      1.220744    81A      1.231236  
      82A      1.233062    83A      1.244189    84A      1.247731  
      85A      1.338992    86A      1.369962    87A      1.384372  
      88A      1.391492    89A      1.415830    90A      1.422294  
      91A      1.431432    92A      1.470886    93A      1.493703  
      94A      1.501951    95A      1.522341    96A      1.560158  
      97A      1.586998    98A      1.598939    99A      1.630096  
     100A      1.631939   101A      1.659445   102A      1.701064  
     103A      1.754180   104A      1.766705   105A      1.801352  
     106A      1.802304   107A      1.870790   108A      1.951281  
     109A      1.976745   110A      2.032731   111A      2.075382  
     112A      2.262118   113A      2.345900   114A      2.999399  
     115A      3.009353   116A      3.028710   117A      3.035125  
     118A      3.059866   119A      3.062654   120A      3.077604  
     121A      3.083558   122A      3.116561   123A      3.142302  
     124A      3.249111   125A      3.263156   126A      3.267499  
     127A      3.356821   128A      3.434320   129A      3.439271  
     130A      3.486524   131A      3.527367   132A      3.532091  
     133A      3.548945   134A      3.564403   135A      3.585939  
     136A      3.586988   137A      3.603079   138A      3.643099  
     139A      3.705725   140A      3.733736   141A      3.740772  
     142A      3.748213   143A      3.933198   144A      5.113774  
     145A      6.629566   146A      6.722299   147A      6.744457  
     148A      7.532203   149A      7.776959   150A     64.929986  

    Final Occupation by Irrep:
              A 
    DOCC [    18 ]
    NA   [    18 ]
    NB   [    18 ]

  @DF-RHF Final Energy:  -919.00003855585373

   => Energetics <=

    Nuclear Repulsion Energy =             45.6264582167889969
    One-Electron Energy =               -1378.1078367657396484
    Two-Electron Energy =                 413.4813399930969808
    Total Energy =                       -919.0000385558537346

Computation Completed


Properties will be evaluated at   0.000000,   0.000000,   0.000000 [a0]

Properties computed using the SCF density matrix


 Multipole Moments:

 ------------------------------------------------------------------------------------
     Multipole            Electronic (a.u.)      Nuclear  (a.u.)        Total (a.u.)
 ------------------------------------------------------------------------------------

 L = 1.  Multiply by 2.5417464519 to convert [e a0] to [Debye]
 Dipole X            :        -80.6164539           76.1403745           -4.4760794
 Dipole Y            :        -80.6164539           76.1403745           -4.4760794
 Dipole Z            :          0.0000000            0.0000000            0.0000000
 Magnitude           :                                                    6.3301321

 ------------------------------------------------------------------------------------

*** tstop() called on ddmfs1 at Mon Jan 22 04:28:14 2024
Module time:
	user time   =      25.58 seconds =       0.43 minutes
	system time =       2.83 seconds =       0.05 minutes
	total time  =          2 seconds =       0.03 minutes
Total time:
	user time   =     108.94 seconds =       1.82 minutes
	system time =      12.72 seconds =       0.21 minutes
	total time  =         17 seconds =       0.28 minutes

*** tstart() called on ddmfs1
*** at Mon Jan 22 04:28:14 2024


  //>>>>>>>>>>>>>>>>>>>>>>>>>>>>>>>>>>>//
  //               DFMP2               //
  //<<<<<<<<<<<<<<<<<<<<<<<<<<<<<<<<<<<//

   => Loading Basis Set <=

    Name: (AUG-CC-PVTZ AUX)
    Role: RIFIT
    Keyword: DF_BASIS_MP2
    atoms 1   entry NA         line   610 file /ddmfs1b/softs/psi4conda/share/psi4/basis/def2-qzvpp-ri.gbs 
    atoms 2-3 entry CL         line   742 file /ddmfs1b/softs/psi4conda/share/psi4/basis/aug-cc-pvtz-ri.gbs 

	 --------------------------------------------------------
	                          DF-MP2                         
	      2nd-Order Density-Fitted Moller-Plesset Theory     
	              RMP2 Wavefunction,  20 Threads             
	                                                         
	        Rob Parrish, Justin Turney, Andy Simmonett,      
	           Ed Hohenstein, and C. David Sherrill          
	 --------------------------------------------------------

   => Auxiliary Basis Set <=

  Basis Set: (AUG-CC-PVTZ AUX)
    Blend: AUG-CC-PVTZ-RI + DEF2-QZVPP-RI
    Number of shells: 116
    Number of basis functions: 460
    Number of Cartesian functions: 596
    Spherical Harmonics?: true
    Max angular momentum: 4

	 --------------------------------------------------------
	                 NBF =   150, NAUX =   460
	 --------------------------------------------------------
	   CLASS    FOCC     OCC    AOCC    AVIR     VIR    FVIR
	   PAIRS       0      18      18     132     132       0
	 --------------------------------------------------------

	-----------------------------------------------------------
	 ==================> DF-MP2 Energies <==================== 
	-----------------------------------------------------------
	 Reference Energy          =    -919.0000385558537346 [Eh]
	 Singles Energy            =      -0.0000000000000000 [Eh]
	 Same-Spin Energy          =      -0.1282248695677114 [Eh]
	 Opposite-Spin Energy      =      -0.3643055435422767 [Eh]
	 Correlation Energy        =      -0.4925304131099880 [Eh]
	 Total Energy              =    -919.4925689689637238 [Eh]
	-----------------------------------------------------------
	 ================> DF-SCS-MP2 Energies <================== 
	-----------------------------------------------------------
	 SCS Same-Spin Scale       =       0.3333333333333333 [-]
	 SCS Opposite-Spin Scale   =       1.2000000000000000 [-]
	 SCS Same-Spin Energy      =      -0.0427416231892371 [Eh]
	 SCS Opposite-Spin Energy  =      -0.4371666522507320 [Eh]
	 SCS Correlation Energy    =      -0.4799082754399691 [Eh]
	 SCS Total Energy          =    -919.4799468312936597 [Eh]
	-----------------------------------------------------------


*** tstop() called on ddmfs1 at Mon Jan 22 04:28:19 2024
Module time:
	user time   =      13.39 seconds =       0.22 minutes
	system time =       1.03 seconds =       0.02 minutes
	total time  =          5 seconds =       0.08 minutes
Total time:
	user time   =     122.35 seconds =       2.04 minutes
	system time =      13.76 seconds =       0.23 minutes
	total time  =         22 seconds =       0.37 minutes

    Psi4 stopped on: Monday, 22 January 2024 04:28AM
    Psi4 wall time for execution: 0:00:06.99


    -----------------------------------------------------------------------
          Psi4: An Open-Source Ab Initio Electronic Structure Package
                               Psi4 1.8.2 release

                         Git: Rev {} zzzzzzz 


    D. G. A. Smith, L. A. Burns, A. C. Simmonett, R. M. Parrish,
    M. C. Schieber, R. Galvelis, P. Kraus, H. Kruse, R. Di Remigio,
    A. Alenaizan, A. M. James, S. Lehtola, J. P. Misiewicz, M. Scheurer,
    R. A. Shaw, J. B. Schriber, Y. Xie, Z. L. Glick, D. A. Sirianni,
    J. S. O'Brien, J. M. Waldrop, A. Kumar, E. G. Hohenstein,
    B. P. Pritchard, B. R. Brooks, H. F. Schaefer III, A. Yu. Sokolov,
    K. Patkowski, A. E. DePrince III, U. Bozkaya, R. A. King,
    F. A. Evangelista, J. M. Turney, T. D. Crawford, C. D. Sherrill,
    J. Chem. Phys. 152(18) 184108 (2020). https://doi.org/10.1063/5.0006002

                            Additional Code Authors
    E. T. Seidl, C. L. Janssen, E. F. Valeev, M. L. Leininger,
    J. F. Gonthier, R. M. Richard, H. R. McAlexander, M. Saitow, X. Wang,
    P. Verma, M. H. Lechner, A. Jiang, S. Behnle, A. G. Heide,
    M. F. Herbst, and D. L. Poole

             Previous Authors, Complete List of Code Contributors,
                       and Citations for Specific Modules
    https://github.com/psi4/psi4/blob/master/codemeta.json
    https://github.com/psi4/psi4/graphs/contributors
    http://psicode.org/psi4manual/master/introduction.html#citing-psifour

    -----------------------------------------------------------------------


    Psi4 started on: Monday, 22 January 2024 04:27AM

    Process ID: 32314
    Host:       ddmfs1
    PSIDATADIR: /ddmfs1b/softs/psi4conda/share/psi4
    Memory:     55.9 GiB
    Threads:    20
    
  ==> Input QCSchema <==

--------------------------------------------------------------------------
{'driver': 'energy',
 'extras': {'psiapi': True, 'wfn_qcvars_only': True},
 'id': None,
 'keywords': {'SCF_TYPE': 'DF', 'function_kwargs': {}},
 'model': {'basis': 'aug-cc-pvtz', 'method': 'mp2'},
 'molecule': {'atom_labels': ['', '', ''],
              'atomic_numbers': [11, 17, 17],
              'extras': {},
              'fix_com': True,
              'fix_orientation': True,
              'fix_symmetry': 'c1',
              'fragment_charges': [1.0, 0.0, -1.0],
              'fragment_multiplicities': [1, 1, 1],
              'fragments': [[0], [1], [2]],
              'geometry': [0.0, 0.0, 0.0, 0.0, 4.478845559125975, 0.0, 4.478845559125975, 0.0, 0.0],
              'mass_numbers': [23, 35, 35],
              'masses': [22.989769282, 34.968852682, 34.968852682],
              'molecular_charge': 0.0,
              'molecular_multiplicity': 1,
              'name': 'dimer',
              'provenance': {'creator': 'QCElemental',
                             'routine': 'qcelemental.molparse.from_string',
                             'version': '0.26.0'},
              'real': [True, False, True],
              'schema_name': 'qcschema_molecule',
              'schema_version': 2,
              'symbols': ['Na', 'Cl', 'Cl'],
              'validated': True},
 'protocols': {'stdout': True},
 'provenance': {'creator': 'QCElemental', 'routine': 'qcelemental.models.results', 'version': '0.26.0'},
 'schema_name': 'qcschema_input',
 'schema_version': 1}
--------------------------------------------------------------------------

Scratch directory: /ddmfs1a/scratch/
   => Libint2 <=

    Primary   basis highest AM E, G, H:  5, 4, 3
    Auxiliary basis highest AM E, G, H:  6, 5, 4
    Onebody   basis highest AM E, G, H:  6, 5, 4
    Solid Harmonics ordering:            gaussian

*** tstart() called on ddmfs1
*** at Mon Jan 22 04:28:19 2024

   => Loading Basis Set <=

    Name: AUG-CC-PVTZ
    Role: ORBITAL
    Keyword: BASIS
    atoms 1   entry NA         line   469 file /ddmfs1b/softs/psi4conda/share/psi4/basis/aug-cc-pvtz.gbs 
    atoms 2-3 entry CL         line   988 file /ddmfs1b/softs/psi4conda/share/psi4/basis/aug-cc-pvtz.gbs 


         ---------------------------------------------------------
                                   SCF
               by Justin Turney, Rob Parrish, Andy Simmonett
                          and Daniel G. A. Smith
                              RHF Reference
                       20 Threads,  57220 MiB Core
         ---------------------------------------------------------

  ==> Geometry <==

    Molecular point group: c1
    Full point group: C1h

    Geometry (in Bohr), charge = 0, multiplicity = 1:

       Center              X                  Y                   Z               Mass       
    ------------   -----------------  -----------------  -----------------  -----------------
         NA           0.000000000000     0.000000000000     0.000000000000    22.989769282000
      Gh(CL)          0.000000000000     4.478845559126     0.000000000000    34.968852682000
         CL           4.478845559126     0.000000000000     0.000000000000    34.968852682000

  Running in c1 symmetry.

  Rotational constants: A =      0.08582  B =      0.08582  C =      0.04291 [cm^-1]
  Rotational constants: A =   2572.77245  B =   2572.77245  C =   1286.38622 [MHz]
  Nuclear repulsion =   41.751830361503281

  Charge       = 0
  Multiplicity = 1
  Electrons    = 28
  Nalpha       = 14
  Nbeta        = 14

  ==> Algorithm <==

  SCF Algorithm Type is DF.
  DIIS enabled.
  MOM disabled.
  Fractional occupation disabled.
  Guess Type is SAD.
  Energy threshold   = 1.00e-08
  Density threshold  = 1.00e-08
  Integral threshold = 1.00e-12

  ==> Primary Basis <==

  Basis Set: AUG-CC-PVTZ
    Blend: AUG-CC-PVTZ
    Number of shells: 48
    Number of basis functions: 150
    Number of Cartesian functions: 177
    Spherical Harmonics?: true
    Max angular momentum: 3

   => Loading Basis Set <=

    Name: (AUG-CC-PVTZ AUX)
    Role: JKFIT
    Keyword: DF_BASIS_SCF
    atoms 1   entry NA         line   498 file /ddmfs1b/softs/psi4conda/share/psi4/basis/def2-universal-jkfit.gbs 
    atoms 2-3 entry CL         line   816 file /ddmfs1b/softs/psi4conda/share/psi4/basis/aug-cc-pvtz-jkfit.gbs 

  ==> Integral Setup <==

  DFHelper Memory: AOs need 0.077 GiB; user supplied 41.910 GiB. 
  Using in-core AOs.

  ==> MemDFJK: Density-Fitted J/K Matrices <==

    J tasked:                   Yes
    K tasked:                   Yes
    wK tasked:                   No
    OpenMP threads:              20
    Memory [MiB]:             42915
    Algorithm:                 Core
    Schwarz Cutoff:           1E-12
    Mask sparsity (%):       0.0000
    Fitting Condition:        1E-10

   => Auxiliary Basis Set <=

  Basis Set: (AUG-CC-PVTZ AUX)
    Blend: AUG-CC-PVTZ-JKFIT + DEF2-UNIVERSAL-JKFIT
    Number of shells: 118
    Number of basis functions: 404
    Number of Cartesian functions: 497
    Spherical Harmonics?: true
    Max angular momentum: 4

  Minimum eigenvalue in the overlap matrix is 5.6019396461E-05.
  Reciprocal condition number of the overlap matrix is 9.4233536844E-06.
    Using symmetric orthogonalization.

  ==> Pre-Iterations <==

  SCF Guess: Superposition of Atomic Densities via on-the-fly atomic UHF (no occupation information).

   -------------------------
    Irrep   Nso     Nmo    
   -------------------------
     A        150     150 
   -------------------------
    Total     150     150
   -------------------------

  ==> Iterations <==

                           Total Energy        Delta E     RMS |[F,P]|

   @DF-RHF iter SAD:  -620.93815576325778   -6.20938e+02   0.00000e+00 
   @DF-RHF iter   1:  -621.40309911317081   -4.64943e-01   1.93337e-03 ADIIS/DIIS
   @DF-RHF iter   2:  -621.44816631277445   -4.50672e-02   9.07515e-04 ADIIS/DIIS
   @DF-RHF iter   3:  -621.45485053520645   -6.68422e-03   5.94967e-05 DIIS
   @DF-RHF iter   4:  -621.45490492204078   -5.43868e-05   1.29137e-05 DIIS
   @DF-RHF iter   5:  -621.45491009028456   -5.16824e-06   3.36504e-06 DIIS
   @DF-RHF iter   6:  -621.45491047666258   -3.86378e-07   9.86382e-07 DIIS
   @DF-RHF iter   7:  -621.45491054123920   -6.45766e-08   1.80806e-07 DIIS
   @DF-RHF iter   8:  -621.45491054337310   -2.13390e-09   2.95515e-08 DIIS
   @DF-RHF iter   9:  -621.45491054342256   -4.94538e-11   5.74749e-09 DIIS
  Energy and wave function converged.


  ==> Post-Iterations <==

    Orbital Energies [Eh]
    ---------------------

    Doubly Occupied:                                                      

       1A   -104.703436     2A    -40.500106     3A    -10.428617  
       4A     -7.894822     5A     -7.894525     6A     -7.894524  
       7A     -2.821770     8A     -1.544679     9A     -1.544653  
      10A     -1.544266    11A     -0.941603    12A     -0.369277  
      13A     -0.352969    14A     -0.352940  

    Virtual:                                                              

      15A     -0.020491    16A      0.011210    17A      0.011453  
      18A      0.013538    19A      0.025429    20A      0.039010  
      21A      0.040017    22A      0.051160    23A      0.059689  
      24A      0.061389    25A      0.070306    26A      0.072884  
      27A      0.079534    28A      0.100044    29A      0.109748  
      30A      0.115841    31A      0.131084    32A      0.138624  
      33A      0.145448    34A      0.149892    35A      0.189402  
      36A      0.193238    37A      0.199233    38A      0.204242  
      39A      0.207825    40A      0.222022    41A      0.222342  
      42A      0.242917    43A      0.260128    44A      0.269671  
      45A      0.282913    46A      0.293257    47A      0.300826  
      48A      0.304837    49A      0.325448    50A      0.329732  
      51A      0.339898    52A      0.349313    53A      0.357890  
      54A      0.448926    55A      0.457371    56A      0.466238  
      57A      0.479860    58A      0.493230    59A      0.499384  
      60A      0.502028    61A      0.503301    62A      0.512851  
      63A      0.522811    64A      0.536373    65A      0.553357  
      66A      0.567242    67A      0.592598    68A      0.613037  
      69A      0.624599    70A      0.637661    71A      0.676136  
      72A      0.693403    73A      0.701887    74A      0.717277  
      75A      0.747981    76A      0.753134    77A      0.777374  
      78A      0.798602    79A      0.868996    80A      0.877163  
      81A      0.890492    82A      0.954610    83A      1.028198  
      84A      1.081948    85A      1.100837    86A      1.147842  
      87A      1.163284    88A      1.171629    89A      1.235470  
      90A      1.251054    91A      1.279601    92A      1.293295  
      93A      1.318057    94A      1.339662    95A      1.342528  
      96A      1.362158    97A      1.392792    98A      1.407206  
      99A      1.435606   100A      1.441838   101A      1.501894  
     102A      1.523814   103A      1.548027   104A      1.567221  
     105A      1.593704   106A      1.610948   107A      1.629101  
     108A      1.651370   109A      1.699375   110A      1.802031  
     111A      1.862283   112A      2.007339   113A      2.425617  
     114A      2.685922   115A      2.695037   116A      2.736243  
     117A      2.755663   118A      2.788876   119A      2.919170  
     120A      2.972698   121A      3.091000   122A      3.194414  
     123A      3.207625   124A      3.246925   125A      3.291981  
     126A      3.306871   127A      3.390222   128A      3.430636  
     129A      3.907621   130A      3.912138   131A      3.938466  
     132A      3.963257   133A      3.966920   134A      3.986950  
     135A      4.042949   136A      4.122858   137A      4.123254  
     138A      4.234877   139A      4.586996   140A      4.663044  
     141A      4.672453   142A      4.722017   143A      4.750426  
     144A      4.934632   145A      6.531871   146A     14.975495  
     147A     27.787382   148A     27.843058   149A     28.020241  
     150A    160.842730  

    Final Occupation by Irrep:
              A 
    DOCC [    14 ]
    NA   [    14 ]
    NB   [    14 ]

  @DF-RHF Final Energy:  -621.45491054342256

   => Energetics <=

    Nuclear Repulsion Energy =             41.7518303615032806
    One-Electron Energy =                -948.8371059700350543
    Two-Electron Energy =                 285.6303650651092312
    Total Energy =                       -621.4549105434225567

Computation Completed


Properties will be evaluated at   0.000000,   0.000000,   0.000000 [a0]

Properties computed using the SCF density matrix


 Multipole Moments:

 ------------------------------------------------------------------------------------
     Multipole            Electronic (a.u.)      Nuclear  (a.u.)        Total (a.u.)
 ------------------------------------------------------------------------------------

 L = 1.  Multiply by 2.5417464519 to convert [e a0] to [Debye]
 Dipole X            :        -79.8239740           76.1403745           -3.6835995
 Dipole Y            :          0.0000634            0.0000000            0.0000634
 Dipole Z            :          0.0000000            0.0000000            0.0000000
 Magnitude           :                                                    3.6835995

 ------------------------------------------------------------------------------------

*** tstop() called on ddmfs1 at Mon Jan 22 04:28:21 2024
Module time:
	user time   =      32.61 seconds =       0.54 minutes
	system time =       4.39 seconds =       0.07 minutes
	total time  =          2 seconds =       0.03 minutes
Total time:
	user time   =     156.10 seconds =       2.60 minutes
	system time =      18.21 seconds =       0.30 minutes
	total time  =         24 seconds =       0.40 minutes

*** tstart() called on ddmfs1
*** at Mon Jan 22 04:28:21 2024


  //>>>>>>>>>>>>>>>>>>>>>>>>>>>>>>>>>>>//
  //               DFMP2               //
  //<<<<<<<<<<<<<<<<<<<<<<<<<<<<<<<<<<<//

   => Loading Basis Set <=

    Name: (AUG-CC-PVTZ AUX)
    Role: RIFIT
    Keyword: DF_BASIS_MP2
    atoms 1   entry NA         line   610 file /ddmfs1b/softs/psi4conda/share/psi4/basis/def2-qzvpp-ri.gbs 
    atoms 2-3 entry CL         line   742 file /ddmfs1b/softs/psi4conda/share/psi4/basis/aug-cc-pvtz-ri.gbs 

	 --------------------------------------------------------
	                          DF-MP2                         
	      2nd-Order Density-Fitted Moller-Plesset Theory     
	              RMP2 Wavefunction,  20 Threads             
	                                                         
	        Rob Parrish, Justin Turney, Andy Simmonett,      
	           Ed Hohenstein, and C. David Sherrill          
	 --------------------------------------------------------

   => Auxiliary Basis Set <=

  Basis Set: (AUG-CC-PVTZ AUX)
    Blend: AUG-CC-PVTZ-RI + DEF2-QZVPP-RI
    Number of shells: 116
    Number of basis functions: 460
    Number of Cartesian functions: 596
    Spherical Harmonics?: true
    Max angular momentum: 4

	 --------------------------------------------------------
	                 NBF =   150, NAUX =   460
	 --------------------------------------------------------
	   CLASS    FOCC     OCC    AOCC    AVIR     VIR    FVIR
	   PAIRS       0      14      14     136     136       0
	 --------------------------------------------------------

	-----------------------------------------------------------
	 ==================> DF-MP2 Energies <==================== 
	-----------------------------------------------------------
	 Reference Energy          =    -621.4549105434225567 [Eh]
	 Singles Energy            =      -0.0000000000000000 [Eh]
	 Same-Spin Energy          =      -0.0662937598895819 [Eh]
	 Opposite-Spin Energy      =      -0.1917450660663918 [Eh]
	 Correlation Energy        =      -0.2580388259559737 [Eh]
	 Total Energy              =    -621.7129493693785207 [Eh]
	-----------------------------------------------------------
	 ================> DF-SCS-MP2 Energies <================== 
	-----------------------------------------------------------
	 SCS Same-Spin Scale       =       0.3333333333333333 [-]
	 SCS Opposite-Spin Scale   =       1.2000000000000000 [-]
	 SCS Same-Spin Energy      =      -0.0220979199631940 [Eh]
	 SCS Opposite-Spin Energy  =      -0.2300940792796702 [Eh]
	 SCS Correlation Energy    =      -0.2521919992428641 [Eh]
	 SCS Total Energy          =    -621.7071025426654387 [Eh]
	-----------------------------------------------------------


*** tstop() called on ddmfs1 at Mon Jan 22 04:28:26 2024
Module time:
	user time   =      13.28 seconds =       0.22 minutes
	system time =       0.99 seconds =       0.02 minutes
	total time  =          5 seconds =       0.08 minutes
Total time:
	user time   =     169.39 seconds =       2.82 minutes
	system time =      19.20 seconds =       0.32 minutes
	total time  =         29 seconds =       0.48 minutes

    Psi4 stopped on: Monday, 22 January 2024 04:28AM
    Psi4 wall time for execution: 0:00:07.41


    -----------------------------------------------------------------------
          Psi4: An Open-Source Ab Initio Electronic Structure Package
                               Psi4 1.8.2 release

                         Git: Rev {} zzzzzzz 


    D. G. A. Smith, L. A. Burns, A. C. Simmonett, R. M. Parrish,
    M. C. Schieber, R. Galvelis, P. Kraus, H. Kruse, R. Di Remigio,
    A. Alenaizan, A. M. James, S. Lehtola, J. P. Misiewicz, M. Scheurer,
    R. A. Shaw, J. B. Schriber, Y. Xie, Z. L. Glick, D. A. Sirianni,
    J. S. O'Brien, J. M. Waldrop, A. Kumar, E. G. Hohenstein,
    B. P. Pritchard, B. R. Brooks, H. F. Schaefer III, A. Yu. Sokolov,
    K. Patkowski, A. E. DePrince III, U. Bozkaya, R. A. King,
    F. A. Evangelista, J. M. Turney, T. D. Crawford, C. D. Sherrill,
    J. Chem. Phys. 152(18) 184108 (2020). https://doi.org/10.1063/5.0006002

                            Additional Code Authors
    E. T. Seidl, C. L. Janssen, E. F. Valeev, M. L. Leininger,
    J. F. Gonthier, R. M. Richard, H. R. McAlexander, M. Saitow, X. Wang,
    P. Verma, M. H. Lechner, A. Jiang, S. Behnle, A. G. Heide,
    M. F. Herbst, and D. L. Poole

             Previous Authors, Complete List of Code Contributors,
                       and Citations for Specific Modules
    https://github.com/psi4/psi4/blob/master/codemeta.json
    https://github.com/psi4/psi4/graphs/contributors
    http://psicode.org/psi4manual/master/introduction.html#citing-psifour

    -----------------------------------------------------------------------


    Psi4 started on: Monday, 22 January 2024 04:27AM

    Process ID: 32314
    Host:       ddmfs1
    PSIDATADIR: /ddmfs1b/softs/psi4conda/share/psi4
    Memory:     55.9 GiB
    Threads:    20
    
  ==> Input QCSchema <==

--------------------------------------------------------------------------
{'driver': 'energy',
 'extras': {'psiapi': True, 'wfn_qcvars_only': True},
 'id': None,
 'keywords': {'SCF_TYPE': 'DF', 'function_kwargs': {}},
 'model': {'basis': 'aug-cc-pvtz', 'method': 'mp2'},
 'molecule': {'atom_labels': ['', '', ''],
              'atomic_numbers': [11, 17, 17],
              'extras': {},
              'fix_com': True,
              'fix_orientation': True,
              'fix_symmetry': 'c1',
              'fragment_charges': [1.0, -1.0, 0.0],
              'fragment_multiplicities': [1, 1, 1],
              'fragments': [[0], [1], [2]],
              'geometry': [0.0, 0.0, 0.0, 0.0, 4.478845559125975, 0.0, 4.478845559125975, 0.0, 0.0],
              'mass_numbers': [23, 35, 35],
              'masses': [22.989769282, 34.968852682, 34.968852682],
              'molecular_charge': 0.0,
              'molecular_multiplicity': 1,
              'name': 'dimer',
              'provenance': {'creator': 'QCElemental',
                             'routine': 'qcelemental.molparse.from_string',
                             'version': '0.26.0'},
              'real': [True, True, False],
              'schema_name': 'qcschema_molecule',
              'schema_version': 2,
              'symbols': ['Na', 'Cl', 'Cl'],
              'validated': True},
 'protocols': {'stdout': True},
 'provenance': {'creator': 'QCElemental', 'routine': 'qcelemental.models.results', 'version': '0.26.0'},
 'schema_name': 'qcschema_input',
 'schema_version': 1}
--------------------------------------------------------------------------

Scratch directory: /ddmfs1a/scratch/
   => Libint2 <=

    Primary   basis highest AM E, G, H:  5, 4, 3
    Auxiliary basis highest AM E, G, H:  6, 5, 4
    Onebody   basis highest AM E, G, H:  6, 5, 4
    Solid Harmonics ordering:            gaussian

*** tstart() called on ddmfs1
*** at Mon Jan 22 04:28:26 2024

   => Loading Basis Set <=

    Name: AUG-CC-PVTZ
    Role: ORBITAL
    Keyword: BASIS
    atoms 1   entry NA         line   469 file /ddmfs1b/softs/psi4conda/share/psi4/basis/aug-cc-pvtz.gbs 
    atoms 2-3 entry CL         line   988 file /ddmfs1b/softs/psi4conda/share/psi4/basis/aug-cc-pvtz.gbs 


         ---------------------------------------------------------
                                   SCF
               by Justin Turney, Rob Parrish, Andy Simmonett
                          and Daniel G. A. Smith
                              RHF Reference
                       20 Threads,  57220 MiB Core
         ---------------------------------------------------------

  ==> Geometry <==

    Molecular point group: c1
    Full point group: C1h

    Geometry (in Bohr), charge = 0, multiplicity = 1:

       Center              X                  Y                   Z               Mass       
    ------------   -----------------  -----------------  -----------------  -----------------
         NA           0.000000000000     0.000000000000     0.000000000000    22.989769282000
         CL           0.000000000000     4.478845559126     0.000000000000    34.968852682000
      Gh(CL)          4.478845559126     0.000000000000     0.000000000000    34.968852682000

  Running in c1 symmetry.

  Rotational constants: A =      0.08582  B =      0.08582  C =      0.04291 [cm^-1]
  Rotational constants: A =   2572.77245  B =   2572.77245  C =   1286.38622 [MHz]
  Nuclear repulsion =   41.751830361503281

  Charge       = 0
  Multiplicity = 1
  Electrons    = 28
  Nalpha       = 14
  Nbeta        = 14

  ==> Algorithm <==

  SCF Algorithm Type is DF.
  DIIS enabled.
  MOM disabled.
  Fractional occupation disabled.
  Guess Type is SAD.
  Energy threshold   = 1.00e-08
  Density threshold  = 1.00e-08
  Integral threshold = 1.00e-12

  ==> Primary Basis <==

  Basis Set: AUG-CC-PVTZ
    Blend: AUG-CC-PVTZ
    Number of shells: 48
    Number of basis functions: 150
    Number of Cartesian functions: 177
    Spherical Harmonics?: true
    Max angular momentum: 3

   => Loading Basis Set <=

    Name: (AUG-CC-PVTZ AUX)
    Role: JKFIT
    Keyword: DF_BASIS_SCF
    atoms 1   entry NA         line   498 file /ddmfs1b/softs/psi4conda/share/psi4/basis/def2-universal-jkfit.gbs 
    atoms 2-3 entry CL         line   816 file /ddmfs1b/softs/psi4conda/share/psi4/basis/aug-cc-pvtz-jkfit.gbs 

  ==> Integral Setup <==

  DFHelper Memory: AOs need 0.077 GiB; user supplied 41.910 GiB. 
  Using in-core AOs.

  ==> MemDFJK: Density-Fitted J/K Matrices <==

    J tasked:                   Yes
    K tasked:                   Yes
    wK tasked:                   No
    OpenMP threads:              20
    Memory [MiB]:             42915
    Algorithm:                 Core
    Schwarz Cutoff:           1E-12
    Mask sparsity (%):       0.0000
    Fitting Condition:        1E-10

   => Auxiliary Basis Set <=

  Basis Set: (AUG-CC-PVTZ AUX)
    Blend: AUG-CC-PVTZ-JKFIT + DEF2-UNIVERSAL-JKFIT
    Number of shells: 118
    Number of basis functions: 404
    Number of Cartesian functions: 497
    Spherical Harmonics?: true
    Max angular momentum: 4

  Minimum eigenvalue in the overlap matrix is 5.6019396461E-05.
  Reciprocal condition number of the overlap matrix is 9.4233536844E-06.
    Using symmetric orthogonalization.

  ==> Pre-Iterations <==

  SCF Guess: Superposition of Atomic Densities via on-the-fly atomic UHF (no occupation information).

   -------------------------
    Irrep   Nso     Nmo    
   -------------------------
     A        150     150 
   -------------------------
    Total     150     150
   -------------------------

  ==> Iterations <==

                           Total Energy        Delta E     RMS |[F,P]|

   @DF-RHF iter SAD:  -620.93815576324346   -6.20938e+02   0.00000e+00 
   @DF-RHF iter   1:  -621.40309911315671   -4.64943e-01   1.93337e-03 ADIIS/DIIS
   @DF-RHF iter   2:  -621.44816631275978   -4.50672e-02   9.07515e-04 ADIIS/DIIS
   @DF-RHF iter   3:  -621.45485053519246   -6.68422e-03   5.94967e-05 DIIS
   @DF-RHF iter   4:  -621.45490492202657   -5.43868e-05   1.29137e-05 DIIS
   @DF-RHF iter   5:  -621.45491009027000   -5.16824e-06   3.36504e-06 DIIS
   @DF-RHF iter   6:  -621.45491047664927   -3.86379e-07   9.86382e-07 DIIS
   @DF-RHF iter   7:  -621.45491054122533   -6.45761e-08   1.80806e-07 DIIS
   @DF-RHF iter   8:  -621.45491054335878   -2.13345e-09   2.95515e-08 DIIS
   @DF-RHF iter   9:  -621.45491054340812   -4.93401e-11   5.74749e-09 DIIS
  Energy and wave function converged.


  ==> Post-Iterations <==

    Orbital Energies [Eh]
    ---------------------

    Doubly Occupied:                                                      

       1A   -104.703436     2A    -40.500106     3A    -10.428617  
       4A     -7.894822     5A     -7.894525     6A     -7.894524  
       7A     -2.821770     8A     -1.544679     9A     -1.544653  
      10A     -1.544266    11A     -0.941603    12A     -0.369277  
      13A     -0.352969    14A     -0.352940  

    Virtual:                                                              

      15A     -0.020491    16A      0.011210    17A      0.011453  
      18A      0.013538    19A      0.025429    20A      0.039010  
      21A      0.040017    22A      0.051160    23A      0.059689  
      24A      0.061389    25A      0.070306    26A      0.072884  
      27A      0.079534    28A      0.100044    29A      0.109748  
      30A      0.115841    31A      0.131084    32A      0.138624  
      33A      0.145448    34A      0.149892    35A      0.189402  
      36A      0.193238    37A      0.199233    38A      0.204242  
      39A      0.207825    40A      0.222022    41A      0.222342  
      42A      0.242917    43A      0.260128    44A      0.269671  
      45A      0.282913    46A      0.293257    47A      0.300826  
      48A      0.304837    49A      0.325448    50A      0.329732  
      51A      0.339898    52A      0.349313    53A      0.357890  
      54A      0.448926    55A      0.457371    56A      0.466238  
      57A      0.479860    58A      0.493230    59A      0.499384  
[...]
    Max angular momentum: 4

	 --------------------------------------------------------
	                 NBF =   150, NAUX =   460
	 --------------------------------------------------------
	   CLASS    FOCC     OCC    AOCC    AVIR     VIR    FVIR
	   PAIRS       0       9       9     141     141       0
	 --------------------------------------------------------

	-----------------------------------------------------------
	 ==================> DF-MP2 Energies <==================== 
	-----------------------------------------------------------
	 Reference Energy          =    -459.5735144595848851 [Eh]
	 Singles Energy            =      -0.0000000000000000 [Eh]
	 Same-Spin Energy          =      -0.0627440531322836 [Eh]
	 Opposite-Spin Energy      =      -0.1803369400807612 [Eh]
	 Correlation Energy        =      -0.2430809932130448 [Eh]
	 Total Energy              =    -459.8165954527979125 [Eh]
	-----------------------------------------------------------
	 ================> DF-SCS-MP2 Energies <================== 
	-----------------------------------------------------------
	 SCS Same-Spin Scale       =       0.3333333333333333 [-]
	 SCS Opposite-Spin Scale   =       1.2000000000000000 [-]
	 SCS Same-Spin Energy      =      -0.0209146843774278 [Eh]
	 SCS Opposite-Spin Energy  =      -0.2164043280969135 [Eh]
	 SCS Correlation Energy    =      -0.2373190124743413 [Eh]
	 SCS Total Energy          =    -459.8108334720592438 [Eh]
	-----------------------------------------------------------


*** tstop() called on ddmfs1 at Mon Jan 22 04:28:40 2024
Module time:
	user time   =      12.86 seconds =       0.21 minutes
	system time =       0.90 seconds =       0.01 minutes
	total time  =          5 seconds =       0.08 minutes
Total time:
	user time   =     253.70 seconds =       4.23 minutes
	system time =      28.57 seconds =       0.48 minutes
	total time  =         43 seconds =       0.72 minutes

    Psi4 stopped on: Monday, 22 January 2024 04:28AM
    Psi4 wall time for execution: 0:00:06.80


    -----------------------------------------------------------------------
          Psi4: An Open-Source Ab Initio Electronic Structure Package
                               Psi4 1.8.2 release

                         Git: Rev {} zzzzzzz 


    D. G. A. Smith, L. A. Burns, A. C. Simmonett, R. M. Parrish,
    M. C. Schieber, R. Galvelis, P. Kraus, H. Kruse, R. Di Remigio,
    A. Alenaizan, A. M. James, S. Lehtola, J. P. Misiewicz, M. Scheurer,
    R. A. Shaw, J. B. Schriber, Y. Xie, Z. L. Glick, D. A. Sirianni,
    J. S. O'Brien, J. M. Waldrop, A. Kumar, E. G. Hohenstein,
    B. P. Pritchard, B. R. Brooks, H. F. Schaefer III, A. Yu. Sokolov,
    K. Patkowski, A. E. DePrince III, U. Bozkaya, R. A. King,
    F. A. Evangelista, J. M. Turney, T. D. Crawford, C. D. Sherrill,
    J. Chem. Phys. 152(18) 184108 (2020). https://doi.org/10.1063/5.0006002

                            Additional Code Authors
    E. T. Seidl, C. L. Janssen, E. F. Valeev, M. L. Leininger,
    J. F. Gonthier, R. M. Richard, H. R. McAlexander, M. Saitow, X. Wang,
    P. Verma, M. H. Lechner, A. Jiang, S. Behnle, A. G. Heide,
    M. F. Herbst, and D. L. Poole

             Previous Authors, Complete List of Code Contributors,
                       and Citations for Specific Modules
    https://github.com/psi4/psi4/blob/master/codemeta.json
    https://github.com/psi4/psi4/graphs/contributors
    http://psicode.org/psi4manual/master/introduction.html#citing-psifour

    -----------------------------------------------------------------------


    Psi4 started on: Monday, 22 January 2024 04:27AM

    Process ID: 32314
    Host:       ddmfs1
    PSIDATADIR: /ddmfs1b/softs/psi4conda/share/psi4
    Memory:     55.9 GiB
    Threads:    20
    
  ==> Input QCSchema <==

--------------------------------------------------------------------------
{'driver': 'energy',
 'extras': {'psiapi': True, 'wfn_qcvars_only': True},
 'id': None,
 'keywords': {'SCF_TYPE': 'DF', 'function_kwargs': {}},
 'model': {'basis': 'aug-cc-pvtz', 'method': 'mp2'},
 'molecule': {'atom_labels': ['', '', ''],
              'atomic_numbers': [11, 17, 17],
              'extras': {},
              'fix_com': True,
              'fix_orientation': True,
              'fix_symmetry': 'c1',
              'fragment_charges': [1.0, -1.0, -1.0],
              'fragment_multiplicities': [1, 1, 1],
              'fragments': [[0], [1], [2]],
              'geometry': [0.0, 0.0, 0.0, 0.0, 4.478845559125975, 0.0, 4.478845559125975, 0.0, 0.0],
              'mass_numbers': [23, 35, 35],
              'masses': [22.989769282, 34.968852682, 34.968852682],
              'molecular_charge': -1.0,
              'molecular_multiplicity': 1,
              'name': 'dimer',
              'provenance': {'creator': 'QCElemental',
                             'routine': 'qcelemental.molparse.from_string',
                             'version': '0.26.0'},
              'real': [True, True, True],
              'schema_name': 'qcschema_molecule',
              'schema_version': 2,
              'symbols': ['Na', 'Cl', 'Cl'],
              'validated': True},
 'protocols': {'stdout': True},
 'provenance': {'creator': 'QCElemental', 'routine': 'qcelemental.models.results', 'version': '0.26.0'},
 'schema_name': 'qcschema_input',
 'schema_version': 1}
--------------------------------------------------------------------------

Scratch directory: /ddmfs1a/scratch/
   => Libint2 <=

    Primary   basis highest AM E, G, H:  5, 4, 3
    Auxiliary basis highest AM E, G, H:  6, 5, 4
    Onebody   basis highest AM E, G, H:  6, 5, 4
    Solid Harmonics ordering:            gaussian

*** tstart() called on ddmfs1
*** at Mon Jan 22 04:28:40 2024

   => Loading Basis Set <=

    Name: AUG-CC-PVTZ
    Role: ORBITAL
    Keyword: BASIS
    atoms 1   entry NA         line   469 file /ddmfs1b/softs/psi4conda/share/psi4/basis/aug-cc-pvtz.gbs 
    atoms 2-3 entry CL         line   988 file /ddmfs1b/softs/psi4conda/share/psi4/basis/aug-cc-pvtz.gbs 


         ---------------------------------------------------------
                                   SCF
               by Justin Turney, Rob Parrish, Andy Simmonett
                          and Daniel G. A. Smith
                              RHF Reference
                       20 Threads,  57220 MiB Core
         ---------------------------------------------------------

  ==> Geometry <==

    Molecular point group: c1
    Full point group: D1

    Geometry (in Bohr), charge = -1, multiplicity = 1:

       Center              X                  Y                   Z               Mass       
    ------------   -----------------  -----------------  -----------------  -----------------
         NA           0.000000000000     0.000000000000     0.000000000000    22.989769282000
         CL           0.000000000000     4.478845559126     0.000000000000    34.968852682000
         CL           4.478845559126     0.000000000000     0.000000000000    34.968852682000

  Running in c1 symmetry.

  Rotational constants: A =      0.08582  B =      0.08582  C =      0.04291 [cm^-1]
  Rotational constants: A =   2572.77245  B =   2572.77245  C =   1286.38622 [MHz]
  Nuclear repulsion =  129.130118939795551

  Charge       = -1
  Multiplicity = 1
  Electrons    = 46
  Nalpha       = 23
  Nbeta        = 23

  ==> Algorithm <==

  SCF Algorithm Type is DF.
  DIIS enabled.
  MOM disabled.
  Fractional occupation disabled.
  Guess Type is SAD.
  Energy threshold   = 1.00e-08
  Density threshold  = 1.00e-08
  Integral threshold = 1.00e-12

  ==> Primary Basis <==

  Basis Set: AUG-CC-PVTZ
    Blend: AUG-CC-PVTZ
    Number of shells: 48
    Number of basis functions: 150
    Number of Cartesian functions: 177
    Spherical Harmonics?: true
    Max angular momentum: 3

   => Loading Basis Set <=

    Name: (AUG-CC-PVTZ AUX)
    Role: JKFIT
    Keyword: DF_BASIS_SCF
    atoms 1   entry NA         line   498 file /ddmfs1b/softs/psi4conda/share/psi4/basis/def2-universal-jkfit.gbs 
    atoms 2-3 entry CL         line   816 file /ddmfs1b/softs/psi4conda/share/psi4/basis/aug-cc-pvtz-jkfit.gbs 

  ==> Integral Setup <==

  DFHelper Memory: AOs need 0.077 GiB; user supplied 41.910 GiB. 
  Using in-core AOs.

  ==> MemDFJK: Density-Fitted J/K Matrices <==

    J tasked:                   Yes
    K tasked:                   Yes
    wK tasked:                   No
    OpenMP threads:              20
    Memory [MiB]:             42915
    Algorithm:                 Core
    Schwarz Cutoff:           1E-12
    Mask sparsity (%):       0.0000
    Fitting Condition:        1E-10

   => Auxiliary Basis Set <=

  Basis Set: (AUG-CC-PVTZ AUX)
    Blend: AUG-CC-PVTZ-JKFIT + DEF2-UNIVERSAL-JKFIT
    Number of shells: 118
    Number of basis functions: 404
    Number of Cartesian functions: 497
    Spherical Harmonics?: true
    Max angular momentum: 4

  Minimum eigenvalue in the overlap matrix is 5.6019396461E-05.
  Reciprocal condition number of the overlap matrix is 9.4233536844E-06.
    Using symmetric orthogonalization.

  ==> Pre-Iterations <==

  SCF Guess: Superposition of Atomic Densities via on-the-fly atomic UHF (no occupation information).

   -------------------------
    Irrep   Nso     Nmo    
   -------------------------
     A        150     150 
   -------------------------
    Total     150     150
   -------------------------

  ==> Iterations <==

                           Total Energy        Delta E     RMS |[F,P]|

   @DF-RHF iter SAD: -1080.14323270201112   -1.08014e+03   0.00000e+00 
   @DF-RHF iter   1: -1080.94681043658625   -8.03578e-01   2.81498e-03 ADIIS/DIIS
   @DF-RHF iter   2: -1081.04473451598324   -9.79241e-02   1.33428e-03 ADIIS/DIIS
   @DF-RHF iter   3: -1081.05967568531514   -1.49412e-02   8.35419e-05 DIIS
   @DF-RHF iter   4: -1081.05979208084159   -1.16396e-04   2.00756e-05 DIIS
   @DF-RHF iter   5: -1081.05980442115583   -1.23403e-05   5.98687e-06 DIIS
   @DF-RHF iter   6: -1081.05980549036349   -1.06921e-06   1.47424e-06 DIIS
   @DF-RHF iter   7: -1081.05980562121158   -1.30848e-07   2.59434e-07 DIIS
   @DF-RHF iter   8: -1081.05980562563150   -4.41992e-09   5.54187e-08 DIIS
   @DF-RHF iter   9: -1081.05980562579157   -1.60071e-10   1.50633e-08 DIIS
   @DF-RHF iter  10: -1081.05980562579953   -7.95808e-12   3.58645e-09 DIIS
  Energy and wave function converged.


  ==> Post-Iterations <==

    Orbital Energies [Eh]
    ---------------------

    Doubly Occupied:                                                      

       1A   -104.545574     2A   -104.545574     3A    -40.280011  
       4A    -10.271300     5A    -10.271297     6A     -7.737464  
       7A     -7.737462     8A     -7.737249     9A     -7.737248  
      10A     -7.737200    11A     -7.737200    12A     -2.608306  
      13A     -1.331720    14A     -1.331360    15A     -1.331274  
      16A     -0.790930    17A     -0.781237    18A     -0.231984  
      19A     -0.210085    20A     -0.205789    21A     -0.203614  
      22A     -0.192616    23A     -0.172772  

    Virtual:                                                              

      24A      0.070868    25A      0.085698    26A      0.088330  
      27A      0.102328    28A      0.115677    29A      0.138862  
      30A      0.140262    31A      0.158411    32A      0.164866  
      33A      0.167857    34A      0.178239    35A      0.186227  
      36A      0.190071    37A      0.222780    38A      0.235339  
      39A      0.249311    40A      0.287692    41A      0.302876  
      42A      0.306026    43A      0.312331    44A      0.312667  
      45A      0.316508    46A      0.327033    47A      0.356376  
      48A      0.360871    49A      0.364929    50A      0.386100  
      51A      0.392085    52A      0.404949    53A      0.418813  
      54A      0.434240    55A      0.435657    56A      0.471931  
      57A      0.473451    58A      0.483630    59A      0.489440  
      60A      0.490613    61A      0.538127    62A      0.614288  
      63A      0.619733    64A      0.637431    65A      0.640472  
      66A      0.642467    67A      0.644676    68A      0.659708  
      69A      0.662165    70A      0.680228    71A      0.682741  
      72A      0.695573    73A      0.735823    74A      0.767626  
      75A      0.776088    76A      0.792729    77A      0.811927  
      78A      0.814682    79A      0.859527    80A      0.889205  
      81A      0.909501    82A      0.926935    83A      0.934954  
      84A      0.999583    85A      1.012676    86A      1.024913  
      87A      1.029926    88A      1.032110    89A      1.068274  
      90A      1.162834    91A      1.163970    92A      1.215001  
      93A      1.229933    94A      1.246428    95A      1.251400  
      96A      1.282741    97A      1.293840    98A      1.309970  
      99A      1.326488   100A      1.349159   101A      1.398590  
     102A      1.406309   103A      1.423825   104A      1.448743  
     105A      1.453957   106A      1.478598   107A      1.507937  
     108A      1.562335   109A      1.562834   110A      1.615013  
     111A      1.677990   112A      1.741244   113A      1.767941  
     114A      1.813339   115A      1.875838   116A      1.966976  
     117A      2.031051   118A      2.586486   119A      2.821788  
     120A      2.831601   121A      2.849695   122A      2.857009  
     123A      2.877181   124A      2.882063   125A      2.897514  
     126A      2.903916   127A      2.929021   128A      2.957949  
     129A      3.065065   130A      3.081161   131A      3.083553  
     132A      3.183421   133A      3.247435   134A      3.251766  
     135A      3.306540   136A      3.346051   137A      3.351466  
     138A      3.371264   139A      3.386985   140A      3.401577  
     141A      3.450731   142A      3.453702   143A      3.460373  
     144A      3.526901   145A      3.541595   146A      3.550446  
     147A      3.555201   148A      3.744603   149A      6.642958  
     150A      6.728550  

    Final Occupation by Irrep:
              A 
    DOCC [    23 ]
    NA   [    23 ]
    NB   [    23 ]

  @DF-RHF Final Energy: -1081.05980562579953

   => Energetics <=

    Nuclear Repulsion Energy =            129.1301189397955511
    One-Electron Energy =               -1768.9213134919045842
    Two-Electron Energy =                 558.7313889263095916
    Total Energy =                      -1081.0598056257995268

Computation Completed


Properties will be evaluated at   0.000000,   0.000000,   0.000000 [a0]

Properties computed using the SCF density matrix


 Multipole Moments:

 ------------------------------------------------------------------------------------
     Multipole            Electronic (a.u.)      Nuclear  (a.u.)        Total (a.u.)
 ------------------------------------------------------------------------------------

 L = 1.  Multiply by 2.5417464519 to convert [e a0] to [Debye]
 Dipole X            :        -79.8693545           76.1403745           -3.7289800
 Dipole Y            :        -79.8693545           76.1403745           -3.7289800
 Dipole Z            :          0.0000000            0.0000000            0.0000000
 Magnitude           :                                                    5.2735741

 ------------------------------------------------------------------------------------

*** tstop() called on ddmfs1 at Mon Jan 22 04:28:43 2024
Module time:
	user time   =      33.08 seconds =       0.55 minutes
	system time =       4.36 seconds =       0.07 minutes
	total time  =          3 seconds =       0.05 minutes
Total time:
	user time   =     287.91 seconds =       4.80 minutes
	system time =      33.00 seconds =       0.55 minutes
	total time  =         46 seconds =       0.77 minutes

*** tstart() called on ddmfs1
*** at Mon Jan 22 04:28:43 2024


  //>>>>>>>>>>>>>>>>>>>>>>>>>>>>>>>>>>>//
  //               DFMP2               //
  //<<<<<<<<<<<<<<<<<<<<<<<<<<<<<<<<<<<//

   => Loading Basis Set <=

    Name: (AUG-CC-PVTZ AUX)
    Role: RIFIT
    Keyword: DF_BASIS_MP2
    atoms 1   entry NA         line   610 file /ddmfs1b/softs/psi4conda/share/psi4/basis/def2-qzvpp-ri.gbs 
    atoms 2-3 entry CL         line   742 file /ddmfs1b/softs/psi4conda/share/psi4/basis/aug-cc-pvtz-ri.gbs 

	 --------------------------------------------------------
	                          DF-MP2                         
	      2nd-Order Density-Fitted Moller-Plesset Theory     
	              RMP2 Wavefunction,  20 Threads             
	                                                         
	        Rob Parrish, Justin Turney, Andy Simmonett,      
	           Ed Hohenstein, and C. David Sherrill          
	 --------------------------------------------------------

   => Auxiliary Basis Set <=

  Basis Set: (AUG-CC-PVTZ AUX)
    Blend: AUG-CC-PVTZ-RI + DEF2-QZVPP-RI
    Number of shells: 116
    Number of basis functions: 460
    Number of Cartesian functions: 596
    Spherical Harmonics?: true
    Max angular momentum: 4

	 --------------------------------------------------------
	                 NBF =   150, NAUX =   460
	 --------------------------------------------------------
	   CLASS    FOCC     OCC    AOCC    AVIR     VIR    FVIR
	   PAIRS       0      23      23     127     127       0
	 --------------------------------------------------------

	-----------------------------------------------------------
	 ==================> DF-MP2 Energies <==================== 
	-----------------------------------------------------------
	 Reference Energy          =   -1081.0598056257995268 [Eh]
	 Singles Energy            =      -0.0000000000000000 [Eh]
	 Same-Spin Energy          =      -0.1311795689665878 [Eh]
	 Opposite-Spin Energy      =      -0.3736055036947372 [Eh]
	 Correlation Energy        =      -0.5047850726613250 [Eh]
	 Total Energy              =   -1081.5645906984609610 [Eh]
	-----------------------------------------------------------
	 ================> DF-SCS-MP2 Energies <================== 
	-----------------------------------------------------------
	 SCS Same-Spin Scale       =       0.3333333333333333 [-]
	 SCS Opposite-Spin Scale   =       1.2000000000000000 [-]
	 SCS Same-Spin Energy      =      -0.0437265229888626 [Eh]
	 SCS Opposite-Spin Energy  =      -0.4483266044336847 [Eh]
	 SCS Correlation Energy    =      -0.4920531274225473 [Eh]
	 SCS Total Energy          =   -1081.5518587532221773 [Eh]
	-----------------------------------------------------------


*** tstop() called on ddmfs1 at Mon Jan 22 04:28:48 2024
Module time:
	user time   =      13.17 seconds =       0.22 minutes
	system time =       0.93 seconds =       0.02 minutes
	total time  =          5 seconds =       0.08 minutes
Total time:
	user time   =     301.09 seconds =       5.02 minutes
	system time =      33.94 seconds =       0.57 minutes
	total time  =         51 seconds =       0.85 minutes

    Psi4 stopped on: Monday, 22 January 2024 04:28AM
    Psi4 wall time for execution: 0:00:07.36


  //>>>>>>>>>>>>>>>>>>>>>>>>>>>>>>>>>>>//
  //          ManyBody Results         //
  //<<<<<<<<<<<<<<<<<<<<<<<<<<<<<<<<<<<//


   ==> N-Body: Counterpoise Corrected (CP) energies <==

        n-Body     Total Energy            Interaction Energy                          N-body Contribution to Interaction Energy
                   [Eh]                    [Eh]                  [kcal/mol]            [Eh]                  [kcal/mol]
             1  N/A                         0.000000000000        0.000000000000        0.000000000000        0.000000000000
             2  N/A                        -0.269557452314     -169.149855054133       -0.269557452314     -169.149855054133
  FULL/RTN   3  N/A                        -0.240135570765     -150.687345645732        0.029421881549       18.462509408402


    Psi4 stopped on: Monday, 22 January 2024 04:28AM
    Psi4 wall time for execution: 0:00:53.55

*** Psi4 exiting successfully. Buy a developer a beer!
