
    -----------------------------------------------------------------------
          Psi4: An Open-Source Ab Initio Electronic Structure Package
                               Psi4 1.9 release

                         Git: Rev {} zzzzzzz 


    D. G. A. Smith, L. A. Burns, A. C. Simmonett, R. M. Parrish,
    M. C. Schieber, R. Galvelis, P. Kraus, H. Kruse, R. Di Remigio,
    A. Alenaizan, A. M. James, S. Lehtola, J. P. Misiewicz, M. Scheurer,
    R. A. Shaw, J. B. Schriber, Y. Xie, Z. L. Glick, D. A. Sirianni,
    J. S. O'Brien, J. M. Waldrop, A. Kumar, E. G. Hohenstein,
    B. P. Pritchard, B. R. Brooks, H. F. Schaefer III, A. Yu. Sokolov,
    K. Patkowski, A. E. DePrince III, U. Bozkaya, R. A. King,
    F. A. Evangelista, J. M. Turney, T. D. Crawford, C. D. Sherrill,
    J. Chem. Phys. 152(18) 184108 (2020). https://doi.org/10.1063/5.0006002

                            Additional Code Authors
    E. T. Seidl, C. L. Janssen, E. F. Valeev, M. L. Leininger,
    J. F. Gonthier, R. M. Richard, H. R. McAlexander, M. Saitow, X. Wang,
    P. Verma, M. H. Lechner, A. Jiang, S. Behnle, A. G. Heide,
    M. F. Herbst, and D. L. Poole

             Previous Authors, Complete List of Code Contributors,
                       and Citations for Specific Modules
    https://github.com/psi4/psi4/blob/master/codemeta.json
    https://github.com/psi4/psi4/graphs/contributors
    http://psicode.org/psi4manual/master/introduction.html#citing-psifour

    -----------------------------------------------------------------------


    Psi4 started on: Wednesday, 03 January 2024 07:58PM

    Process ID: 435513
    Host:       moses-razer
    PSIDATADIR: /home/kchung25/anaconda3/envs/psi4_19/share/psi4
    Memory:     500.0 MiB
    Threads:    6
    
  ==> Input File <==

--------------------------------------------------------------------------
MEMORY 60 GB

molecule dimer {
0 1
Na     0.000000     0.000000     0.000000
Cl     0.000000     2.370103     0.000000
--
-1 1
Cl     4.740206     0.000000     0.000000

units ang
no_reorient
no_com
symmetry c1
}

set {
basis        aug-cc-pVTZ
scf_type     df
}

energy("mp2", bsse_type="cp")
--------------------------------------------------------------------------

  Memory set to  55.879 GiB by Python driver.

Scratch directory: /scratch/

  //>>>>>>>>>>>>>>>>>>>>>>>>>>>>>>>>>>>>>//
  // ManyBody Setup: N-Body Levels [1, 2]//
  //<<<<<<<<<<<<<<<<<<<<<<<<<<<<<<<<<<<<<//

        Number of 1-body computations:     2
        Number of 2-body computations:     1

    -----------------------------------------------------------------------
          Psi4: An Open-Source Ab Initio Electronic Structure Package
                               Psi4 1.9 release

                         Git: Rev {} zzzzzzz 


    D. G. A. Smith, L. A. Burns, A. C. Simmonett, R. M. Parrish,
    M. C. Schieber, R. Galvelis, P. Kraus, H. Kruse, R. Di Remigio,
    A. Alenaizan, A. M. James, S. Lehtola, J. P. Misiewicz, M. Scheurer,
    R. A. Shaw, J. B. Schriber, Y. Xie, Z. L. Glick, D. A. Sirianni,
    J. S. O'Brien, J. M. Waldrop, A. Kumar, E. G. Hohenstein,
    B. P. Pritchard, B. R. Brooks, H. F. Schaefer III, A. Yu. Sokolov,
    K. Patkowski, A. E. DePrince III, U. Bozkaya, R. A. King,
    F. A. Evangelista, J. M. Turney, T. D. Crawford, C. D. Sherrill,
    J. Chem. Phys. 152(18) 184108 (2020). https://doi.org/10.1063/5.0006002

                            Additional Code Authors
    E. T. Seidl, C. L. Janssen, E. F. Valeev, M. L. Leininger,
    J. F. Gonthier, R. M. Richard, H. R. McAlexander, M. Saitow, X. Wang,
    P. Verma, M. H. Lechner, A. Jiang, S. Behnle, A. G. Heide,
    M. F. Herbst, and D. L. Poole

             Previous Authors, Complete List of Code Contributors,
                       and Citations for Specific Modules
    https://github.com/psi4/psi4/blob/master/codemeta.json
    https://github.com/psi4/psi4/graphs/contributors
    http://psicode.org/psi4manual/master/introduction.html#citing-psifour

    -----------------------------------------------------------------------


    Psi4 started on: Wednesday, 03 January 2024 07:58PM

    Process ID: 435513
    Host:       moses-razer
    PSIDATADIR: /home/kchung25/anaconda3/envs/psi4_19/share/psi4
    Memory:     55.9 GiB
    Threads:    6
    
  ==> Input QCSchema <==

--------------------------------------------------------------------------
{'driver': 'energy',
 'extras': {'psiapi': True, 'wfn_qcvars_only': True},
 'id': None,
 'keywords': {'SCF_TYPE': 'DF', 'function_kwargs': {}},
 'model': {'basis': 'aug-cc-pvtz', 'method': 'mp2'},
 'molecule': {'atom_labels': ['', '', ''],
              'atomic_numbers': [11, 17, 17],
              'extras': {},
              'fix_com': True,
              'fix_orientation': True,
              'fix_symmetry': 'c1',
              'fragment_charges': [0.0, -1.0],
              'fragment_multiplicities': [1, 1],
              'fragments': [[0, 1], [2]],
              'geometry': [0.0, 0.0, 0.0, 0.0, 4.478845559125975, 0.0, 8.95769111825195, 0.0, 0.0],
              'mass_numbers': [23, 35, 35],
              'masses': [22.989769282, 34.968852682, 34.968852682],
              'molecular_charge': -1.0,
              'molecular_multiplicity': 1,
              'name': 'dimer',
              'provenance': {'creator': 'QCElemental',
                             'routine': 'qcelemental.molparse.from_string',
                             'version': '0.27.1'},
              'real': [False, False, True],
              'schema_name': 'qcschema_molecule',
              'schema_version': 2,
              'symbols': ['Na', 'Cl', 'Cl'],
              'validated': True},
 'protocols': {'stdout': True},
 'provenance': {'creator': 'QCElemental', 'routine': 'qcelemental.models.results', 'version': '0.27.1'},
 'schema_name': 'qcschema_input',
 'schema_version': 1}
--------------------------------------------------------------------------

Scratch directory: /scratch/
   => Libint2 <=

    Primary   basis highest AM E, G, H:  5, 4, 3
    Auxiliary basis highest AM E, G, H:  6, 5, 4
    Onebody   basis highest AM E, G, H:  6, 5, 4
    Solid Harmonics ordering:            gaussian

*** tstart() called on moses-razer
*** at Wed Jan  3 19:58:10 2024

   => Loading Basis Set <=

    Name: AUG-CC-PVTZ
    Role: ORBITAL
    Keyword: BASIS
    atoms 1   entry NA         line   469 file /home/kchung25/anaconda3/envs/p415env/share/psi4/basis/aug-cc-pvtz.gbs 
    atoms 2-3 entry CL         line   988 file /home/kchung25/anaconda3/envs/p415env/share/psi4/basis/aug-cc-pvtz.gbs 


         ---------------------------------------------------------
                                   SCF
               by Justin Turney, Rob Parrish, Andy Simmonett
                          and Daniel G. A. Smith
                              RHF Reference
                        6 Threads,  57220 MiB Core
         ---------------------------------------------------------

  ==> Geometry <==

    Molecular point group: c1
    Full point group: Cs

    Geometry (in Bohr), charge = -1, multiplicity = 1:

       Center              X                  Y                   Z               Mass       
    ------------   -----------------  -----------------  -----------------  -----------------
      Gh(NA)          0.000000000000     0.000000000000     0.000000000000    22.989769282000
      Gh(CL)          0.000000000000     4.478845559126     0.000000000000    34.968852682000
         CL           8.957691118252     0.000000000000     0.000000000000    34.968852682000

  Running in c1 symmetry.

  Rotational constants: A =      0.08582  B =      0.02145  C =      0.01716 [cm^-1]
  Rotational constants: A =   2572.77245  B =    643.19311  C =    514.55449 [MHz]
  Nuclear repulsion =    0.000000000000000

  Charge       = -1
  Multiplicity = 1
  Electrons    = 18
  Nalpha       = 9
  Nbeta        = 9

  ==> Algorithm <==

  SCF Algorithm Type is DF.
  DIIS enabled.
  MOM disabled.
  Fractional occupation disabled.
  Guess Type is SAD.
  Energy threshold   = 1.00e-08
  Density threshold  = 1.00e-08
  Integral threshold = 1.00e-12

  ==> Primary Basis <==

  Basis Set: AUG-CC-PVTZ
    Blend: AUG-CC-PVTZ
    Number of shells: 48
    Number of basis functions: 150
    Number of Cartesian functions: 177
    Spherical Harmonics?: true
    Max angular momentum: 3

   => Loading Basis Set <=

    Name: (AUG-CC-PVTZ AUX)
    Role: JKFIT
    Keyword: DF_BASIS_SCF
    atoms 1   entry NA         line   498 file /home/kchung25/anaconda3/envs/p415env/share/psi4/basis/def2-universal-jkfit.gbs 
    atoms 2-3 entry CL         line   816 file /home/kchung25/anaconda3/envs/p415env/share/psi4/basis/aug-cc-pvtz-jkfit.gbs 

  ==> Integral Setup <==

  DFHelper Memory: AOs need 0.072 GiB; user supplied 41.910 GiB. 
  Using in-core AOs.

  ==> MemDFJK: Density-Fitted J/K Matrices <==

    J tasked:                   Yes
    K tasked:                   Yes
    wK tasked:                   No
    OpenMP threads:               6
    Memory [MiB]:             42915
    Algorithm:                 Core
    Schwarz Cutoff:           1E-12
    Mask sparsity (%):       3.3689
    Fitting Condition:        1E-10

   => Auxiliary Basis Set <=

  Basis Set: (AUG-CC-PVTZ AUX)
    Blend: AUG-CC-PVTZ-JKFIT + DEF2-UNIVERSAL-JKFIT
    Number of shells: 118
    Number of basis functions: 404
    Number of Cartesian functions: 497
    Spherical Harmonics?: true
    Max angular momentum: 4

  Minimum eigenvalue in the overlap matrix is 6.0117865333E-05.
  Reciprocal condition number of the overlap matrix is 1.1685096835E-05.
    Using symmetric orthogonalization.

  ==> Pre-Iterations <==

  SCF Guess: Superposition of Atomic Densities via on-the-fly atomic UHF (no occupation information).

   -------------------------
    Irrep   Nso     Nmo    
   -------------------------
     A        150     150 
   -------------------------
    Total     150     150
   -------------------------

  ==> Iterations <==

                           Total Energy        Delta E     RMS |[F,P]|

   @DF-RHF iter SAD:  -459.11248994809949   -4.59112e+02   0.00000e+00 
   @DF-RHF iter   1:  -459.51387930827531   -4.01389e-01   1.98762e-03 DIIS/ADIIS
   @DF-RHF iter   2:  -459.56472846643430   -5.08492e-02   1.01532e-03 DIIS/ADIIS
   @DF-RHF iter   3:  -459.57342910613255   -8.70064e-03   6.66983e-05 DIIS
   @DF-RHF iter   4:  -459.57348325888898   -5.41528e-05   1.37490e-05 DIIS
   @DF-RHF iter   5:  -459.57348699048094   -3.73159e-06   1.42970e-06 DIIS
   @DF-RHF iter   6:  -459.57348706808096   -7.76000e-08   8.95657e-08 DIIS
   @DF-RHF iter   7:  -459.57348706848586   -4.04896e-10   1.26731e-08 DIIS
   @DF-RHF iter   8:  -459.57348706850019   -1.43245e-11   2.04536e-09 DIIS
  Energy and wave function converged.


  ==> Post-Iterations <==

    Orbital Energies [Eh]
    ---------------------

    Doubly Occupied:                                                      

       1A   -104.506061     2A    -10.229768     3A     -7.695806  
       4A     -7.695806     5A     -7.695799     6A     -0.733512  
       7A     -0.150337     8A     -0.150337     9A     -0.150336  

    Virtual:                                                              

      10A      0.065632    11A      0.081137    12A      0.081655  
      13A      0.101829    14A      0.118848    15A      0.130232  
      16A      0.131412    17A      0.144711    18A      0.151953  
      19A      0.152194    20A      0.169681    21A      0.175183  
      22A      0.190717    23A      0.211313    24A      0.230973  
      25A      0.237456    26A      0.245419    27A      0.247550  
      28A      0.256437    29A      0.261062    30A      0.299373  
      31A      0.310214    32A      0.310516    33A      0.324356  
      34A      0.343512    35A      0.354627    36A      0.354910  
      37A      0.358753    38A      0.387720    39A      0.393083  
      40A      0.402974    41A      0.410926    42A      0.413044  
      43A      0.430479    44A      0.443206    45A      0.455282  
      46A      0.482636    47A      0.485527    48A      0.504816  
      49A      0.534525    50A      0.564793    51A      0.567761  
      52A      0.590743    53A      0.597227    54A      0.603700  
      55A      0.618682    56A      0.634886    57A      0.644226  
      58A      0.654606    59A      0.661676    60A      0.703252  
      61A      0.732234    62A      0.760082    63A      0.815596  
      64A      0.826849    65A      0.843413    66A      0.866977  
      67A      0.878067    68A      0.882566    69A      0.892035  
      70A      0.905048    71A      0.914368    72A      0.915409  
      73A      0.917601    74A      0.938867    75A      0.974917  
      76A      0.987482    77A      0.994667    78A      1.086256  
      79A      1.225831    80A      1.227671    81A      1.253536  
      82A      1.259596    83A      1.266214    84A      1.284783  
      85A      1.374263    86A      1.408403    87A      1.411277  
      88A      1.460939    89A      1.465673    90A      1.468287  
      91A      1.468673    92A      1.474621    93A      1.479869  
      94A      1.484830    95A      1.491068    96A      1.504275  
      97A      1.525881    98A      1.531208    99A      1.548020  
     100A      1.578200   101A      1.636497   102A      1.648719  
     103A      1.737992   104A      1.747347   105A      1.793475  
     106A      1.801969   107A      1.812633   108A      2.222360  
     109A      2.832055   110A      2.834053   111A      2.856122  
     112A      2.864768   113A      2.896624   114A      2.997222  
     115A      3.000780   116A      3.053995   117A      3.373611  
     118A      3.373701   119A      3.375448   120A      3.375865  
     121A      3.383647   122A      3.389985   123A      3.395422  
     124A      4.031859   125A      4.033157   126A      4.047985  
     127A      4.099157   128A      4.102621   129A      4.109289  
     130A      4.123957   131A      4.230634   132A      4.278383  
     133A      4.282776   134A      4.526559   135A      4.803820  
     136A      4.804140   137A      4.817077   138A      4.871699  
     139A      4.876607   140A      5.092135   141A      5.634233  
     142A      6.442146   143A      6.453764   144A      7.122607  
     145A     15.080207   146A     27.934885   147A     27.950715  
     148A     28.145687   149A     64.578230   150A    160.986247  

    Final Occupation by Irrep:
              A 
    DOCC [     9 ]
    NA   [     9 ]
    NB   [     9 ]

  @DF-RHF Final Energy:  -459.57348706850019

   => Energetics <=

    Nuclear Repulsion Energy =              0.0000000000000000
    One-Electron Energy =                -641.1314455797714800
    Two-Electron Energy =                 181.5579585112712948
    Total Energy =                       -459.5734870685001852

Computation Completed


Properties will be evaluated at   0.000000,   0.000000,   0.000000 [a0]

Properties computed using the SCF density matrix


 Multipole Moments:

 ------------------------------------------------------------------------------------
     Multipole            Electronic (a.u.)      Nuclear  (a.u.)        Total (a.u.)
 ------------------------------------------------------------------------------------

 L = 1.  Multiply by 2.5417464519 to convert [e a0] to [Debye]
 Dipole X            :       -161.2385174          152.2807490           -8.9577684
 Dipole Y            :         -0.0000688            0.0000000           -0.0000688
 Dipole Z            :          0.0000000            0.0000000            0.0000000
 Magnitude           :                                                    8.9577684

 ------------------------------------------------------------------------------------

*** tstop() called on moses-razer at Wed Jan  3 19:58:12 2024
Module time:
	user time   =       6.20 seconds =       0.10 minutes
	system time =       0.58 seconds =       0.01 minutes
	total time  =          2 seconds =       0.03 minutes
Total time:
	user time   =       6.20 seconds =       0.10 minutes
	system time =       0.58 seconds =       0.01 minutes
	total time  =          2 seconds =       0.03 minutes

*** tstart() called on moses-razer
*** at Wed Jan  3 19:58:12 2024


  //>>>>>>>>>>>>>>>>>>>>>>>>>>>>>>>>>>>//
  //               DFMP2               //
  //<<<<<<<<<<<<<<<<<<<<<<<<<<<<<<<<<<<//

   => Loading Basis Set <=

    Name: (AUG-CC-PVTZ AUX)
    Role: RIFIT
    Keyword: DF_BASIS_MP2
    atoms 1   entry NA         line   610 file /home/kchung25/anaconda3/envs/p415env/share/psi4/basis/def2-qzvpp-ri.gbs 
    atoms 2-3 entry CL         line   742 file /home/kchung25/anaconda3/envs/p415env/share/psi4/basis/aug-cc-pvtz-ri.gbs 

	 --------------------------------------------------------
	                          DF-MP2                         
	      2nd-Order Density-Fitted Moller-Plesset Theory     
	              RMP2 Wavefunction,   6 Threads             
	                                                         
	        Rob Parrish, Justin Turney, Andy Simmonett,      
	           Ed Hohenstein, and C. David Sherrill          
	 --------------------------------------------------------

   => Auxiliary Basis Set <=

  Basis Set: (AUG-CC-PVTZ AUX)
    Blend: AUG-CC-PVTZ-RI + DEF2-QZVPP-RI
    Number of shells: 116
    Number of basis functions: 460
    Number of Cartesian functions: 596
    Spherical Harmonics?: true
    Max angular momentum: 4

	 --------------------------------------------------------
	                 NBF =   150, NAUX =   460
	 --------------------------------------------------------
	   CLASS    FOCC     OCC    AOCC    AVIR     VIR    FVIR
	   PAIRS       0       9       9     141     141       0
	 --------------------------------------------------------

	-----------------------------------------------------------
	 ==================> DF-MP2 Energies <==================== 
	-----------------------------------------------------------
	 Reference Energy          =    -459.5734870685001852 [Eh]
	 Singles Energy            =      -0.0000000000000000 [Eh]
	 Same-Spin Energy          =      -0.0623470823380097 [Eh]
	 Opposite-Spin Energy      =      -0.1789016386730002 [Eh]
	 Correlation Energy        =      -0.2412487210110099 [Eh]
	 Total Energy              =    -459.8147357895111895 [Eh]
	-----------------------------------------------------------
	 ================> DF-SCS-MP2 Energies <================== 
	-----------------------------------------------------------
	 SCS Same-Spin Scale       =       0.3333333333333333 [-]
	 SCS Opposite-Spin Scale   =       1.2000000000000000 [-]
	 SCS Same-Spin Energy      =      -0.0207823607793366 [Eh]
	 SCS Opposite-Spin Energy  =      -0.2146819664076002 [Eh]
	 SCS Correlation Energy    =      -0.2354643271869367 [Eh]
	 SCS Total Energy          =    -459.8089513956871315 [Eh]
	-----------------------------------------------------------


*** tstop() called on moses-razer at Wed Jan  3 19:58:13 2024
Module time:
	user time   =       3.09 seconds =       0.05 minutes
	system time =       0.24 seconds =       0.00 minutes
	total time  =          1 seconds =       0.02 minutes
Total time:
	user time   =       9.29 seconds =       0.15 minutes
	system time =       0.82 seconds =       0.01 minutes
	total time  =          3 seconds =       0.05 minutes

    Psi4 stopped on: Wednesday, 03 January 2024 07:58PM
    Psi4 wall time for execution: 0:00:03.19


    -----------------------------------------------------------------------
          Psi4: An Open-Source Ab Initio Electronic Structure Package
                               Psi4 1.9 release

                         Git: Rev {} zzzzzzz 


    D. G. A. Smith, L. A. Burns, A. C. Simmonett, R. M. Parrish,
    M. C. Schieber, R. Galvelis, P. Kraus, H. Kruse, R. Di Remigio,
    A. Alenaizan, A. M. James, S. Lehtola, J. P. Misiewicz, M. Scheurer,
    R. A. Shaw, J. B. Schriber, Y. Xie, Z. L. Glick, D. A. Sirianni,
    J. S. O'Brien, J. M. Waldrop, A. Kumar, E. G. Hohenstein,
    B. P. Pritchard, B. R. Brooks, H. F. Schaefer III, A. Yu. Sokolov,
    K. Patkowski, A. E. DePrince III, U. Bozkaya, R. A. King,
    F. A. Evangelista, J. M. Turney, T. D. Crawford, C. D. Sherrill,
    J. Chem. Phys. 152(18) 184108 (2020). https://doi.org/10.1063/5.0006002

                            Additional Code Authors
    E. T. Seidl, C. L. Janssen, E. F. Valeev, M. L. Leininger,
    J. F. Gonthier, R. M. Richard, H. R. McAlexander, M. Saitow, X. Wang,
    P. Verma, M. H. Lechner, A. Jiang, S. Behnle, A. G. Heide,
    M. F. Herbst, and D. L. Poole

             Previous Authors, Complete List of Code Contributors,
                       and Citations for Specific Modules
    https://github.com/psi4/psi4/blob/master/codemeta.json
    https://github.com/psi4/psi4/graphs/contributors
    http://psicode.org/psi4manual/master/introduction.html#citing-psifour

    -----------------------------------------------------------------------


    Psi4 started on: Wednesday, 03 January 2024 07:58PM

    Process ID: 435513
    Host:       moses-razer
    PSIDATADIR: /home/kchung25/anaconda3/envs/psi4_19/share/psi4
    Memory:     55.9 GiB
    Threads:    6
    
  ==> Input QCSchema <==

--------------------------------------------------------------------------
{'driver': 'energy',
 'extras': {'psiapi': True, 'wfn_qcvars_only': True},
 'id': None,
 'keywords': {'SCF_TYPE': 'DF', 'function_kwargs': {}},
 'model': {'basis': 'aug-cc-pvtz', 'method': 'mp2'},
 'molecule': {'atom_labels': ['', '', ''],
              'atomic_numbers': [11, 17, 17],
              'extras': {},
              'fix_com': True,
              'fix_orientation': True,
              'fix_symmetry': 'c1',
              'fragment_charges': [0.0, 0.0],
              'fragment_multiplicities': [1, 1],
              'fragments': [[0, 1], [2]],
              'geometry': [0.0, 0.0, 0.0, 0.0, 4.478845559125975, 0.0, 8.95769111825195, 0.0, 0.0],
              'mass_numbers': [23, 35, 35],
              'masses': [22.989769282, 34.968852682, 34.968852682],
              'molecular_charge': 0.0,
              'molecular_multiplicity': 1,
              'name': 'dimer',
              'provenance': {'creator': 'QCElemental',
                             'routine': 'qcelemental.molparse.from_string',
                             'version': '0.27.1'},
              'real': [True, True, False],
              'schema_name': 'qcschema_molecule',
              'schema_version': 2,
              'symbols': ['Na', 'Cl', 'Cl'],
              'validated': True},
 'protocols': {'stdout': True},
 'provenance': {'creator': 'QCElemental', 'routine': 'qcelemental.models.results', 'version': '0.27.1'},
 'schema_name': 'qcschema_input',
 'schema_version': 1}
--------------------------------------------------------------------------

Scratch directory: /scratch/
   => Libint2 <=

    Primary   basis highest AM E, G, H:  5, 4, 3
    Auxiliary basis highest AM E, G, H:  6, 5, 4
    Onebody   basis highest AM E, G, H:  6, 5, 4
    Solid Harmonics ordering:            gaussian

*** tstart() called on moses-razer
*** at Wed Jan  3 19:58:13 2024

   => Loading Basis Set <=

    Name: AUG-CC-PVTZ
    Role: ORBITAL
    Keyword: BASIS
    atoms 1   entry NA         line   469 file /home/kchung25/anaconda3/envs/p415env/share/psi4/basis/aug-cc-pvtz.gbs 
    atoms 2-3 entry CL         line   988 file /home/kchung25/anaconda3/envs/p415env/share/psi4/basis/aug-cc-pvtz.gbs 


         ---------------------------------------------------------
                                   SCF
               by Justin Turney, Rob Parrish, Andy Simmonett
                          and Daniel G. A. Smith
                              RHF Reference
                        6 Threads,  57220 MiB Core
         ---------------------------------------------------------

  ==> Geometry <==

    Molecular point group: c1
    Full point group: Cs

    Geometry (in Bohr), charge = 0, multiplicity = 1:

       Center              X                  Y                   Z               Mass       
    ------------   -----------------  -----------------  -----------------  -----------------
         NA           0.000000000000     0.000000000000     0.000000000000    22.989769282000
         CL           0.000000000000     4.478845559126     0.000000000000    34.968852682000
      Gh(CL)          8.957691118252     0.000000000000     0.000000000000    34.968852682000

  Running in c1 symmetry.

  Rotational constants: A =      0.08582  B =      0.02145  C =      0.01716 [cm^-1]
  Rotational constants: A =   2572.77245  B =    643.19311  C =    514.55449 [MHz]
  Nuclear repulsion =   41.751830361503281

  Charge       = 0
  Multiplicity = 1
  Electrons    = 28
  Nalpha       = 14
  Nbeta        = 14

  ==> Algorithm <==

  SCF Algorithm Type is DF.
  DIIS enabled.
  MOM disabled.
  Fractional occupation disabled.
  Guess Type is SAD.
  Energy threshold   = 1.00e-08
  Density threshold  = 1.00e-08
  Integral threshold = 1.00e-12

  ==> Primary Basis <==

  Basis Set: AUG-CC-PVTZ
    Blend: AUG-CC-PVTZ
    Number of shells: 48
    Number of basis functions: 150
    Number of Cartesian functions: 177
    Spherical Harmonics?: true
    Max angular momentum: 3

   => Loading Basis Set <=

    Name: (AUG-CC-PVTZ AUX)
    Role: JKFIT
    Keyword: DF_BASIS_SCF
    atoms 1   entry NA         line   498 file /home/kchung25/anaconda3/envs/p415env/share/psi4/basis/def2-universal-jkfit.gbs 
    atoms 2-3 entry CL         line   816 file /home/kchung25/anaconda3/envs/p415env/share/psi4/basis/aug-cc-pvtz-jkfit.gbs 

  ==> Integral Setup <==

  DFHelper Memory: AOs need 0.072 GiB; user supplied 41.910 GiB. 
  Using in-core AOs.

  ==> MemDFJK: Density-Fitted J/K Matrices <==

    J tasked:                   Yes
    K tasked:                   Yes
    wK tasked:                   No
    OpenMP threads:               6
    Memory [MiB]:             42915
    Algorithm:                 Core
    Schwarz Cutoff:           1E-12
    Mask sparsity (%):       3.3689
    Fitting Condition:        1E-10

   => Auxiliary Basis Set <=

  Basis Set: (AUG-CC-PVTZ AUX)
    Blend: AUG-CC-PVTZ-JKFIT + DEF2-UNIVERSAL-JKFIT
    Number of shells: 118
    Number of basis functions: 404
    Number of Cartesian functions: 497
    Spherical Harmonics?: true
    Max angular momentum: 4

  Minimum eigenvalue in the overlap matrix is 6.0117865333E-05.
  Reciprocal condition number of the overlap matrix is 1.1685096835E-05.
    Using symmetric orthogonalization.

  ==> Pre-Iterations <==

  SCF Guess: Superposition of Atomic Densities via on-the-fly atomic UHF (no occupation information).

   -------------------------
    Irrep   Nso     Nmo    
   -------------------------
     A        150     150 
   -------------------------
    Total     150     150
   -------------------------

  ==> Iterations <==

                           Total Energy        Delta E     RMS |[F,P]|

   @DF-RHF iter SAD:  -620.93812412696968   -6.20938e+02   0.00000e+00 
   @DF-RHF iter   1:  -621.40302167379718   -4.64898e-01   1.93211e-03 DIIS/ADIIS
   @DF-RHF iter   2:  -621.44806832675226   -4.50467e-02   9.07487e-04 DIIS/ADIIS
   @DF-RHF iter   3:  -621.45475578601054   -6.68746e-03   5.95246e-05 DIIS
   @DF-RHF iter   4:  -621.45481008767854   -5.43017e-05   1.29233e-05 DIIS
   @DF-RHF iter   5:  -621.45481526683193   -5.17915e-06   3.35277e-06 DIIS
   @DF-RHF iter   6:  -621.45481565239550   -3.85564e-07   9.82811e-07 DIIS
   @DF-RHF iter   7:  -621.45481571663265   -6.42372e-08   1.79977e-07 DIIS
   @DF-RHF iter   8:  -621.45481571874507   -2.11242e-09   2.94812e-08 DIIS
   @DF-RHF iter   9:  -621.45481571879418   -4.91127e-11   5.70190e-09 DIIS
  Energy and wave function converged.


  ==> Post-Iterations <==

    Orbital Energies [Eh]
    ---------------------

    Doubly Occupied:                                                      

       1A   -104.703396     2A    -40.500150     3A    -10.428596  
       4A     -7.894803     5A     -7.894502     6A     -7.894500  
       7A     -2.821897     8A     -1.544779     9A     -1.544775  
      10A     -1.544417    11A     -0.941582    12A     -0.369238  
      13A     -0.352927    14A     -0.352925  

    Virtual:                                                              

      15A     -0.020529    16A      0.011329    17A      0.011460  
      18A      0.013745    19A      0.025564    20A      0.039483  
      21A      0.040093    22A      0.051520    23A      0.056186  
      24A      0.062411    25A      0.071652    26A      0.072831  
      27A      0.079424    28A      0.102259    29A      0.105337  
      30A      0.115112    31A      0.116546    32A      0.116610  
      33A      0.118369    34A      0.153069    35A      0.166023  
      36A      0.197401    37A      0.199905    38A      0.204231  
      39A      0.204524    40A      0.214718    41A      0.221899  
      42A      0.226360    43A      0.248654    44A      0.259221  
      45A      0.267192    46A      0.269773    47A      0.281321  
      48A      0.289605    49A      0.331600    50A      0.333036  
      51A      0.336626    52A      0.339206    53A      0.353437  
      54A      0.403131    55A      0.407733    56A      0.428748  
      57A      0.430142    58A      0.434345    59A      0.439063  
      60A      0.470293    61A      0.474181    62A      0.484936  
      63A      0.505150    64A      0.506200    65A      0.510082  
      66A      0.528884    67A      0.538460    68A      0.557655  
      69A      0.574206    70A      0.618070    71A      0.625947  
      72A      0.632092    73A      0.675039    74A      0.691079  
      75A      0.702231    76A      0.702432    77A      0.709355  
      78A      0.759073    79A      0.770901    80A      0.869923  
      81A      0.875077    82A      0.890899    83A      1.009423  
      84A      1.087296    85A      1.095040    86A      1.156049  
      87A      1.170304    88A      1.172240    89A      1.284337  
      90A      1.284568    91A      1.287563    92A      1.287753  
      93A      1.291158    94A      1.291561    95A      1.295928  
      96A      1.299213    97A      1.299893    98A      1.306285  
      99A      1.314356   100A      1.321507   101A      1.356195  
     102A      1.385708   103A      1.399309   104A      1.460985  
     105A      1.466043   106A      1.468467   107A      1.500588  
     108A      1.515820   109A      1.594403   110A      1.596245  
     111A      1.605084   112A      1.767149   113A      2.182649  
     114A      2.681583   115A      2.687703   116A      2.734439  
     117A      2.737296   118A      2.778210   119A      2.915443  
     120A      2.933100   121A      3.054624   122A      3.183283  
     123A      3.184367   124A      3.240541   125A      3.243174  
     126A      3.296706   127A      3.388923   128A      3.390620  
     129A      3.915942   130A      3.916011   131A      3.917720  
     132A      3.918169   133A      3.924439   134A      3.925091  
     135A      3.931145   136A      3.941199   137A      3.945982  
     138A      3.986705   139A      4.072282   140A      4.654782  
     141A      4.656549   142A      4.675903   143A      4.684566  
     144A      4.725517   145A      6.450982   146A     13.878058  
     147A     27.712507   148A     27.716050   149A     27.761639  
     150A    160.735856  

    Final Occupation by Irrep:
              A 
    DOCC [    14 ]
    NA   [    14 ]
    NB   [    14 ]

  @DF-RHF Final Energy:  -621.45481571879418

   => Energetics <=

    Nuclear Repulsion Energy =             41.7518303615032806
    One-Electron Energy =                -948.8363152308762665
    Two-Electron Energy =                 285.6296691505788772
    Total Energy =                       -621.4548157187941797

Computation Completed


Properties will be evaluated at   0.000000,   0.000000,   0.000000 [a0]

Properties computed using the SCF density matrix


 Multipole Moments:

 ------------------------------------------------------------------------------------
     Multipole            Electronic (a.u.)      Nuclear  (a.u.)        Total (a.u.)
 ------------------------------------------------------------------------------------

 L = 1.  Multiply by 2.5417464519 to convert [e a0] to [Debye]
 Dipole X            :         -0.0000610            0.0000000           -0.0000610
 Dipole Y            :        -79.8254141           76.1403745           -3.6850396
 Dipole Z            :         -0.0000000            0.0000000           -0.0000000
 Magnitude           :                                                    3.6850396

 ------------------------------------------------------------------------------------

*** tstop() called on moses-razer at Wed Jan  3 19:58:15 2024
Module time:
	user time   =       7.58 seconds =       0.13 minutes
	system time =       0.82 seconds =       0.01 minutes
	total time  =          2 seconds =       0.03 minutes
Total time:
	user time   =      17.09 seconds =       0.28 minutes
	system time =       1.64 seconds =       0.03 minutes
	total time  =          5 seconds =       0.08 minutes

*** tstart() called on moses-razer
*** at Wed Jan  3 19:58:15 2024


  //>>>>>>>>>>>>>>>>>>>>>>>>>>>>>>>>>>>//
  //               DFMP2               //
  //<<<<<<<<<<<<<<<<<<<<<<<<<<<<<<<<<<<//

   => Loading Basis Set <=

    Name: (AUG-CC-PVTZ AUX)
    Role: RIFIT
    Keyword: DF_BASIS_MP2
    atoms 1   entry NA         line   610 file /home/kchung25/anaconda3/envs/p415env/share/psi4/basis/def2-qzvpp-ri.gbs 
    atoms 2-3 entry CL         line   742 file /home/kchung25/anaconda3/envs/p415env/share/psi4/basis/aug-cc-pvtz-ri.gbs 

	 --------------------------------------------------------
	                          DF-MP2                         
	      2nd-Order Density-Fitted Moller-Plesset Theory     
	              RMP2 Wavefunction,   6 Threads             
	                                                         
	        Rob Parrish, Justin Turney, Andy Simmonett,      
	           Ed Hohenstein, and C. David Sherrill          
	 --------------------------------------------------------

   => Auxiliary Basis Set <=

  Basis Set: (AUG-CC-PVTZ AUX)
    Blend: AUG-CC-PVTZ-RI + DEF2-QZVPP-RI
    Number of shells: 116
    Number of basis functions: 460
    Number of Cartesian functions: 596
    Spherical Harmonics?: true
    Max angular momentum: 4

	 --------------------------------------------------------
	                 NBF =   150, NAUX =   460
	 --------------------------------------------------------
	   CLASS    FOCC     OCC    AOCC    AVIR     VIR    FVIR
	   PAIRS       0      14      14     136     136       0
	 --------------------------------------------------------

	-----------------------------------------------------------
	 ==================> DF-MP2 Energies <==================== 
	-----------------------------------------------------------
	 Reference Energy          =    -621.4548157187941797 [Eh]
	 Singles Energy            =      -0.0000000000000000 [Eh]
	 Same-Spin Energy          =      -0.0653582685760828 [Eh]
	 Opposite-Spin Energy      =      -0.1893298051314990 [Eh]
	 Correlation Energy        =      -0.2546880737075818 [Eh]
	 Total Energy              =    -621.7095037925017778 [Eh]
	-----------------------------------------------------------
	 ================> DF-SCS-MP2 Energies <================== 
	-----------------------------------------------------------
	 SCS Same-Spin Scale       =       0.3333333333333333 [-]
	 SCS Opposite-Spin Scale   =       1.2000000000000000 [-]
	 SCS Same-Spin Energy      =      -0.0217860895253609 [Eh]
	 SCS Opposite-Spin Energy  =      -0.2271957661577988 [Eh]
	 SCS Correlation Energy    =      -0.2489818556831598 [Eh]
	 SCS Total Energy          =    -621.7037975744773348 [Eh]
	-----------------------------------------------------------


*** tstop() called on moses-razer at Wed Jan  3 19:58:17 2024
Module time:
	user time   =       3.17 seconds =       0.05 minutes
	system time =       0.24 seconds =       0.00 minutes
	total time  =          2 seconds =       0.03 minutes
Total time:
	user time   =      20.27 seconds =       0.34 minutes
	system time =       1.88 seconds =       0.03 minutes
	total time  =          7 seconds =       0.12 minutes

    Psi4 stopped on: Wednesday, 03 January 2024 07:58PM
    Psi4 wall time for execution: 0:00:03.50


    -----------------------------------------------------------------------
          Psi4: An Open-Source Ab Initio Electronic Structure Package
                               Psi4 1.9 release

                         Git: Rev {} zzzzzzz 


    D. G. A. Smith, L. A. Burns, A. C. Simmonett, R. M. Parrish,
    M. C. Schieber, R. Galvelis, P. Kraus, H. Kruse, R. Di Remigio,
    A. Alenaizan, A. M. James, S. Lehtola, J. P. Misiewicz, M. Scheurer,
    R. A. Shaw, J. B. Schriber, Y. Xie, Z. L. Glick, D. A. Sirianni,
    J. S. O'Brien, J. M. Waldrop, A. Kumar, E. G. Hohenstein,
    B. P. Pritchard, B. R. Brooks, H. F. Schaefer III, A. Yu. Sokolov,
    K. Patkowski, A. E. DePrince III, U. Bozkaya, R. A. King,
    F. A. Evangelista, J. M. Turney, T. D. Crawford, C. D. Sherrill,
    J. Chem. Phys. 152(18) 184108 (2020). https://doi.org/10.1063/5.0006002

                            Additional Code Authors
    E. T. Seidl, C. L. Janssen, E. F. Valeev, M. L. Leininger,
    J. F. Gonthier, R. M. Richard, H. R. McAlexander, M. Saitow, X. Wang,
    P. Verma, M. H. Lechner, A. Jiang, S. Behnle, A. G. Heide,
    M. F. Herbst, and D. L. Poole

             Previous Authors, Complete List of Code Contributors,
                       and Citations for Specific Modules
    https://github.com/psi4/psi4/blob/master/codemeta.json
    https://github.com/psi4/psi4/graphs/contributors
    http://psicode.org/psi4manual/master/introduction.html#citing-psifour

    -----------------------------------------------------------------------


    Psi4 started on: Wednesday, 03 January 2024 07:58PM

    Process ID: 435513
    Host:       moses-razer
    PSIDATADIR: /home/kchung25/anaconda3/envs/psi4_19/share/psi4
    Memory:     55.9 GiB
    Threads:    6
    
  ==> Input QCSchema <==

--------------------------------------------------------------------------
{'driver': 'energy',
 'extras': {'psiapi': True, 'wfn_qcvars_only': True},
 'id': None,
 'keywords': {'SCF_TYPE': 'DF', 'function_kwargs': {}},
 'model': {'basis': 'aug-cc-pvtz', 'method': 'mp2'},
 'molecule': {'atom_labels': ['', '', ''],
              'atomic_numbers': [11, 17, 17],
              'extras': {},
              'fix_com': True,
              'fix_orientation': True,
              'fix_symmetry': 'c1',
              'fragment_charges': [0.0, -1.0],
              'fragment_multiplicities': [1, 1],
              'fragments': [[0, 1], [2]],
              'geometry': [0.0, 0.0, 0.0, 0.0, 4.478845559125975, 0.0, 8.95769111825195, 0.0, 0.0],
              'mass_numbers': [23, 35, 35],
              'masses': [22.989769282, 34.968852682, 34.968852682],
              'molecular_charge': -1.0,
              'molecular_multiplicity': 1,
              'name': 'dimer',
              'provenance': {'creator': 'QCElemental',
                             'routine': 'qcelemental.molparse.from_string',
                             'version': '0.27.1'},
              'real': [True, True, True],
              'schema_name': 'qcschema_molecule',
              'schema_version': 2,
              'symbols': ['Na', 'Cl', 'Cl'],
              'validated': True},
 'protocols': {'stdout': True},
 'provenance': {'creator': 'QCElemental', 'routine': 'qcelemental.models.results', 'version': '0.27.1'},
 'schema_name': 'qcschema_input',
 'schema_version': 1}
--------------------------------------------------------------------------

Scratch directory: /scratch/
   => Libint2 <=

    Primary   basis highest AM E, G, H:  5, 4, 3
    Auxiliary basis highest AM E, G, H:  6, 5, 4
    Onebody   basis highest AM E, G, H:  6, 5, 4
    Solid Harmonics ordering:            gaussian

*** tstart() called on moses-razer
*** at Wed Jan  3 19:58:17 2024

   => Loading Basis Set <=

    Name: AUG-CC-PVTZ
    Role: ORBITAL
    Keyword: BASIS
    atoms 1   entry NA         line   469 file /home/kchung25/anaconda3/envs/p415env/share/psi4/basis/aug-cc-pvtz.gbs 
    atoms 2-3 entry CL         line   988 file /home/kchung25/anaconda3/envs/p415env/share/psi4/basis/aug-cc-pvtz.gbs 


         ---------------------------------------------------------
                                   SCF
               by Justin Turney, Rob Parrish, Andy Simmonett
                          and Daniel G. A. Smith
                              RHF Reference
                        6 Threads,  57220 MiB Core
         ---------------------------------------------------------

  ==> Geometry <==

    Molecular point group: c1
    Full point group: Cs

    Geometry (in Bohr), charge = -1, multiplicity = 1:

       Center              X                  Y                   Z               Mass       
    ------------   -----------------  -----------------  -----------------  -----------------
         NA           0.000000000000     0.000000000000     0.000000000000    22.989769282000
         CL           0.000000000000     4.478845559126     0.000000000000    34.968852682000
         CL           8.957691118252     0.000000000000     0.000000000000    34.968852682000

  Running in c1 symmetry.

  Rotational constants: A =      0.08582  B =      0.02145  C =      0.01716 [cm^-1]
  Rotational constants: A =   2572.77245  B =    643.19311  C =    514.55449 [MHz]
  Nuclear repulsion =   91.484451448566489

  Charge       = -1
  Multiplicity = 1
  Electrons    = 46
  Nalpha       = 23
  Nbeta        = 23

  ==> Algorithm <==

  SCF Algorithm Type is DF.
  DIIS enabled.
  MOM disabled.
  Fractional occupation disabled.
  Guess Type is SAD.
  Energy threshold   = 1.00e-08
  Density threshold  = 1.00e-08
  Integral threshold = 1.00e-12

  ==> Primary Basis <==

  Basis Set: AUG-CC-PVTZ
    Blend: AUG-CC-PVTZ
    Number of shells: 48
    Number of basis functions: 150
    Number of Cartesian functions: 177
    Spherical Harmonics?: true
    Max angular momentum: 3

   => Loading Basis Set <=

    Name: (AUG-CC-PVTZ AUX)
    Role: JKFIT
    Keyword: DF_BASIS_SCF
    atoms 1   entry NA         line   498 file /home/kchung25/anaconda3/envs/p415env/share/psi4/basis/def2-universal-jkfit.gbs 
    atoms 2-3 entry CL         line   816 file /home/kchung25/anaconda3/envs/p415env/share/psi4/basis/aug-cc-pvtz-jkfit.gbs 

  ==> Integral Setup <==

  DFHelper Memory: AOs need 0.072 GiB; user supplied 41.910 GiB. 
  Using in-core AOs.

  ==> MemDFJK: Density-Fitted J/K Matrices <==

    J tasked:                   Yes
    K tasked:                   Yes
    wK tasked:                   No
    OpenMP threads:               6
    Memory [MiB]:             42915
    Algorithm:                 Core
    Schwarz Cutoff:           1E-12
    Mask sparsity (%):       3.3689
    Fitting Condition:        1E-10

   => Auxiliary Basis Set <=

  Basis Set: (AUG-CC-PVTZ AUX)
    Blend: AUG-CC-PVTZ-JKFIT + DEF2-UNIVERSAL-JKFIT
    Number of shells: 118
    Number of basis functions: 404
    Number of Cartesian functions: 497
    Spherical Harmonics?: true
    Max angular momentum: 4

  Minimum eigenvalue in the overlap matrix is 6.0117865333E-05.
  Reciprocal condition number of the overlap matrix is 1.1685096835E-05.
    Using symmetric orthogonalization.

  ==> Pre-Iterations <==

  SCF Guess: Superposition of Atomic Densities via on-the-fly atomic UHF (no occupation information).

   -------------------------
    Irrep   Nso     Nmo    
   -------------------------
     A        150     150 
   -------------------------
    Total     150     150
   -------------------------

  ==> Iterations <==

                           Total Energy        Delta E     RMS |[F,P]|

   @DF-RHF iter SAD: -1080.06158540259298   -1.08006e+03   0.00000e+00 
   @DF-RHF iter   1: -1080.92903519254241   -8.67450e-01   2.75404e-03 DIIS/ADIIS
   @DF-RHF iter   2: -1081.02337614584872   -9.43410e-02   1.35028e-03 DIIS/ADIIS
   @DF-RHF iter   3: -1081.03853835741484   -1.51622e-02   8.62840e-05 DIIS
   @DF-RHF iter   4: -1081.03864547707644   -1.07120e-04   2.10135e-05 DIIS
   @DF-RHF iter   5: -1081.03865586995721   -1.03929e-05   5.90136e-06 DIIS
   @DF-RHF iter   6: -1081.03865686705171   -9.97095e-07   1.60724e-06 DIIS
   @DF-RHF iter   7: -1081.03865702503185   -1.57980e-07   3.60166e-07 DIIS
   @DF-RHF iter   8: -1081.03865703211000   -7.07814e-09   1.10127e-07 DIIS
   @DF-RHF iter   9: -1081.03865703273755   -6.27551e-10   1.86072e-08 DIIS
   @DF-RHF iter  10: -1081.03865703275551   -1.79625e-11   4.40934e-09 DIIS
  Energy and wave function converged.


  ==> Post-Iterations <==

    Orbital Energies [Eh]
    ---------------------

    Doubly Occupied:                                                      

       1A   -104.602185     2A   -104.518067     3A    -40.391599  
       4A    -10.327462     5A    -10.241760     6A     -7.793683  
       7A     -7.793403     8A     -7.793366     9A     -7.707825  
      10A     -7.707781    11A     -7.707760    12A     -2.713083  
      13A     -1.436169    14A     -1.435926    15A     -1.435558  
      16A     -0.840697    17A     -0.745318    18A     -0.268799  
      19A     -0.252634    20A     -0.251293    21A     -0.162687  
      22A     -0.161969    23A     -0.161530  

    Virtual:                                                              

      24A      0.057169    25A      0.078976    26A      0.081567  
      27A      0.086147    28A      0.104511    29A      0.116772  
      30A      0.124498    31A      0.133564    32A      0.148503  
      33A      0.151062    34A      0.169878    35A      0.170262  
      36A      0.180345    37A      0.205747    38A      0.206709  
      39A      0.217519    40A      0.262637    41A      0.277271  
      42A      0.284980    43A      0.286013    44A      0.297421  
      45A      0.302052    46A      0.308173    47A      0.311631  
      48A      0.316651    49A      0.318331    50A      0.331862  
      51A      0.348793    52A      0.367049    53A      0.376416  
      54A      0.387022    55A      0.389522    56A      0.394238  
      57A      0.431221    58A      0.440646    59A      0.441176  
      60A      0.452033    61A      0.458802    62A      0.489901  
      63A      0.567659    64A      0.582750    65A      0.586459  
      66A      0.595316    67A      0.600714    68A      0.605931  
      69A      0.612331    70A      0.626755    71A      0.630664  
      72A      0.651625    73A      0.664770    74A      0.685016  
      75A      0.715358    76A      0.725265    77A      0.736281  
      78A      0.751304    79A      0.799054    80A      0.809529  
      81A      0.815505    82A      0.822276    83A      0.860091  
      84A      0.878012    85A      0.901311    86A      0.902353  
      87A      0.967681    88A      0.974969    89A      0.976269  
      90A      1.013540    91A      1.106488    92A      1.186456  
      93A      1.197033    94A      1.215752    95A      1.220223  
      96A      1.242704    97A      1.250089    98A      1.255163  
      99A      1.261460   100A      1.269644   101A      1.277522  
     102A      1.362759   103A      1.388848   104A      1.391182  
     105A      1.421396   106A      1.457508   107A      1.457608  
     108A      1.460225   109A      1.460690   110A      1.471069  
     111A      1.475943   112A      1.488210   113A      1.488925  
     114A      1.519825   115A      1.693754   116A      1.700392  
     117A      1.869164   118A      2.286775   119A      2.781014  
     120A      2.785861   121A      2.820214   122A      2.820927  
     123A      2.833616   124A      2.837215   125A      2.844839  
     126A      2.851719   127A      2.877630   128A      2.886398  
     129A      2.984160   130A      2.985705   131A      3.016293  
     132A      3.023986   133A      3.061731   134A      3.155363  
     135A      3.284097   136A      3.285677   137A      3.340884  
     138A      3.341708   139A      3.362304   140A      3.362398  
     141A      3.364026   142A      3.364245   143A      3.372305  
     144A      3.378056   145A      3.388432   146A      3.400569  
     147A      3.489022   148A      3.493291   149A      5.622627  
     150A      6.552066  

    Final Occupation by Irrep:
              A 
    DOCC [    23 ]
    NA   [    23 ]
    NB   [    23 ]

  @DF-RHF Final Energy: -1081.03865703275551

   => Energetics <=

    Nuclear Repulsion Energy =             91.4844514485664888
    One-Electron Energy =               -1692.1451088505418738
    Two-Electron Energy =                 519.6220003692199043
    Total Energy =                      -1081.0386570327555091

Computation Completed


Properties will be evaluated at   0.000000,   0.000000,   0.000000 [a0]

Properties computed using the SCF density matrix


 Multipole Moments:

 ------------------------------------------------------------------------------------
     Multipole            Electronic (a.u.)      Nuclear  (a.u.)        Total (a.u.)
 ------------------------------------------------------------------------------------

 L = 1.  Multiply by 2.5417464519 to convert [e a0] to [Debye]
 Dipole X            :       -160.8995699          152.2807490           -8.6188209
 Dipole Y            :        -79.8252427           76.1403745           -3.6848682
 Dipole Z            :          0.0000000            0.0000000            0.0000000
 Magnitude           :                                                    9.3734906

 ------------------------------------------------------------------------------------

*** tstop() called on moses-razer at Wed Jan  3 19:58:19 2024
Module time:
	user time   =       7.74 seconds =       0.13 minutes
	system time =       0.77 seconds =       0.01 minutes
	total time  =          2 seconds =       0.03 minutes
Total time:
	user time   =      28.23 seconds =       0.47 minutes
	system time =       2.66 seconds =       0.04 minutes
	total time  =          9 seconds =       0.15 minutes

*** tstart() called on moses-razer
*** at Wed Jan  3 19:58:19 2024


  //>>>>>>>>>>>>>>>>>>>>>>>>>>>>>>>>>>>//
  //               DFMP2               //
  //<<<<<<<<<<<<<<<<<<<<<<<<<<<<<<<<<<<//

   => Loading Basis Set <=

    Name: (AUG-CC-PVTZ AUX)
    Role: RIFIT
    Keyword: DF_BASIS_MP2
    atoms 1   entry NA         line   610 file /home/kchung25/anaconda3/envs/p415env/share/psi4/basis/def2-qzvpp-ri.gbs 
    atoms 2-3 entry CL         line   742 file /home/kchung25/anaconda3/envs/p415env/share/psi4/basis/aug-cc-pvtz-ri.gbs 

	 --------------------------------------------------------
	                          DF-MP2                         
	      2nd-Order Density-Fitted Moller-Plesset Theory     
	              RMP2 Wavefunction,   6 Threads             
	                                                         
	        Rob Parrish, Justin Turney, Andy Simmonett,      
	           Ed Hohenstein, and C. David Sherrill          
	 --------------------------------------------------------

   => Auxiliary Basis Set <=

  Basis Set: (AUG-CC-PVTZ AUX)
    Blend: AUG-CC-PVTZ-RI + DEF2-QZVPP-RI
    Number of shells: 116
    Number of basis functions: 460
    Number of Cartesian functions: 596
    Spherical Harmonics?: true
    Max angular momentum: 4

	 --------------------------------------------------------
	                 NBF =   150, NAUX =   460
	 --------------------------------------------------------
	   CLASS    FOCC     OCC    AOCC    AVIR     VIR    FVIR
	   PAIRS       0      23      23     127     127       0
	 --------------------------------------------------------

	-----------------------------------------------------------
	 ==================> DF-MP2 Energies <==================== 
	-----------------------------------------------------------
	 Reference Energy          =   -1081.0386570327555091 [Eh]
	 Singles Energy            =      -0.0000000000000000 [Eh]
	 Same-Spin Energy          =      -0.1278897969222467 [Eh]
	 Opposite-Spin Energy      =      -0.3684165056316169 [Eh]
	 Correlation Energy        =      -0.4963063025538637 [Eh]
	 Total Energy              =   -1081.5349633353093850 [Eh]
	-----------------------------------------------------------
	 ================> DF-SCS-MP2 Energies <================== 
	-----------------------------------------------------------
	 SCS Same-Spin Scale       =       0.3333333333333333 [-]
	 SCS Opposite-Spin Scale   =       1.2000000000000000 [-]
	 SCS Same-Spin Energy      =      -0.0426299323074156 [Eh]
	 SCS Opposite-Spin Energy  =      -0.4420998067579403 [Eh]
	 SCS Correlation Energy    =      -0.4847297390653559 [Eh]
	 SCS Total Energy          =   -1081.5233867718209240 [Eh]
	-----------------------------------------------------------


*** tstop() called on moses-razer at Wed Jan  3 19:58:20 2024
Module time:
	user time   =       3.42 seconds =       0.06 minutes
	system time =       0.22 seconds =       0.00 minutes
	total time  =          1 seconds =       0.02 minutes
Total time:
	user time   =      31.65 seconds =       0.53 minutes
	system time =       2.88 seconds =       0.05 minutes
	total time  =         10 seconds =       0.17 minutes

    Psi4 stopped on: Wednesday, 03 January 2024 07:58PM
    Psi4 wall time for execution: 0:00:03.53


  //>>>>>>>>>>>>>>>>>>>>>>>>>>>>>>>>>>>//
  //          ManyBody Results         //
  //<<<<<<<<<<<<<<<<<<<<<<<<<<<<<<<<<<<//


   ==> N-Body: Counterpoise Corrected (CP) energies <==

        n-Body     Total Energy            Interaction Energy                          N-body Contribution to Interaction Energy
                   [Eh]                    [Eh]                  [kcal/mol]            [Eh]                  [kcal/mol]
             1  N/A                         0.000000000000        0.000000000000        0.000000000000        0.000000000000
  FULL/RTN   2  N/A                        -0.010723753296       -6.729256787920       -0.010723753296       -6.729256787920


    Psi4 stopped on: Wednesday, 03 January 2024 07:58PM
    Psi4 wall time for execution: 0:00:11.77

*** Psi4 exiting successfully. Buy a developer a beer!
