
    -----------------------------------------------------------------------
          Psi4: An Open-Source Ab Initio Electronic Structure Package
                               Psi4 1.8.2 release

                         Git: Rev {} zzzzzzz 


    D. G. A. Smith, L. A. Burns, A. C. Simmonett, R. M. Parrish,
    M. C. Schieber, R. Galvelis, P. Kraus, H. Kruse, R. Di Remigio,
    A. Alenaizan, A. M. James, S. Lehtola, J. P. Misiewicz, M. Scheurer,
    R. A. Shaw, J. B. Schriber, Y. Xie, Z. L. Glick, D. A. Sirianni,
    J. S. O'Brien, J. M. Waldrop, A. Kumar, E. G. Hohenstein,
    B. P. Pritchard, B. R. Brooks, H. F. Schaefer III, A. Yu. Sokolov,
    K. Patkowski, A. E. DePrince III, U. Bozkaya, R. A. King,
    F. A. Evangelista, J. M. Turney, T. D. Crawford, C. D. Sherrill,
    J. Chem. Phys. 152(18) 184108 (2020). https://doi.org/10.1063/5.0006002

                            Additional Code Authors
    E. T. Seidl, C. L. Janssen, E. F. Valeev, M. L. Leininger,
    J. F. Gonthier, R. M. Richard, H. R. McAlexander, M. Saitow, X. Wang,
    P. Verma, M. H. Lechner, A. Jiang, S. Behnle, A. G. Heide,
    M. F. Herbst, and D. L. Poole

             Previous Authors, Complete List of Code Contributors,
                       and Citations for Specific Modules
    https://github.com/psi4/psi4/blob/master/codemeta.json
    https://github.com/psi4/psi4/graphs/contributors
    http://psicode.org/psi4manual/master/introduction.html#citing-psifour

    -----------------------------------------------------------------------


    Psi4 started on: Monday, 22 January 2024 12:04PM

    Process ID: 46352
    Host:       ddmfs1
    PSIDATADIR: /ddmfs1b/softs/psi4conda/share/psi4
    Memory:     500.0 MiB
    Threads:    20
    
  ==> Input File <==

--------------------------------------------------------------------------
MEMORY 60 GB

molecule dimer {
-1 1
Gh(Na)     0.000000     0.000000     0.000000
Gh(Cl)     0.000000     2.370103     0.000000
Cl         3.081134     0.000000     0.000000

units ang
no_reorient
no_com
symmetry c1
}

set {
basis        aug-cc-pVTZ
scf_type     df
}

energy("mp2")
--------------------------------------------------------------------------

  Memory set to  55.879 GiB by Python driver.

Scratch directory: /ddmfs1a/scratch/
   => Libint2 <=

    Primary   basis highest AM E, G, H:  5, 4, 3
    Auxiliary basis highest AM E, G, H:  6, 5, 4
    Onebody   basis highest AM E, G, H:  6, 5, 4
    Solid Harmonics ordering:            gaussian

*** tstart() called on ddmfs1
*** at Mon Jan 22 12:04:16 2024

   => Loading Basis Set <=

    Name: AUG-CC-PVTZ
    Role: ORBITAL
    Keyword: BASIS
    atoms 1   entry NA         line   469 file /ddmfs1b/softs/psi4conda/share/psi4/basis/aug-cc-pvtz.gbs 
    atoms 2-3 entry CL         line   988 file /ddmfs1b/softs/psi4conda/share/psi4/basis/aug-cc-pvtz.gbs 


         ---------------------------------------------------------
                                   SCF
               by Justin Turney, Rob Parrish, Andy Simmonett
                          and Daniel G. A. Smith
                              RHF Reference
                       20 Threads,  57220 MiB Core
         ---------------------------------------------------------

  ==> Geometry <==

    Molecular point group: c1
    Full point group: Cs

    Geometry (in Angstrom), charge = -1, multiplicity = 1:

       Center              X                  Y                   Z               Mass       
    ------------   -----------------  -----------------  -----------------  -----------------
      Gh(NA)          0.000000000000     0.000000000000     0.000000000000    22.989769282000
      Gh(CL)          0.000000000000     2.370103000000     0.000000000000    34.968852682000
         CL           3.081134000000     0.000000000000     0.000000000000    34.968852682000

  Running in c1 symmetry.

  Rotational constants: A =      0.08582  B =      0.05078  C =      0.03190 [cm^-1]
  Rotational constants: A =   2572.77245  B =   1522.35046  C =    956.42094 [MHz]
  Nuclear repulsion =    0.000000000000000

  Charge       = -1
  Multiplicity = 1
  Electrons    = 18
  Nalpha       = 9
  Nbeta        = 9

  ==> Algorithm <==

  SCF Algorithm Type is DF.
  DIIS enabled.
  MOM disabled.
  Fractional occupation disabled.
  Guess Type is SAD.
  Energy threshold   = 1.00e-08
  Density threshold  = 1.00e-08
  Integral threshold = 1.00e-12

  ==> Primary Basis <==

  Basis Set: AUG-CC-PVTZ
    Blend: AUG-CC-PVTZ
    Number of shells: 48
    Number of basis functions: 150
    Number of Cartesian functions: 177
    Spherical Harmonics?: true
    Max angular momentum: 3

   => Loading Basis Set <=

    Name: (AUG-CC-PVTZ AUX)
    Role: JKFIT
    Keyword: DF_BASIS_SCF
    atoms 1   entry NA         line   498 file /ddmfs1b/softs/psi4conda/share/psi4/basis/def2-universal-jkfit.gbs 
    atoms 2-3 entry CL         line   816 file /ddmfs1b/softs/psi4conda/share/psi4/basis/aug-cc-pvtz-jkfit.gbs 

  ==> Integral Setup <==

  DFHelper Memory: AOs need 0.077 GiB; user supplied 41.910 GiB. 
  Using in-core AOs.

  ==> MemDFJK: Density-Fitted J/K Matrices <==

    J tasked:                   Yes
    K tasked:                   Yes
    wK tasked:                   No
    OpenMP threads:              20
    Memory [MiB]:             42915
    Algorithm:                 Core
    Schwarz Cutoff:           1E-12
    Mask sparsity (%):       0.0089
    Fitting Condition:        1E-10

   => Auxiliary Basis Set <=

  Basis Set: (AUG-CC-PVTZ AUX)
    Blend: AUG-CC-PVTZ-JKFIT + DEF2-UNIVERSAL-JKFIT
    Number of shells: 118
    Number of basis functions: 404
    Number of Cartesian functions: 497
    Spherical Harmonics?: true
    Max angular momentum: 4

  Minimum eigenvalue in the overlap matrix is 5.9383505042E-05.
  Reciprocal condition number of the overlap matrix is 1.0459376035E-05.
    Using symmetric orthogonalization.

  ==> Pre-Iterations <==

  SCF Guess: Superposition of Atomic Densities via on-the-fly atomic UHF (no occupation information).

   -------------------------
    Irrep   Nso     Nmo    
   -------------------------
     A        150     150 
   -------------------------
    Total     150     150
   -------------------------

  ==> Iterations <==

                           Total Energy        Delta E     RMS |[F,P]|

   @DF-RHF iter SAD:  -459.11248995477717   -4.59112e+02   0.00000e+00 
   @DF-RHF iter   1:  -459.51385916913136   -4.01369e-01   1.98826e-03 ADIIS/DIIS
   @DF-RHF iter   2:  -459.56473874918191   -5.08796e-02   1.01657e-03 ADIIS/DIIS
   @DF-RHF iter   3:  -459.57344304100991   -8.70429e-03   6.71871e-05 DIIS
   @DF-RHF iter   4:  -459.57349733768308   -5.42967e-05   1.37881e-05 DIIS
   @DF-RHF iter   5:  -459.57350100879512   -3.67111e-06   1.41703e-06 DIIS
   @DF-RHF iter   6:  -459.57350108923879   -8.04437e-08   1.09975e-07 DIIS
   @DF-RHF iter   7:  -459.57350108994461   -7.05825e-10   1.42391e-08 DIIS
   @DF-RHF iter   8:  -459.57350108996388   -1.92699e-11   2.08206e-09 DIIS
  Energy and wave function converged.


  ==> Post-Iterations <==

    Orbital Energies [Eh]
    ---------------------

    Doubly Occupied:                                                      

       1A   -104.506272     2A    -10.229818     3A     -7.695865  
       4A     -7.695862     5A     -7.695846     6A     -0.733502  
       7A     -0.150338     8A     -0.150326     9A     -0.150326  

    Virtual:                                                              

      10A      0.073246    11A      0.085224    12A      0.086120  
      13A      0.102610    14A      0.131317    15A      0.141119  
      16A      0.143862    17A      0.156279    18A      0.165210  
      19A      0.165938    20A      0.175798    21A      0.181187  
      22A      0.205670    23A      0.226836    24A      0.245257  
      25A      0.246910    26A      0.254499    27A      0.270639  
      28A      0.271685    29A      0.286551    30A      0.320851  
      31A      0.324130    32A      0.324653    33A      0.354497  
      34A      0.369479    35A      0.380154    36A      0.381107  
      37A      0.393108    38A      0.418861    39A      0.424125  
      40A      0.439207    41A      0.453745    42A      0.458785  
      43A      0.473967    44A      0.476736    45A      0.486163  
      46A      0.504884    47A      0.530037    48A      0.543196  
      49A      0.589608    50A      0.597395    51A      0.603529  
      52A      0.613887    53A      0.639873    54A      0.642391  
      55A      0.660631    56A      0.681031    57A      0.705835  
      58A      0.716807    59A      0.720428    60A      0.734300  
      61A      0.769196    62A      0.795196    63A      0.853200  
      64A      0.866188    65A      0.874423    66A      0.904268  
      67A      0.918460    68A      0.929264    69A      0.934122  
      70A      0.940652    71A      0.966642    72A      0.989332  
      73A      1.005131    74A      1.008886    75A      1.021300  
      76A      1.047878    77A      1.077523    78A      1.194128  
      79A      1.244519    80A      1.259446    81A      1.292320  
      82A      1.320129    83A      1.321483    84A      1.365322  
      85A      1.434515    86A      1.445285    87A      1.460360  
      88A      1.470140    89A      1.474739    90A      1.488474  
      91A      1.506048    92A      1.519442    93A      1.534693  
      94A      1.543340    95A      1.571547    96A      1.607473  
      97A      1.631901    98A      1.641033    99A      1.650209  
     100A      1.680853   101A      1.713731   102A      1.777352  
     103A      1.830049   104A      1.831017   105A      1.852357  
     106A      1.868446   107A      1.909771   108A      2.277998  
     109A      2.852368   110A      2.861592   111A      2.913453  
     112A      2.915192   113A      2.924921   114A      3.044843  
     115A      3.068466   116A      3.201538   117A      3.377456  
     118A      3.382411   119A      3.399093   120A      3.414769  
     121A      3.471529   122A      3.488240   123A      3.587543  
     124A      4.071972   125A      4.079274   126A      4.101184  
     127A      4.139690   128A      4.145320   129A      4.159964  
     130A      4.181552   131A      4.274725   132A      4.315471  
     133A      4.345611   134A      4.615424   135A      4.841067  
     136A      4.852470   137A      4.902585   138A      4.907814  
     139A      4.930653   140A      5.168625   141A      5.792596  
     142A      6.513781   143A      6.816503   144A      7.209431  
     145A     15.154950   146A     27.973379   147A     28.007280  
     148A     28.189704   149A     64.685185   150A    161.026610  

    Final Occupation by Irrep:
              A 
    DOCC [     9 ]
    NA   [     9 ]
    NB   [     9 ]

  @DF-RHF Final Energy:  -459.57350108996388

   => Energetics <=

    Nuclear Repulsion Energy =              0.0000000000000000
    One-Electron Energy =                -641.1306899218454873
    Two-Electron Energy =                 181.5571888318816320
    Total Energy =                       -459.5735010899638837

Computation Completed


Properties will be evaluated at   0.000000,   0.000000,   0.000000 [a0]

Properties computed using the SCF density matrix


 Multipole Moments:

 ------------------------------------------------------------------------------------
     Multipole            Electronic (a.u.)      Nuclear  (a.u.)        Total (a.u.)
 ------------------------------------------------------------------------------------

 L = 1.  Multiply by 2.5417464519 to convert [e a0] to [Debye]
 Dipole X            :       -104.8052427           98.9824901           -5.8227526
 Dipole Y            :          0.0000238            0.0000000            0.0000238
 Dipole Z            :         -0.0000000            0.0000000           -0.0000000
 Magnitude           :                                                    5.8227526

 ------------------------------------------------------------------------------------

*** tstop() called on ddmfs1 at Mon Jan 22 12:04:18 2024
Module time:
	user time   =      25.81 seconds =       0.43 minutes
	system time =       3.54 seconds =       0.06 minutes
	total time  =          2 seconds =       0.03 minutes
Total time:
	user time   =      25.81 seconds =       0.43 minutes
	system time =       3.54 seconds =       0.06 minutes
	total time  =          2 seconds =       0.03 minutes

*** tstart() called on ddmfs1
*** at Mon Jan 22 12:04:18 2024


  //>>>>>>>>>>>>>>>>>>>>>>>>>>>>>>>>>>>//
  //               DFMP2               //
  //<<<<<<<<<<<<<<<<<<<<<<<<<<<<<<<<<<<//

   => Loading Basis Set <=

    Name: (AUG-CC-PVTZ AUX)
    Role: RIFIT
    Keyword: DF_BASIS_MP2
    atoms 1   entry NA         line   610 file /ddmfs1b/softs/psi4conda/share/psi4/basis/def2-qzvpp-ri.gbs 
    atoms 2-3 entry CL         line   742 file /ddmfs1b/softs/psi4conda/share/psi4/basis/aug-cc-pvtz-ri.gbs 

	 --------------------------------------------------------
	                          DF-MP2                         
	      2nd-Order Density-Fitted Moller-Plesset Theory     
	              RMP2 Wavefunction,  20 Threads             
	                                                         
	        Rob Parrish, Justin Turney, Andy Simmonett,      
	           Ed Hohenstein, and C. David Sherrill          
	 --------------------------------------------------------

   => Auxiliary Basis Set <=

  Basis Set: (AUG-CC-PVTZ AUX)
    Blend: AUG-CC-PVTZ-RI + DEF2-QZVPP-RI
    Number of shells: 116
    Number of basis functions: 460
    Number of Cartesian functions: 596
    Spherical Harmonics?: true
    Max angular momentum: 4

	 --------------------------------------------------------
	                 NBF =   150, NAUX =   460
	 --------------------------------------------------------
	   CLASS    FOCC     OCC    AOCC    AVIR     VIR    FVIR
	   PAIRS       0       9       9     141     141       0
	 --------------------------------------------------------

	-----------------------------------------------------------
	 ==================> DF-MP2 Energies <==================== 
	-----------------------------------------------------------
	 Reference Energy          =    -459.5735010899638837 [Eh]
	 Singles Energy            =      -0.0000000000000000 [Eh]
	 Same-Spin Energy          =      -0.0625263133624707 [Eh]
	 Opposite-Spin Energy      =      -0.1795239355736122 [Eh]
	 Correlation Energy        =      -0.2420502489360829 [Eh]
	 Total Energy              =    -459.8155513388999793 [Eh]
	-----------------------------------------------------------
	 ================> DF-SCS-MP2 Energies <================== 
	-----------------------------------------------------------
	 SCS Same-Spin Scale       =       0.3333333333333333 [-]
	 SCS Opposite-Spin Scale   =       1.2000000000000000 [-]
	 SCS Same-Spin Energy      =      -0.0208421044541569 [Eh]
	 SCS Opposite-Spin Energy  =      -0.2154287226883347 [Eh]
	 SCS Correlation Energy    =      -0.2362708271424916 [Eh]
	 SCS Total Energy          =    -459.8097719171063886 [Eh]
	-----------------------------------------------------------


*** tstop() called on ddmfs1 at Mon Jan 22 12:04:23 2024
Module time:
	user time   =      12.49 seconds =       0.21 minutes
	system time =       1.07 seconds =       0.02 minutes
	total time  =          5 seconds =       0.08 minutes
Total time:
	user time   =      38.31 seconds =       0.64 minutes
	system time =       4.61 seconds =       0.08 minutes
	total time  =          7 seconds =       0.12 minutes

    Psi4 stopped on: Monday, 22 January 2024 12:04PM
    Psi4 wall time for execution: 0:00:07.33

*** Psi4 exiting successfully. Buy a developer a beer!
