
    -----------------------------------------------------------------------
          Psi4: An Open-Source Ab Initio Electronic Structure Package
                               Psi4 1.8.2 release

                         Git: Rev {} zzzzzzz 


    D. G. A. Smith, L. A. Burns, A. C. Simmonett, R. M. Parrish,
    M. C. Schieber, R. Galvelis, P. Kraus, H. Kruse, R. Di Remigio,
    A. Alenaizan, A. M. James, S. Lehtola, J. P. Misiewicz, M. Scheurer,
    R. A. Shaw, J. B. Schriber, Y. Xie, Z. L. Glick, D. A. Sirianni,
    J. S. O'Brien, J. M. Waldrop, A. Kumar, E. G. Hohenstein,
    B. P. Pritchard, B. R. Brooks, H. F. Schaefer III, A. Yu. Sokolov,
    K. Patkowski, A. E. DePrince III, U. Bozkaya, R. A. King,
    F. A. Evangelista, J. M. Turney, T. D. Crawford, C. D. Sherrill,
    J. Chem. Phys. 152(18) 184108 (2020). https://doi.org/10.1063/5.0006002

                            Additional Code Authors
    E. T. Seidl, C. L. Janssen, E. F. Valeev, M. L. Leininger,
    J. F. Gonthier, R. M. Richard, H. R. McAlexander, M. Saitow, X. Wang,
    P. Verma, M. H. Lechner, A. Jiang, S. Behnle, A. G. Heide,
    M. F. Herbst, and D. L. Poole

             Previous Authors, Complete List of Code Contributors,
                       and Citations for Specific Modules
    https://github.com/psi4/psi4/blob/master/codemeta.json
    https://github.com/psi4/psi4/graphs/contributors
    http://psicode.org/psi4manual/master/introduction.html#citing-psifour

    -----------------------------------------------------------------------


    Psi4 started on: Monday, 22 January 2024 12:04PM

    Process ID: 46440
    Host:       ddmfs1
    PSIDATADIR: /ddmfs1b/softs/psi4conda/share/psi4
    Memory:     500.0 MiB
    Threads:    20
    
  ==> Input File <==

--------------------------------------------------------------------------
MEMORY 60 GB

molecule dimer {
-1 1
Gh(Na)     0.000000     0.000000     0.000000
Gh(Cl)     0.000000     2.370103     0.000000
Cl         3.318144     0.000000     0.000000

units ang
no_reorient
no_com
symmetry c1
}

set {
basis        aug-cc-pVTZ
scf_type     df
}

energy("mp2")
--------------------------------------------------------------------------

  Memory set to  55.879 GiB by Python driver.

Scratch directory: /ddmfs1a/scratch/
   => Libint2 <=

    Primary   basis highest AM E, G, H:  5, 4, 3
    Auxiliary basis highest AM E, G, H:  6, 5, 4
    Onebody   basis highest AM E, G, H:  6, 5, 4
    Solid Harmonics ordering:            gaussian

*** tstart() called on ddmfs1
*** at Mon Jan 22 12:04:49 2024

   => Loading Basis Set <=

    Name: AUG-CC-PVTZ
    Role: ORBITAL
    Keyword: BASIS
    atoms 1   entry NA         line   469 file /ddmfs1b/softs/psi4conda/share/psi4/basis/aug-cc-pvtz.gbs 
    atoms 2-3 entry CL         line   988 file /ddmfs1b/softs/psi4conda/share/psi4/basis/aug-cc-pvtz.gbs 


         ---------------------------------------------------------
                                   SCF
               by Justin Turney, Rob Parrish, Andy Simmonett
                          and Daniel G. A. Smith
                              RHF Reference
                       20 Threads,  57220 MiB Core
         ---------------------------------------------------------

  ==> Geometry <==

    Molecular point group: c1
    Full point group: Cs

    Geometry (in Angstrom), charge = -1, multiplicity = 1:

       Center              X                  Y                   Z               Mass       
    ------------   -----------------  -----------------  -----------------  -----------------
      Gh(NA)          0.000000000000     0.000000000000     0.000000000000    22.989769282000
      Gh(CL)          0.000000000000     2.370103000000     0.000000000000    34.968852682000
         CL           3.318144000000     0.000000000000     0.000000000000    34.968852682000

  Running in c1 symmetry.

  Rotational constants: A =      0.08582  B =      0.04378  C =      0.02899 [cm^-1]
  Rotational constants: A =   2572.77245  B =   1312.63916  C =    869.17995 [MHz]
  Nuclear repulsion =    0.000000000000000

  Charge       = -1
  Multiplicity = 1
  Electrons    = 18
  Nalpha       = 9
  Nbeta        = 9

  ==> Algorithm <==

  SCF Algorithm Type is DF.
  DIIS enabled.
  MOM disabled.
  Fractional occupation disabled.
  Guess Type is SAD.
  Energy threshold   = 1.00e-08
  Density threshold  = 1.00e-08
  Integral threshold = 1.00e-12

  ==> Primary Basis <==

  Basis Set: AUG-CC-PVTZ
    Blend: AUG-CC-PVTZ
    Number of shells: 48
    Number of basis functions: 150
    Number of Cartesian functions: 177
    Spherical Harmonics?: true
    Max angular momentum: 3

   => Loading Basis Set <=

    Name: (AUG-CC-PVTZ AUX)
    Role: JKFIT
    Keyword: DF_BASIS_SCF
    atoms 1   entry NA         line   498 file /ddmfs1b/softs/psi4conda/share/psi4/basis/def2-universal-jkfit.gbs 
    atoms 2-3 entry CL         line   816 file /ddmfs1b/softs/psi4conda/share/psi4/basis/aug-cc-pvtz-jkfit.gbs 

  ==> Integral Setup <==

  DFHelper Memory: AOs need 0.077 GiB; user supplied 41.910 GiB. 
  Using in-core AOs.

  ==> MemDFJK: Density-Fitted J/K Matrices <==

    J tasked:                   Yes
    K tasked:                   Yes
    wK tasked:                   No
    OpenMP threads:              20
    Memory [MiB]:             42915
    Algorithm:                 Core
    Schwarz Cutoff:           1E-12
    Mask sparsity (%):       0.1689
    Fitting Condition:        1E-10

   => Auxiliary Basis Set <=

  Basis Set: (AUG-CC-PVTZ AUX)
    Blend: AUG-CC-PVTZ-JKFIT + DEF2-UNIVERSAL-JKFIT
    Number of shells: 118
    Number of basis functions: 404
    Number of Cartesian functions: 497
    Spherical Harmonics?: true
    Max angular momentum: 4

  Minimum eigenvalue in the overlap matrix is 5.9775183109E-05.
  Reciprocal condition number of the overlap matrix is 1.0696135761E-05.
    Using symmetric orthogonalization.

  ==> Pre-Iterations <==

  SCF Guess: Superposition of Atomic Densities via on-the-fly atomic UHF (no occupation information).

   -------------------------
    Irrep   Nso     Nmo    
   -------------------------
     A        150     150 
   -------------------------
    Total     150     150
   -------------------------

  ==> Iterations <==

                           Total Energy        Delta E     RMS |[F,P]|

   @DF-RHF iter SAD:  -459.11248995203641   -4.59112e+02   0.00000e+00 
   @DF-RHF iter   1:  -459.51386209604061   -4.01372e-01   1.98808e-03 DIIS/ADIIS
   @DF-RHF iter   2:  -459.56473629123747   -5.08742e-02   1.01628e-03 DIIS/ADIIS
   @DF-RHF iter   3:  -459.57344011081699   -8.70382e-03   6.70788e-05 DIIS
   @DF-RHF iter   4:  -459.57349435844111   -5.42476e-05   1.37770e-05 DIIS
   @DF-RHF iter   5:  -459.57349803994646   -3.68151e-06   1.41918e-06 DIIS
   @DF-RHF iter   6:  -459.57349812006856   -8.01221e-08   1.06645e-07 DIIS
   @DF-RHF iter   7:  -459.57349812072289   -6.54325e-10   1.40250e-08 DIIS
   @DF-RHF iter   8:  -459.57349812074125   -1.83604e-11   2.05488e-09 DIIS
  Energy and wave function converged.


  ==> Post-Iterations <==

    Orbital Energies [Eh]
    ---------------------

    Doubly Occupied:                                                      

       1A   -104.506217     2A    -10.229805     3A     -7.695849  
       4A     -7.695847     5A     -7.695833     6A     -0.733504  
       7A     -0.150339     8A     -0.150328     9A     -0.150328  

    Virtual:                                                              

      10A      0.072217    11A      0.084818    12A      0.085639  
      13A      0.102632    14A      0.129658    15A      0.139629  
      16A      0.141925    17A      0.154631    18A      0.163386  
      19A      0.164061    20A      0.175433    21A      0.181102  
      22A      0.205038    23A      0.224134    24A      0.244607  
      25A      0.247220    26A      0.253122    27A      0.267281  
      28A      0.267321    29A      0.282176    30A      0.316566  
      31A      0.322711    32A      0.322928    33A      0.349495  
      34A      0.365210    35A      0.376321    36A      0.376946  
      37A      0.387156    38A      0.415291    39A      0.420074  
      40A      0.433926    41A      0.448879    42A      0.453462  
      43A      0.467174    44A      0.476781    45A      0.481638  
      46A      0.500860    47A      0.528003    48A      0.537440  
      49A      0.578485    50A      0.585752    51A      0.595195  
      52A      0.607907    53A      0.630285    54A      0.635772  
      55A      0.656122    56A      0.670548    57A      0.699090  
      58A      0.710887    59A      0.717430    60A      0.731884  
      61A      0.763532    62A      0.784162    63A      0.846458  
      64A      0.859365    65A      0.873294    66A      0.897790  
      67A      0.911079    68A      0.922273    69A      0.923706  
      70A      0.926038    71A      0.957257    72A      0.974469  
      73A      0.986475    74A      0.991889    75A      1.011001  
      76A      1.039825    77A      1.045675    78A      1.188560  
      79A      1.239790    80A      1.250998    81A      1.276820  
      82A      1.303331    83A      1.306168    84A      1.348150  
      85A      1.422344    86A      1.434658    87A      1.453565  
      88A      1.466062    89A      1.469049    90A      1.482445  
      91A      1.491211    92A      1.509206    93A      1.524815  
      94A      1.532929    95A      1.552891    96A      1.592765  
      97A      1.604762    98A      1.613869    99A      1.616913  
     100A      1.667541   101A      1.699827   102A      1.752611  
     103A      1.769495   104A      1.823291   105A      1.825678  
     106A      1.848133   107A      1.870954   108A      2.263838  
     109A      2.846839   110A      2.855440   111A      2.904164  
     112A      2.908235   113A      2.916234   114A      3.029842  
     115A      3.046996   116A      3.173149   117A      3.375807  
     118A      3.378932   119A      3.391205   120A      3.401353  
     121A      3.441687   122A      3.456631   123A      3.524385  
     124A      4.063931   125A      4.072191   126A      4.088531  
     127A      4.132458   128A      4.139359   129A      4.147838  
     130A      4.163213   131A      4.265649   132A      4.308845  
     133A      4.329542   134A      4.595117   135A      4.834349  
     136A      4.844620   137A      4.883949   138A      4.901374  
     139A      4.918395   140A      5.149076   141A      5.749958  
     142A      6.494490   143A      6.713786   144A      7.192110  
     145A     15.138416   146A     27.966940   147A     27.997522  
     148A     28.179919   149A     64.660347   150A    161.019526  

    Final Occupation by Irrep:
              A 
    DOCC [     9 ]
    NA   [     9 ]
    NB   [     9 ]

  @DF-RHF Final Energy:  -459.57349812074125

   => Energetics <=

    Nuclear Repulsion Energy =              0.0000000000000000
    One-Electron Energy =                -641.1308945688166432
    Two-Electron Energy =                 181.5573964480753943
    Total Energy =                       -459.5734981207412488

Computation Completed


Properties will be evaluated at   0.000000,   0.000000,   0.000000 [a0]

Properties computed using the SCF density matrix


 Multipole Moments:

 ------------------------------------------------------------------------------------
     Multipole            Electronic (a.u.)      Nuclear  (a.u.)        Total (a.u.)
 ------------------------------------------------------------------------------------

 L = 1.  Multiply by 2.5417464519 to convert [e a0] to [Debye]
 Dipole X            :       -112.8670966          106.5965179           -6.2705787
 Dipole Y            :          0.0000096            0.0000000            0.0000096
 Dipole Z            :          0.0000000            0.0000000            0.0000000
 Magnitude           :                                                    6.2705787

 ------------------------------------------------------------------------------------

*** tstop() called on ddmfs1 at Mon Jan 22 12:04:51 2024
Module time:
	user time   =      25.36 seconds =       0.42 minutes
	system time =       3.38 seconds =       0.06 minutes
	total time  =          2 seconds =       0.03 minutes
Total time:
	user time   =      25.36 seconds =       0.42 minutes
	system time =       3.38 seconds =       0.06 minutes
	total time  =          2 seconds =       0.03 minutes

*** tstart() called on ddmfs1
*** at Mon Jan 22 12:04:51 2024


  //>>>>>>>>>>>>>>>>>>>>>>>>>>>>>>>>>>>//
  //               DFMP2               //
  //<<<<<<<<<<<<<<<<<<<<<<<<<<<<<<<<<<<//

   => Loading Basis Set <=

    Name: (AUG-CC-PVTZ AUX)
    Role: RIFIT
    Keyword: DF_BASIS_MP2
    atoms 1   entry NA         line   610 file /ddmfs1b/softs/psi4conda/share/psi4/basis/def2-qzvpp-ri.gbs 
    atoms 2-3 entry CL         line   742 file /ddmfs1b/softs/psi4conda/share/psi4/basis/aug-cc-pvtz-ri.gbs 

	 --------------------------------------------------------
	                          DF-MP2                         
	      2nd-Order Density-Fitted Moller-Plesset Theory     
	              RMP2 Wavefunction,  20 Threads             
	                                                         
	        Rob Parrish, Justin Turney, Andy Simmonett,      
	           Ed Hohenstein, and C. David Sherrill          
	 --------------------------------------------------------

   => Auxiliary Basis Set <=

  Basis Set: (AUG-CC-PVTZ AUX)
    Blend: AUG-CC-PVTZ-RI + DEF2-QZVPP-RI
    Number of shells: 116
    Number of basis functions: 460
    Number of Cartesian functions: 596
    Spherical Harmonics?: true
    Max angular momentum: 4

	 --------------------------------------------------------
	                 NBF =   150, NAUX =   460
	 --------------------------------------------------------
	   CLASS    FOCC     OCC    AOCC    AVIR     VIR    FVIR
	   PAIRS       0       9       9     141     141       0
	 --------------------------------------------------------

	-----------------------------------------------------------
	 ==================> DF-MP2 Energies <==================== 
	-----------------------------------------------------------
	 Reference Energy          =    -459.5734981207412488 [Eh]
	 Singles Energy            =      -0.0000000000000000 [Eh]
	 Same-Spin Energy          =      -0.0624799566415712 [Eh]
	 Opposite-Spin Energy      =      -0.1793538336466938 [Eh]
	 Correlation Energy        =      -0.2418337902882650 [Eh]
	 Total Energy              =    -459.8153319110294888 [Eh]
	-----------------------------------------------------------
	 ================> DF-SCS-MP2 Energies <================== 
	-----------------------------------------------------------
	 SCS Same-Spin Scale       =       0.3333333333333333 [-]
	 SCS Opposite-Spin Scale   =       1.2000000000000000 [-]
	 SCS Same-Spin Energy      =      -0.0208266522138571 [Eh]
	 SCS Opposite-Spin Energy  =      -0.2152246003760325 [Eh]
	 SCS Correlation Energy    =      -0.2360512525898896 [Eh]
	 SCS Total Energy          =    -459.8095493733311514 [Eh]
	-----------------------------------------------------------


*** tstop() called on ddmfs1 at Mon Jan 22 12:04:56 2024
Module time:
	user time   =      12.58 seconds =       0.21 minutes
	system time =       1.02 seconds =       0.02 minutes
	total time  =          5 seconds =       0.08 minutes
Total time:
	user time   =      37.96 seconds =       0.63 minutes
	system time =       4.40 seconds =       0.07 minutes
	total time  =          7 seconds =       0.12 minutes

    Psi4 stopped on: Monday, 22 January 2024 12:04PM
    Psi4 wall time for execution: 0:00:07.31

*** Psi4 exiting successfully. Buy a developer a beer!
