
    -----------------------------------------------------------------------
          Psi4: An Open-Source Ab Initio Electronic Structure Package
                               Psi4 1.8.2 release

                         Git: Rev {} zzzzzzz 


    D. G. A. Smith, L. A. Burns, A. C. Simmonett, R. M. Parrish,
    M. C. Schieber, R. Galvelis, P. Kraus, H. Kruse, R. Di Remigio,
    A. Alenaizan, A. M. James, S. Lehtola, J. P. Misiewicz, M. Scheurer,
    R. A. Shaw, J. B. Schriber, Y. Xie, Z. L. Glick, D. A. Sirianni,
    J. S. O'Brien, J. M. Waldrop, A. Kumar, E. G. Hohenstein,
    B. P. Pritchard, B. R. Brooks, H. F. Schaefer III, A. Yu. Sokolov,
    K. Patkowski, A. E. DePrince III, U. Bozkaya, R. A. King,
    F. A. Evangelista, J. M. Turney, T. D. Crawford, C. D. Sherrill,
    J. Chem. Phys. 152(18) 184108 (2020). https://doi.org/10.1063/5.0006002

                            Additional Code Authors
    E. T. Seidl, C. L. Janssen, E. F. Valeev, M. L. Leininger,
    J. F. Gonthier, R. M. Richard, H. R. McAlexander, M. Saitow, X. Wang,
    P. Verma, M. H. Lechner, A. Jiang, S. Behnle, A. G. Heide,
    M. F. Herbst, and D. L. Poole

             Previous Authors, Complete List of Code Contributors,
                       and Citations for Specific Modules
    https://github.com/psi4/psi4/blob/master/codemeta.json
    https://github.com/psi4/psi4/graphs/contributors
    http://psicode.org/psi4manual/master/introduction.html#citing-psifour

    -----------------------------------------------------------------------


    Psi4 started on: Monday, 22 January 2024 04:46AM

    Process ID: 32756
    Host:       ddmfs1
    PSIDATADIR: /ddmfs1b/softs/psi4conda/share/psi4
    Memory:     500.0 MiB
    Threads:    20
    
  ==> Input File <==

--------------------------------------------------------------------------
MEMORY 60 GB

molecule dimer {
-1 1
Br     0.000000     0.000000     0.000000
--
1 1
Na     0.000000     2.514159     0.000000
--
1 1
Na     3.771238     0.000000     0.000000

units ang
no_reorient
no_com
symmetry c1
}

set {
basis        aug-cc-pVTZ
scf_type     df
}

energy("mp2", bsse_type="cp")
--------------------------------------------------------------------------

  Memory set to  55.879 GiB by Python driver.

Scratch directory: /ddmfs1a/scratch/

  //>>>>>>>>>>>>>>>>>>>>>>>>>>>>>>>>>>>>>>>>//
  // ManyBody Setup: N-Body Levels [1, 2, 3]//
  //<<<<<<<<<<<<<<<<<<<<<<<<<<<<<<<<<<<<<<<<//

        Number of 1-body computations:     3
        Number of 2-body computations:     3
        Number of 3-body computations:     1

    -----------------------------------------------------------------------
          Psi4: An Open-Source Ab Initio Electronic Structure Package
                               Psi4 1.8.2 release

                         Git: Rev {} zzzzzzz 


    D. G. A. Smith, L. A. Burns, A. C. Simmonett, R. M. Parrish,
    M. C. Schieber, R. Galvelis, P. Kraus, H. Kruse, R. Di Remigio,
    A. Alenaizan, A. M. James, S. Lehtola, J. P. Misiewicz, M. Scheurer,
    R. A. Shaw, J. B. Schriber, Y. Xie, Z. L. Glick, D. A. Sirianni,
    J. S. O'Brien, J. M. Waldrop, A. Kumar, E. G. Hohenstein,
    B. P. Pritchard, B. R. Brooks, H. F. Schaefer III, A. Yu. Sokolov,
    K. Patkowski, A. E. DePrince III, U. Bozkaya, R. A. King,
    F. A. Evangelista, J. M. Turney, T. D. Crawford, C. D. Sherrill,
    J. Chem. Phys. 152(18) 184108 (2020). https://doi.org/10.1063/5.0006002

                            Additional Code Authors
    E. T. Seidl, C. L. Janssen, E. F. Valeev, M. L. Leininger,
    J. F. Gonthier, R. M. Richard, H. R. McAlexander, M. Saitow, X. Wang,
    P. Verma, M. H. Lechner, A. Jiang, S. Behnle, A. G. Heide,
    M. F. Herbst, and D. L. Poole

             Previous Authors, Complete List of Code Contributors,
                       and Citations for Specific Modules
    https://github.com/psi4/psi4/blob/master/codemeta.json
    https://github.com/psi4/psi4/graphs/contributors
    http://psicode.org/psi4manual/master/introduction.html#citing-psifour

    -----------------------------------------------------------------------


    Psi4 started on: Monday, 22 January 2024 04:46AM

    Process ID: 32756
    Host:       ddmfs1
    PSIDATADIR: /ddmfs1b/softs/psi4conda/share/psi4
    Memory:     55.9 GiB
    Threads:    20
    
  ==> Input QCSchema <==

--------------------------------------------------------------------------
{'driver': 'energy',
 'extras': {'psiapi': True, 'wfn_qcvars_only': True},
 'id': None,
 'keywords': {'SCF_TYPE': 'DF', 'function_kwargs': {}},
 'model': {'basis': 'aug-cc-pvtz', 'method': 'mp2'},
 'molecule': {'atom_labels': ['', '', ''],
              'atomic_numbers': [35, 11, 11],
              'extras': {},
              'fix_com': True,
              'fix_orientation': True,
              'fix_symmetry': 'c1',
              'fragment_charges': [-1.0, 0.0, 0.0],
              'fragment_multiplicities': [1, 1, 1],
              'fragments': [[0], [1], [2]],
              'geometry': [0.0, 0.0, 0.0, 0.0, 4.751071945854927, 0.0, 7.126606973919329, 0.0, 0.0],
              'mass_numbers': [79, 23, 23],
              'masses': [78.9183376, 22.989769282, 22.989769282],
              'molecular_charge': -1.0,
              'molecular_multiplicity': 1,
              'name': 'dimer',
              'provenance': {'creator': 'QCElemental',
                             'routine': 'qcelemental.molparse.from_string',
                             'version': '0.26.0'},
              'real': [True, False, False],
              'schema_name': 'qcschema_molecule',
              'schema_version': 2,
              'symbols': ['Br', 'Na', 'Na'],
              'validated': True},
 'protocols': {'stdout': True},
 'provenance': {'creator': 'QCElemental', 'routine': 'qcelemental.models.results', 'version': '0.26.0'},
 'schema_name': 'qcschema_input',
 'schema_version': 1}
--------------------------------------------------------------------------

Scratch directory: /ddmfs1a/scratch/
   => Libint2 <=

    Primary   basis highest AM E, G, H:  5, 4, 3
    Auxiliary basis highest AM E, G, H:  6, 5, 4
    Onebody   basis highest AM E, G, H:  6, 5, 4
    Solid Harmonics ordering:            gaussian

*** tstart() called on ddmfs1
*** at Mon Jan 22 04:46:23 2024

   => Loading Basis Set <=

    Name: AUG-CC-PVTZ
    Role: ORBITAL
    Keyword: BASIS
    atoms 1   entry BR         line  4208 file /ddmfs1b/softs/psi4conda/share/psi4/basis/aug-cc-pvtz.gbs 
    atoms 2-3 entry NA         line   469 file /ddmfs1b/softs/psi4conda/share/psi4/basis/aug-cc-pvtz.gbs 


         ---------------------------------------------------------
                                   SCF
               by Justin Turney, Rob Parrish, Andy Simmonett
                          and Daniel G. A. Smith
                              RHF Reference
                       20 Threads,  57220 MiB Core
         ---------------------------------------------------------

  ==> Geometry <==

    Molecular point group: c1
    Full point group: Cs

    Geometry (in Bohr), charge = -1, multiplicity = 1:

       Center              X                  Y                   Z               Mass       
    ------------   -----------------  -----------------  -----------------  -----------------
         BR           0.000000000000     0.000000000000     0.000000000000    78.918337600000
      Gh(NA)          0.000000000000     4.751071945855     0.000000000000    22.989769282000
      Gh(NA)          7.126606973919     0.000000000000     0.000000000000    22.989769282000

  Running in c1 symmetry.

  Rotational constants: A =      0.11600  B =      0.05156  C =      0.03569 [cm^-1]
  Rotational constants: A =   3477.73997  B =   1545.66262  C =   1070.07403 [MHz]
  Nuclear repulsion =    0.000000000000000

  Charge       = -1
  Multiplicity = 1
  Electrons    = 36
  Nalpha       = 18
  Nbeta        = 18

  ==> Algorithm <==

  SCF Algorithm Type is DF.
  DIIS enabled.
  MOM disabled.
  Fractional occupation disabled.
  Guess Type is SAD.
  Energy threshold   = 1.00e-08
  Density threshold  = 1.00e-08
  Integral threshold = 1.00e-12

  ==> Primary Basis <==

  Basis Set: AUG-CC-PVTZ
    Blend: AUG-CC-PVTZ
    Number of shells: 51
    Number of basis functions: 159
    Number of Cartesian functions: 187
    Spherical Harmonics?: true
    Max angular momentum: 3

   => Loading Basis Set <=

    Name: (AUG-CC-PVTZ AUX)
    Role: JKFIT
    Keyword: DF_BASIS_SCF
    atoms 1   entry BR         line  1492 file /ddmfs1b/softs/psi4conda/share/psi4/basis/aug-cc-pvtz-jkfit.gbs 
    atoms 2-3 entry NA         line   498 file /ddmfs1b/softs/psi4conda/share/psi4/basis/def2-universal-jkfit.gbs 

  ==> Integral Setup <==

  DFHelper Memory: AOs need 0.099 GiB; user supplied 41.910 GiB. 
  Using in-core AOs.

  ==> MemDFJK: Density-Fitted J/K Matrices <==

    J tasked:                   Yes
    K tasked:                   Yes
    wK tasked:                   No
    OpenMP threads:              20
    Memory [MiB]:             42915
    Algorithm:                 Core
    Schwarz Cutoff:           1E-12
    Mask sparsity (%):       0.0000
    Fitting Condition:        1E-10

   => Auxiliary Basis Set <=

  Basis Set: (AUG-CC-PVTZ AUX)
    Blend: AUG-CC-PVTZ-JKFIT + DEF2-UNIVERSAL-JKFIT
    Number of shells: 126
    Number of basis functions: 472
    Number of Cartesian functions: 603
    Spherical Harmonics?: true
    Max angular momentum: 4

  Minimum eigenvalue in the overlap matrix is 5.6863550308E-05.
  Reciprocal condition number of the overlap matrix is 7.6835505898E-06.
    Using symmetric orthogonalization.

  ==> Pre-Iterations <==

  SCF Guess: Superposition of Atomic Densities via on-the-fly atomic UHF (no occupation information).

   -------------------------
    Irrep   Nso     Nmo    
   -------------------------
     A        159     159 
   -------------------------
    Total     159     159
   -------------------------

  ==> Iterations <==

                           Total Energy        Delta E     RMS |[F,P]|

   @DF-RHF iter SAD: -2570.41423532806448   -2.57041e+03   0.00000e+00 
   @DF-RHF iter   1: -2572.25408889530718   -1.83985e+00   6.69961e-03 DIIS/ADIIS
   @DF-RHF iter   2: -2572.46333490426241   -2.09246e-01   3.73260e-03 DIIS/ADIIS
   @DF-RHF iter   3: -2572.53364474650652   -7.03098e-02   6.36356e-05 DIIS
   @DF-RHF iter   4: -2572.53369065603601   -4.59095e-05   7.80232e-06 DIIS
   @DF-RHF iter   5: -2572.53369293381775   -2.27778e-06   2.07037e-06 DIIS
   @DF-RHF iter   6: -2572.53369309553545   -1.61718e-07   4.33816e-07 DIIS
   @DF-RHF iter   7: -2572.53369311584447   -2.03090e-08   2.57708e-08 DIIS
   @DF-RHF iter   8: -2572.53369311588267   -3.81988e-11   4.15174e-09 DIIS
  Energy and wave function converged.


  ==> Post-Iterations <==

    Orbital Energies [Eh]
    ---------------------

    Doubly Occupied:                                                      

       1A   -489.721147     2A    -64.861007     3A    -58.215510  
       4A    -58.215509     5A    -58.215505     6A     -9.533019  
       7A     -7.140366     8A     -7.140361     9A     -7.140353  
      10A     -2.882051    11A     -2.882047    12A     -2.882043  
      13A     -2.882043    14A     -2.882032    15A     -0.685994  
      16A     -0.139338    17A     -0.139337    18A     -0.139334  

    Virtual:                                                              

      19A      0.065200    20A      0.071624    21A      0.081762  
      22A      0.082082    23A      0.087163    24A      0.087878  
      25A      0.091029    26A      0.103151    27A      0.120816  
      28A      0.133607    29A      0.139699    30A      0.142333  
      31A      0.152945    32A      0.155929    33A      0.159336  
      34A      0.162739    35A      0.165908    36A      0.168389  
      37A      0.176419    38A      0.178151    39A      0.183570  
      40A      0.191124    41A      0.194941    42A      0.195479  
      43A      0.197553    44A      0.212346    45A      0.239125  
      46A      0.258980    47A      0.259177    48A      0.281691  
      49A      0.285716    50A      0.294408    51A      0.295600  
      52A      0.305030    53A      0.320570    54A      0.325279  
      55A      0.358641    56A      0.358811    57A      0.362197  
      58A      0.366722    59A      0.374003    60A      0.385440  
      61A      0.385713    62A      0.389340    63A      0.393875  
      64A      0.398069    65A      0.407079    66A      0.413343  
      67A      0.416266    68A      0.428610    69A      0.433896  
      70A      0.443987    71A      0.450352    72A      0.451227  
      73A      0.462052    74A      0.480155    75A      0.492220  
      76A      0.506744    77A      0.511269    78A      0.528758  
      79A      0.534419    80A      0.535838    81A      0.542681  
      82A      0.550282    83A      0.568080    84A      0.581707  
      85A      0.613591    86A      0.615542    87A      0.626890  
      88A      0.642308    89A      0.647883    90A      0.689896  
      91A      0.708330    92A      0.845492    93A      0.845745  
      94A      0.849211    95A      0.850734    96A      0.869010  
      97A      0.873863    98A      0.883912    99A      0.890636  
     100A      0.895166   101A      0.898428   102A      0.899736  
     103A      0.906311   104A      0.913233   105A      0.913783  
     106A      0.919961   107A      0.923719   108A      0.934770  
     109A      0.940943   110A      0.947754   111A      0.952104  
     112A      0.954731   113A      0.980430   114A      0.992182  
     115A      1.009249   116A      1.039724   117A      1.043328  
     118A      1.093473   119A      1.132860   120A      1.133272  
     121A      1.169474   122A      1.177799   123A      1.248874  
     124A      1.248913   125A      1.281112   126A      1.301275  
     127A      1.338914   128A      1.352087   129A      1.409300  
     130A      1.463235   131A      1.547340   132A      1.567474  
     133A      1.965035   134A      2.513018   135A      2.577359  
     136A      2.603013   137A      2.611156   138A      2.629662  
     139A      2.649197   140A      2.664447   141A      2.676379  
     142A      2.712137   143A      2.733138   144A      2.735068  
     145A      2.763436   146A      2.788923   147A      2.801255  
     148A      2.927095   149A      4.566177   150A      4.600357  
     151A      5.309611   152A      6.449727   153A      6.464267  
     154A      6.541560   155A      6.563563   156A      6.571896  
     157A      7.052912   158A     64.562922   159A     64.674726  

    Final Occupation by Irrep:
              A 
    DOCC [    18 ]
    NA   [    18 ]
    NB   [    18 ]

  @DF-RHF Final Energy: -2572.53369311588267

   => Energetics <=

    Nuclear Repulsion Energy =              0.0000000000000000
    One-Electron Energy =               -3593.6733921064069364
    Two-Electron Energy =                1021.1396989905241526
    Total Energy =                      -2572.5336931158826701

Computation Completed


Properties will be evaluated at   0.000000,   0.000000,   0.000000 [a0]

Properties computed using the SCF density matrix


 Multipole Moments:

 ------------------------------------------------------------------------------------
     Multipole            Electronic (a.u.)      Nuclear  (a.u.)        Total (a.u.)
 ------------------------------------------------------------------------------------

 L = 1.  Multiply by 2.5417464519 to convert [e a0] to [Debye]
 Dipole X            :          0.0001088            0.0000000            0.0001088
 Dipole Y            :          0.0003997            0.0000000            0.0003997
 Dipole Z            :          0.0000000            0.0000000            0.0000000
 Magnitude           :                                                    0.0004142

 ------------------------------------------------------------------------------------

*** tstop() called on ddmfs1 at Mon Jan 22 04:46:29 2024
Module time:
	user time   =      40.40 seconds =       0.67 minutes
	system time =       6.84 seconds =       0.11 minutes
	total time  =          6 seconds =       0.10 minutes
Total time:
	user time   =      40.40 seconds =       0.67 minutes
	system time =       6.84 seconds =       0.11 minutes
	total time  =          6 seconds =       0.10 minutes

*** tstart() called on ddmfs1
*** at Mon Jan 22 04:46:29 2024


  //>>>>>>>>>>>>>>>>>>>>>>>>>>>>>>>>>>>//
  //               DFMP2               //
  //<<<<<<<<<<<<<<<<<<<<<<<<<<<<<<<<<<<//

   => Loading Basis Set <=

    Name: (AUG-CC-PVTZ AUX)
    Role: RIFIT
    Keyword: DF_BASIS_MP2
    atoms 1   entry BR         line  1248 file /ddmfs1b/softs/psi4conda/share/psi4/basis/aug-cc-pvtz-ri.gbs 
    atoms 2-3 entry NA         line   610 file /ddmfs1b/softs/psi4conda/share/psi4/basis/def2-qzvpp-ri.gbs 

	 --------------------------------------------------------
	                          DF-MP2                         
	      2nd-Order Density-Fitted Moller-Plesset Theory     
	              RMP2 Wavefunction,  20 Threads             
	                                                         
	        Rob Parrish, Justin Turney, Andy Simmonett,      
	           Ed Hohenstein, and C. David Sherrill          
	 --------------------------------------------------------

   => Auxiliary Basis Set <=

  Basis Set: (AUG-CC-PVTZ AUX)
    Blend: AUG-CC-PVTZ-RI + DEF2-QZVPP-RI
    Number of shells: 127
    Number of basis functions: 523
    Number of Cartesian functions: 689
    Spherical Harmonics?: true
    Max angular momentum: 5

	 --------------------------------------------------------
	                 NBF =   159, NAUX =   523
	 --------------------------------------------------------
	   CLASS    FOCC     OCC    AOCC    AVIR     VIR    FVIR
	   PAIRS       0      18      18     141     141       0
	 --------------------------------------------------------

	-----------------------------------------------------------
	 ==================> DF-MP2 Energies <==================== 
	-----------------------------------------------------------
	 Reference Energy          =   -2572.5336931158826701 [Eh]
	 Singles Energy            =      -0.0000000000000000 [Eh]
	 Same-Spin Energy          =      -0.0885718350873482 [Eh]
	 Opposite-Spin Energy      =      -0.2052894168658975 [Eh]
	 Correlation Energy        =      -0.2938612519532456 [Eh]
	 Total Energy              =   -2572.8275543678360009 [Eh]
	-----------------------------------------------------------
	 ================> DF-SCS-MP2 Energies <================== 
	-----------------------------------------------------------
	 SCS Same-Spin Scale       =       0.3333333333333333 [-]
	 SCS Opposite-Spin Scale   =       1.2000000000000000 [-]
	 SCS Same-Spin Energy      =      -0.0295239450291161 [Eh]
	 SCS Opposite-Spin Energy  =      -0.2463473002390769 [Eh]
	 SCS Correlation Energy    =      -0.2758712452681930 [Eh]
	 SCS Total Energy          =   -2572.8095643611509331 [Eh]
	-----------------------------------------------------------


*** tstop() called on ddmfs1 at Mon Jan 22 04:46:44 2024
Module time:
	user time   =      23.84 seconds =       0.40 minutes
	system time =       1.62 seconds =       0.03 minutes
	total time  =         15 seconds =       0.25 minutes
Total time:
	user time   =      64.26 seconds =       1.07 minutes
	system time =       8.46 seconds =       0.14 minutes
	total time  =         21 seconds =       0.35 minutes

    Psi4 stopped on: Monday, 22 January 2024 04:46AM
    Psi4 wall time for execution: 0:00:21.14


    -----------------------------------------------------------------------
          Psi4: An Open-Source Ab Initio Electronic Structure Package
                               Psi4 1.8.2 release

                         Git: Rev {} zzzzzzz 


    D. G. A. Smith, L. A. Burns, A. C. Simmonett, R. M. Parrish,
    M. C. Schieber, R. Galvelis, P. Kraus, H. Kruse, R. Di Remigio,
    A. Alenaizan, A. M. James, S. Lehtola, J. P. Misiewicz, M. Scheurer,
    R. A. Shaw, J. B. Schriber, Y. Xie, Z. L. Glick, D. A. Sirianni,
    J. S. O'Brien, J. M. Waldrop, A. Kumar, E. G. Hohenstein,
    B. P. Pritchard, B. R. Brooks, H. F. Schaefer III, A. Yu. Sokolov,
    K. Patkowski, A. E. DePrince III, U. Bozkaya, R. A. King,
    F. A. Evangelista, J. M. Turney, T. D. Crawford, C. D. Sherrill,
    J. Chem. Phys. 152(18) 184108 (2020). https://doi.org/10.1063/5.0006002

                            Additional Code Authors
    E. T. Seidl, C. L. Janssen, E. F. Valeev, M. L. Leininger,
    J. F. Gonthier, R. M. Richard, H. R. McAlexander, M. Saitow, X. Wang,
    P. Verma, M. H. Lechner, A. Jiang, S. Behnle, A. G. Heide,
    M. F. Herbst, and D. L. Poole

             Previous Authors, Complete List of Code Contributors,
                       and Citations for Specific Modules
    https://github.com/psi4/psi4/blob/master/codemeta.json
    https://github.com/psi4/psi4/graphs/contributors
    http://psicode.org/psi4manual/master/introduction.html#citing-psifour

    -----------------------------------------------------------------------


    Psi4 started on: Monday, 22 January 2024 04:46AM

    Process ID: 32756
    Host:       ddmfs1
    PSIDATADIR: /ddmfs1b/softs/psi4conda/share/psi4
    Memory:     55.9 GiB
    Threads:    20
    
  ==> Input QCSchema <==

--------------------------------------------------------------------------
{'driver': 'energy',
 'extras': {'psiapi': True, 'wfn_qcvars_only': True},
 'id': None,
 'keywords': {'SCF_TYPE': 'DF', 'function_kwargs': {}},
 'model': {'basis': 'aug-cc-pvtz', 'method': 'mp2'},
 'molecule': {'atom_labels': ['', '', ''],
              'atomic_numbers': [35, 11, 11],
              'extras': {},
              'fix_com': True,
              'fix_orientation': True,
              'fix_symmetry': 'c1',
              'fragment_charges': [0.0, 1.0, 0.0],
              'fragment_multiplicities': [1, 1, 1],
              'fragments': [[0], [1], [2]],
              'geometry': [0.0, 0.0, 0.0, 0.0, 4.751071945854927, 0.0, 7.126606973919329, 0.0, 0.0],
              'mass_numbers': [79, 23, 23],
              'masses': [78.9183376, 22.989769282, 22.989769282],
              'molecular_charge': 1.0,
              'molecular_multiplicity': 1,
              'name': 'dimer',
              'provenance': {'creator': 'QCElemental',
                             'routine': 'qcelemental.molparse.from_string',
                             'version': '0.26.0'},
              'real': [False, True, False],
              'schema_name': 'qcschema_molecule',
              'schema_version': 2,
              'symbols': ['Br', 'Na', 'Na'],
              'validated': True},
 'protocols': {'stdout': True},
 'provenance': {'creator': 'QCElemental', 'routine': 'qcelemental.models.results', 'version': '0.26.0'},
 'schema_name': 'qcschema_input',
 'schema_version': 1}
--------------------------------------------------------------------------

Scratch directory: /ddmfs1a/scratch/
   => Libint2 <=

    Primary   basis highest AM E, G, H:  5, 4, 3
    Auxiliary basis highest AM E, G, H:  6, 5, 4
    Onebody   basis highest AM E, G, H:  6, 5, 4
    Solid Harmonics ordering:            gaussian

*** tstart() called on ddmfs1
*** at Mon Jan 22 04:46:44 2024

   => Loading Basis Set <=

    Name: AUG-CC-PVTZ
    Role: ORBITAL
    Keyword: BASIS
    atoms 1   entry BR         line  4208 file /ddmfs1b/softs/psi4conda/share/psi4/basis/aug-cc-pvtz.gbs 
    atoms 2-3 entry NA         line   469 file /ddmfs1b/softs/psi4conda/share/psi4/basis/aug-cc-pvtz.gbs 


         ---------------------------------------------------------
                                   SCF
               by Justin Turney, Rob Parrish, Andy Simmonett
                          and Daniel G. A. Smith
                              RHF Reference
                       20 Threads,  57220 MiB Core
         ---------------------------------------------------------

  ==> Geometry <==

    Molecular point group: c1
    Full point group: Cs

    Geometry (in Bohr), charge = 1, multiplicity = 1:

       Center              X                  Y                   Z               Mass       
    ------------   -----------------  -----------------  -----------------  -----------------
      Gh(BR)          0.000000000000     0.000000000000     0.000000000000    78.918337600000
         NA           0.000000000000     4.751071945855     0.000000000000    22.989769282000
      Gh(NA)          7.126606973919     0.000000000000     0.000000000000    22.989769282000

  Running in c1 symmetry.

  Rotational constants: A =      0.11600  B =      0.05156  C =      0.03569 [cm^-1]
  Rotational constants: A =   3477.73997  B =   1545.66262  C =   1070.07403 [MHz]
  Nuclear repulsion =    0.000000000000000

  Charge       = 1
  Multiplicity = 1
  Electrons    = 10
  Nalpha       = 5
  Nbeta        = 5

  ==> Algorithm <==

  SCF Algorithm Type is DF.
  DIIS enabled.
  MOM disabled.
  Fractional occupation disabled.
  Guess Type is SAD.
  Energy threshold   = 1.00e-08
  Density threshold  = 1.00e-08
  Integral threshold = 1.00e-12

  ==> Primary Basis <==

  Basis Set: AUG-CC-PVTZ
    Blend: AUG-CC-PVTZ
    Number of shells: 51
    Number of basis functions: 159
    Number of Cartesian functions: 187
    Spherical Harmonics?: true
    Max angular momentum: 3

   => Loading Basis Set <=

    Name: (AUG-CC-PVTZ AUX)
    Role: JKFIT
    Keyword: DF_BASIS_SCF
    atoms 1   entry BR         line  1492 file /ddmfs1b/softs/psi4conda/share/psi4/basis/aug-cc-pvtz-jkfit.gbs 
    atoms 2-3 entry NA         line   498 file /ddmfs1b/softs/psi4conda/share/psi4/basis/def2-universal-jkfit.gbs 

  ==> Integral Setup <==

  DFHelper Memory: AOs need 0.099 GiB; user supplied 41.910 GiB. 
  Using in-core AOs.

  ==> MemDFJK: Density-Fitted J/K Matrices <==

    J tasked:                   Yes
    K tasked:                   Yes
    wK tasked:                   No
    OpenMP threads:              20
    Memory [MiB]:             42915
    Algorithm:                 Core
    Schwarz Cutoff:           1E-12
    Mask sparsity (%):       0.0000
    Fitting Condition:        1E-10

   => Auxiliary Basis Set <=

  Basis Set: (AUG-CC-PVTZ AUX)
    Blend: AUG-CC-PVTZ-JKFIT + DEF2-UNIVERSAL-JKFIT
    Number of shells: 126
    Number of basis functions: 472
    Number of Cartesian functions: 603
    Spherical Harmonics?: true
    Max angular momentum: 4

  Minimum eigenvalue in the overlap matrix is 5.6863550308E-05.
  Reciprocal condition number of the overlap matrix is 7.6835505898E-06.
    Using symmetric orthogonalization.

  ==> Pre-Iterations <==

  SCF Guess: Superposition of Atomic Densities via on-the-fly atomic UHF (no occupation information).

   -------------------------
    Irrep   Nso     Nmo    
   -------------------------
     A        159     159 
   -------------------------
    Total     159     159
   -------------------------

  ==> Iterations <==

                           Total Energy        Delta E     RMS |[F,P]|

   @DF-RHF iter SAD:  -161.74557849183142   -1.61746e+02   0.00000e+00 
   @DF-RHF iter   1:  -161.67602079738447    6.95577e-02   3.66232e-05 DIIS
   @DF-RHF iter   2:  -161.67603866432287   -1.78669e-05   7.06991e-06 DIIS
   @DF-RHF iter   3:  -161.67603911586551   -4.51543e-07   2.79630e-07 DIIS
   @DF-RHF iter   4:  -161.67603911661820   -7.52692e-10   2.26686e-08 DIIS
   @DF-RHF iter   5:  -161.67603911662297   -4.77485e-12   1.40310e-09 DIIS
  Energy and wave function converged.


  ==> Post-Iterations <==

    Orbital Energies [Eh]
    ---------------------

    Doubly Occupied:                                                      

       1A    -40.762983     2A     -3.074984     3A     -1.798245  
       4A     -1.798153     5A     -1.798128  

    Virtual:                                                              

       6A     -0.181837     7A     -0.109447     8A     -0.109439  
       9A     -0.109437    10A     -0.070051    11A     -0.054631  
      12A     -0.054152    13A     -0.054041    14A     -0.050831  
      15A     -0.050633    16A     -0.049730    17A     -0.049085  
      18A     -0.049060    19A     -0.029153    20A     -0.025748  
      21A     -0.025545    22A     -0.025375    23A     -0.020172  
      24A     -0.010931    25A     -0.009851    26A     -0.005140  
      27A     -0.004300    28A     -0.004133    29A      0.000756  
      30A      0.001590    31A      0.006182    32A      0.015863  
      33A      0.019397    34A      0.025203    35A      0.026088  
      36A      0.027347    37A      0.028427    38A      0.037911  
      39A      0.048999    40A      0.055317    41A      0.062928  
      42A      0.066242    43A      0.072635    44A      0.079074  
      45A      0.079808    46A      0.098540    47A      0.106656  
      48A      0.115415    49A      0.121425    50A      0.130005  
      51A      0.145446    52A      0.147129    53A      0.148411  
      54A      0.154562    55A      0.159531    56A      0.159671  
      57A      0.163329    58A      0.165350    59A      0.175879  
      60A      0.190414    61A      0.190859    62A      0.196567  
      63A      0.203294    64A      0.205561    65A      0.218684  
      66A      0.225555    67A      0.244294    68A      0.252699  
      69A      0.258909    70A      0.277325    71A      0.281682  
      72A      0.288408    73A      0.300713    74A      0.311607  
      75A      0.316504    76A      0.334684    77A      0.336302  
      78A      0.346590    79A      0.348041    80A      0.370612  
      81A      0.384067    82A      0.401408    83A      0.418569  
      84A      0.436059    85A      0.442537    86A      0.474056  
      87A      0.504743    88A      0.511883    89A      0.522224  
      90A      0.530944    91A      0.547465    92A      0.547848  
      93A      0.576202    94A      0.609255    95A      0.611108  
      96A      0.631712    97A      0.645835    98A      0.662195  
      99A      0.666415   100A      0.666964   101A      0.670675  
     102A      0.675241   103A      0.689222   104A      0.700195  
     105A      0.710772   106A      0.740037   107A      0.856605  
     108A      0.899181   109A      0.934188   110A      0.936337  
     111A      0.964247   112A      0.986720   113A      0.991469  
     114A      1.021085   115A      1.055797   116A      1.058310  
     117A      1.098988   118A      1.126706   119A      1.142076  
     120A      1.210317   121A      1.214102   122A      1.237431  
     123A      1.490603   124A      1.981368   125A      2.750473  
     126A      2.813403   127A      2.859749   128A      2.975607  
     129A      2.977362   130A      2.987976   131A      2.997527  
     132A      3.010620   133A      3.128115   134A      3.140445  
     135A      3.169681   136A      3.176861   137A      3.210223  
     138A      3.232297   139A      3.243536   140A      3.650531  
     141A      4.315382   142A      6.194329   143A      6.208799  
     144A      6.310976   145A     10.125470   146A     13.344652  
     147A     13.427629   148A     13.496828   149A     25.996743  
     150A     26.015417   151A     26.050670   152A     26.072457  
     153A     26.162677   154A     45.833238   155A     64.306486  
     156A    138.349423   157A    138.478577   158A    138.593516  
     159A    710.114328  

    Final Occupation by Irrep:
              A 
    DOCC [     5 ]
    NA   [     5 ]
    NB   [     5 ]

  @DF-RHF Final Energy:  -161.67603911662297

   => Energetics <=

    Nuclear Repulsion Energy =              0.0000000000000000
    One-Electron Energy =                -224.8870920985318662
    Two-Electron Energy =                  63.2110529819088853
    Total Energy =                       -161.6760391166229738

Computation Completed


Properties will be evaluated at   0.000000,   0.000000,   0.000000 [a0]

Properties computed using the SCF density matrix


 Multipole Moments:

 ------------------------------------------------------------------------------------
     Multipole            Electronic (a.u.)      Nuclear  (a.u.)        Total (a.u.)
 ------------------------------------------------------------------------------------

 L = 1.  Multiply by 2.5417464519 to convert [e a0] to [Debye]
 Dipole X            :          0.0000712            0.0000000            0.0000712
 Dipole Y            :        -47.5113311           52.2617914            4.7504603
 Dipole Z            :         -0.0000000            0.0000000           -0.0000000
 Magnitude           :                                                    4.7504603

 ------------------------------------------------------------------------------------

*** tstop() called on ddmfs1 at Mon Jan 22 04:46:49 2024
Module time:
	user time   =      31.47 seconds =       0.52 minutes
	system time =       4.95 seconds =       0.08 minutes
	total time  =          5 seconds =       0.08 minutes
Total time:
	user time   =      96.94 seconds =       1.62 minutes
	system time =      13.41 seconds =       0.22 minutes
	total time  =         26 seconds =       0.43 minutes

*** tstart() called on ddmfs1
*** at Mon Jan 22 04:46:49 2024


  //>>>>>>>>>>>>>>>>>>>>>>>>>>>>>>>>>>>//
  //               DFMP2               //
  //<<<<<<<<<<<<<<<<<<<<<<<<<<<<<<<<<<<//

   => Loading Basis Set <=

    Name: (AUG-CC-PVTZ AUX)
    Role: RIFIT
    Keyword: DF_BASIS_MP2
    atoms 1   entry BR         line  1248 file /ddmfs1b/softs/psi4conda/share/psi4/basis/aug-cc-pvtz-ri.gbs 
    atoms 2-3 entry NA         line   610 file /ddmfs1b/softs/psi4conda/share/psi4/basis/def2-qzvpp-ri.gbs 

	 --------------------------------------------------------
	                          DF-MP2                         
	      2nd-Order Density-Fitted Moller-Plesset Theory     
	              RMP2 Wavefunction,  20 Threads             
	                                                         
	        Rob Parrish, Justin Turney, Andy Simmonett,      
	           Ed Hohenstein, and C. David Sherrill          
	 --------------------------------------------------------

   => Auxiliary Basis Set <=

  Basis Set: (AUG-CC-PVTZ AUX)
    Blend: AUG-CC-PVTZ-RI + DEF2-QZVPP-RI
    Number of shells: 127
    Number of basis functions: 523
    Number of Cartesian functions: 689
    Spherical Harmonics?: true
    Max angular momentum: 5

	 --------------------------------------------------------
	                 NBF =   159, NAUX =   523
	 --------------------------------------------------------
	   CLASS    FOCC     OCC    AOCC    AVIR     VIR    FVIR
	   PAIRS       0       5       5     154     154       0
	 --------------------------------------------------------

	-----------------------------------------------------------
	 ==================> DF-MP2 Energies <==================== 
	-----------------------------------------------------------
	 Reference Energy          =    -161.6760391166229738 [Eh]
	 Singles Energy            =      -0.0000000000000000 [Eh]
	 Same-Spin Energy          =      -0.0025302478782899 [Eh]
	 Opposite-Spin Energy      =      -0.0094865936180404 [Eh]
	 Correlation Energy        =      -0.0120168414963304 [Eh]
	 Total Energy              =    -161.6880559581192927 [Eh]
	-----------------------------------------------------------
	 ================> DF-SCS-MP2 Energies <================== 
	-----------------------------------------------------------
	 SCS Same-Spin Scale       =       0.3333333333333333 [-]
	 SCS Opposite-Spin Scale   =       1.2000000000000000 [-]
	 SCS Same-Spin Energy      =      -0.0008434159594300 [Eh]
	 SCS Opposite-Spin Energy  =      -0.0113839123416485 [Eh]
	 SCS Correlation Energy    =      -0.0122273283010785 [Eh]
	 SCS Total Energy          =    -161.6882664449240394 [Eh]
	-----------------------------------------------------------


*** tstop() called on ddmfs1 at Mon Jan 22 04:47:04 2024
Module time:
	user time   =      23.61 seconds =       0.39 minutes
	system time =       1.42 seconds =       0.02 minutes
	total time  =         15 seconds =       0.25 minutes
Total time:
	user time   =     120.57 seconds =       2.01 minutes
	system time =      14.83 seconds =       0.25 minutes
	total time  =         41 seconds =       0.68 minutes

    Psi4 stopped on: Monday, 22 January 2024 04:47AM
    Psi4 wall time for execution: 0:00:19.73


    -----------------------------------------------------------------------
          Psi4: An Open-Source Ab Initio Electronic Structure Package
                               Psi4 1.8.2 release

                         Git: Rev {} zzzzzzz 


    D. G. A. Smith, L. A. Burns, A. C. Simmonett, R. M. Parrish,
    M. C. Schieber, R. Galvelis, P. Kraus, H. Kruse, R. Di Remigio,
    A. Alenaizan, A. M. James, S. Lehtola, J. P. Misiewicz, M. Scheurer,
    R. A. Shaw, J. B. Schriber, Y. Xie, Z. L. Glick, D. A. Sirianni,
    J. S. O'Brien, J. M. Waldrop, A. Kumar, E. G. Hohenstein,
    B. P. Pritchard, B. R. Brooks, H. F. Schaefer III, A. Yu. Sokolov,
    K. Patkowski, A. E. DePrince III, U. Bozkaya, R. A. King,
    F. A. Evangelista, J. M. Turney, T. D. Crawford, C. D. Sherrill,
    J. Chem. Phys. 152(18) 184108 (2020). https://doi.org/10.1063/5.0006002

                            Additional Code Authors
    E. T. Seidl, C. L. Janssen, E. F. Valeev, M. L. Leininger,
    J. F. Gonthier, R. M. Richard, H. R. McAlexander, M. Saitow, X. Wang,
    P. Verma, M. H. Lechner, A. Jiang, S. Behnle, A. G. Heide,
    M. F. Herbst, and D. L. Poole

             Previous Authors, Complete List of Code Contributors,
                       and Citations for Specific Modules
    https://github.com/psi4/psi4/blob/master/codemeta.json
    https://github.com/psi4/psi4/graphs/contributors
    http://psicode.org/psi4manual/master/introduction.html#citing-psifour

    -----------------------------------------------------------------------


    Psi4 started on: Monday, 22 January 2024 04:46AM

    Process ID: 32756
    Host:       ddmfs1
    PSIDATADIR: /ddmfs1b/softs/psi4conda/share/psi4
    Memory:     55.9 GiB
    Threads:    20
    
  ==> Input QCSchema <==

--------------------------------------------------------------------------
{'driver': 'energy',
 'extras': {'psiapi': True, 'wfn_qcvars_only': True},
 'id': None,
 'keywords': {'SCF_TYPE': 'DF', 'function_kwargs': {}},
 'model': {'basis': 'aug-cc-pvtz', 'method': 'mp2'},
 'molecule': {'atom_labels': ['', '', ''],
              'atomic_numbers': [35, 11, 11],
              'extras': {},
              'fix_com': True,
              'fix_orientation': True,
              'fix_symmetry': 'c1',
              'fragment_charges': [0.0, 1.0, 1.0],
              'fragment_multiplicities': [1, 1, 1],
              'fragments': [[0], [1], [2]],
              'geometry': [0.0, 0.0, 0.0, 0.0, 4.751071945854927, 0.0, 7.126606973919329, 0.0, 0.0],
              'mass_numbers': [79, 23, 23],
              'masses': [78.9183376, 22.989769282, 22.989769282],
              'molecular_charge': 2.0,
              'molecular_multiplicity': 1,
              'name': 'dimer',
              'provenance': {'creator': 'QCElemental',
                             'routine': 'qcelemental.molparse.from_string',
                             'version': '0.26.0'},
              'real': [False, True, True],
              'schema_name': 'qcschema_molecule',
              'schema_version': 2,
              'symbols': ['Br', 'Na', 'Na'],
              'validated': True},
 'protocols': {'stdout': True},
 'provenance': {'creator': 'QCElemental', 'routine': 'qcelemental.models.results', 'version': '0.26.0'},
 'schema_name': 'qcschema_input',
 'schema_version': 1}
--------------------------------------------------------------------------

Scratch directory: /ddmfs1a/scratch/
   => Libint2 <=

    Primary   basis highest AM E, G, H:  5, 4, 3
    Auxiliary basis highest AM E, G, H:  6, 5, 4
    Onebody   basis highest AM E, G, H:  6, 5, 4
    Solid Harmonics ordering:            gaussian

*** tstart() called on ddmfs1
*** at Mon Jan 22 04:47:04 2024

   => Loading Basis Set <=

    Name: AUG-CC-PVTZ
    Role: ORBITAL
    Keyword: BASIS
    atoms 1   entry BR         line  4208 file /ddmfs1b/softs/psi4conda/share/psi4/basis/aug-cc-pvtz.gbs 
    atoms 2-3 entry NA         line   469 file /ddmfs1b/softs/psi4conda/share/psi4/basis/aug-cc-pvtz.gbs 


         ---------------------------------------------------------
                                   SCF
               by Justin Turney, Rob Parrish, Andy Simmonett
                          and Daniel G. A. Smith
                              RHF Reference
                       20 Threads,  57220 MiB Core
         ---------------------------------------------------------

  ==> Geometry <==

    Molecular point group: c1
    Full point group: Cs

    Geometry (in Bohr), charge = 2, multiplicity = 1:

       Center              X                  Y                   Z               Mass       
    ------------   -----------------  -----------------  -----------------  -----------------
      Gh(BR)          0.000000000000     0.000000000000     0.000000000000    78.918337600000
         NA           0.000000000000     4.751071945855     0.000000000000    22.989769282000
         NA           7.126606973919     0.000000000000     0.000000000000    22.989769282000

  Running in c1 symmetry.

  Rotational constants: A =      0.11600  B =      0.05156  C =      0.03569 [cm^-1]
  Rotational constants: A =   3477.73997  B =   1545.66262  C =   1070.07403 [MHz]
  Nuclear repulsion =   14.127070831350755

  Charge       = 2
  Multiplicity = 1
  Electrons    = 20
  Nalpha       = 10
  Nbeta        = 10

  ==> Algorithm <==

  SCF Algorithm Type is DF.
  DIIS enabled.
  MOM disabled.
  Fractional occupation disabled.
  Guess Type is SAD.
  Energy threshold   = 1.00e-08
  Density threshold  = 1.00e-08
  Integral threshold = 1.00e-12

  ==> Primary Basis <==

  Basis Set: AUG-CC-PVTZ
    Blend: AUG-CC-PVTZ
    Number of shells: 51
    Number of basis functions: 159
    Number of Cartesian functions: 187
    Spherical Harmonics?: true
    Max angular momentum: 3

   => Loading Basis Set <=

    Name: (AUG-CC-PVTZ AUX)
    Role: JKFIT
    Keyword: DF_BASIS_SCF
    atoms 1   entry BR         line  1492 file /ddmfs1b/softs/psi4conda/share/psi4/basis/aug-cc-pvtz-jkfit.gbs 
    atoms 2-3 entry NA         line   498 file /ddmfs1b/softs/psi4conda/share/psi4/basis/def2-universal-jkfit.gbs 

  ==> Integral Setup <==

  DFHelper Memory: AOs need 0.099 GiB; user supplied 41.910 GiB. 
  Using in-core AOs.

  ==> MemDFJK: Density-Fitted J/K Matrices <==

    J tasked:                   Yes
    K tasked:                   Yes
    wK tasked:                   No
    OpenMP threads:              20
    Memory [MiB]:             42915
    Algorithm:                 Core
    Schwarz Cutoff:           1E-12
    Mask sparsity (%):       0.0000
    Fitting Condition:        1E-10

   => Auxiliary Basis Set <=

  Basis Set: (AUG-CC-PVTZ AUX)
    Blend: AUG-CC-PVTZ-JKFIT + DEF2-UNIVERSAL-JKFIT
    Number of shells: 126
    Number of basis functions: 472
    Number of Cartesian functions: 603
    Spherical Harmonics?: true
    Max angular momentum: 4

  Minimum eigenvalue in the overlap matrix is 5.6863550308E-05.
  Reciprocal condition number of the overlap matrix is 7.6835505898E-06.
    Using symmetric orthogonalization.

  ==> Pre-Iterations <==

  SCF Guess: Superposition of Atomic Densities via on-the-fly atomic UHF (no occupation information).

   -------------------------
    Irrep   Nso     Nmo    
   -------------------------
     A        159     159 
   -------------------------
    Total     159     159
   -------------------------

  ==> Iterations <==

                           Total Energy        Delta E     RMS |[F,P]|

   @DF-RHF iter SAD:  -323.50756701464462   -3.23508e+02   0.00000e+00 
   @DF-RHF iter   1:  -323.23531105332125    2.72256e-01   7.59423e-05 DIIS
   @DF-RHF iter   2:  -323.23538871504627   -7.76617e-05   1.37607e-05 DIIS
   @DF-RHF iter   3:  -323.23539087561926   -2.16057e-06   1.00772e-06 DIIS
   @DF-RHF iter   4:  -323.23539088945466   -1.38354e-08   1.55750e-07 DIIS
   @DF-RHF iter   5:  -323.23539088981659   -3.61922e-10   1.13382e-08 DIIS
   @DF-RHF iter   6:  -323.23539088981818   -1.59162e-12   5.75918e-10 DIIS
  Energy and wave function converged.


  ==> Post-Iterations <==

    Orbital Energies [Eh]
    ---------------------

    Doubly Occupied:                                                      

       1A    -40.880283     2A    -40.880009     3A     -3.191993  
       4A     -3.191864     5A     -1.915584     6A     -1.915442  
       7A     -1.914897     8A     -1.914874     9A     -1.914823  
      10A     -1.914754  

    Virtual:                                                              

      11A     -0.329297    12A     -0.271967    13A     -0.235324  
      14A     -0.235283    15A     -0.219253    16A     -0.192459  
      17A     -0.192453    18A     -0.165028    19A     -0.161743  
      20A     -0.155599    21A     -0.155437    22A     -0.138749  
      23A     -0.138589    24A     -0.126774    25A     -0.126679  
      26A     -0.125833    27A     -0.121378    28A     -0.119224  
      29A     -0.119220    30A     -0.109551    31A     -0.109539  
      32A     -0.096299    33A     -0.095910    34A     -0.083529  
      35A     -0.082098    36A     -0.081619    37A     -0.081266  
      38A     -0.081241    39A     -0.079106    40A     -0.076802  
      41A     -0.074248    42A     -0.071961    43A     -0.064270  
      44A     -0.063772    45A     -0.059760    46A     -0.050342  
      47A     -0.049049    48A     -0.047005    49A     -0.044376  
      50A     -0.037220    51A     -0.025245    52A     -0.020743  
      53A     -0.019070    54A     -0.017605    55A     -0.007532  
      56A      0.003084    57A      0.006618    58A      0.006754  
      59A      0.019867    60A      0.020653    61A      0.033564  
      62A      0.035534    63A      0.046029    64A      0.048377  
      65A      0.049428    66A      0.055293    67A      0.056791  
      68A      0.064827    69A      0.066969    70A      0.071018  
      71A      0.073429    72A      0.075012    73A      0.082533  
      74A      0.096843    75A      0.132573    76A      0.136591  
      77A      0.140871    78A      0.142081    79A      0.143485  
      80A      0.148823    81A      0.184461    82A      0.200871  
      83A      0.210362    84A      0.230788    85A      0.232467  
      86A      0.255990    87A      0.270469    88A      0.274655  
      89A      0.274719    90A      0.290663    91A      0.304562  
      92A      0.308973    93A      0.314461    94A      0.319407  
      95A      0.345420    96A      0.363877    97A      0.382799  
      98A      0.385627    99A      0.389292   100A      0.394871  
     101A      0.397299   102A      0.404635   103A      0.412047  
     104A      0.415730   105A      0.424814   106A      0.440517  
     107A      0.451792   108A      0.456878   109A      0.471928  
     110A      0.483120   111A      0.559646   112A      0.764400  
     113A      0.783151   114A      0.802697   115A      0.807533  
     116A      0.850089   117A      0.854950   118A      0.858742  
     119A      0.881572   120A      0.926192   121A      0.967608  
     122A      0.969703   123A      0.993786   124A      1.053485  
     125A      1.085092   126A      1.096941   127A      1.358846  
     128A      1.605165   129A      1.864855   130A      2.613122  
     131A      2.675946   132A      2.722624   133A      2.828997  
     134A      2.841240   135A      2.848682   136A      2.859223  
     137A      2.867382   138A      2.991864   139A      2.999897  
     140A      3.033311   141A      3.041036   142A      3.073850  
     143A      3.095391   144A      3.107471   145A      3.516680  
     146A      9.986942   147A     13.205160   148A     13.285482  
     149A     13.357139   150A     25.856615   151A     25.875397  
     152A     25.911108   153A     25.932296   154A     26.022836  
     155A     45.693381   156A    138.209438   157A    138.338204  
     158A    138.453509   159A    709.974296  

    Final Occupation by Irrep:
              A 
    DOCC [    10 ]
    NA   [    10 ]
    NB   [    10 ]

  @DF-RHF Final Energy:  -323.23539088981818

   => Energetics <=

    Nuclear Repulsion Energy =             14.1270708313507551
    One-Electron Energy =                -475.4558786911896391
    Two-Electron Energy =                 138.0934169700207406
    Total Energy =                       -323.2353908898181771

Computation Completed


Properties will be evaluated at   0.000000,   0.000000,   0.000000 [a0]

Properties computed using the SCF density matrix


 Multipole Moments:

 ------------------------------------------------------------------------------------
     Multipole            Electronic (a.u.)      Nuclear  (a.u.)        Total (a.u.)
 ------------------------------------------------------------------------------------

 L = 1.  Multiply by 2.5417464519 to convert [e a0] to [Debye]
 Dipole X            :        -71.2664172           78.3926767            7.1262595
 Dipole Y            :        -47.5109807           52.2617914            4.7508107
 Dipole Z            :          0.0000000            0.0000000            0.0000000
 Magnitude           :                                                    8.5646820

 ------------------------------------------------------------------------------------

*** tstop() called on ddmfs1 at Mon Jan 22 04:47:09 2024
Module time:
	user time   =      31.84 seconds =       0.53 minutes
	system time =       4.61 seconds =       0.08 minutes
	total time  =          5 seconds =       0.08 minutes
Total time:
	user time   =     153.55 seconds =       2.56 minutes
	system time =      19.49 seconds =       0.32 minutes
	total time  =         46 seconds =       0.77 minutes

*** tstart() called on ddmfs1
*** at Mon Jan 22 04:47:09 2024


  //>>>>>>>>>>>>>>>>>>>>>>>>>>>>>>>>>>>//
  //               DFMP2               //
  //<<<<<<<<<<<<<<<<<<<<<<<<<<<<<<<<<<<//

   => Loading Basis Set <=

    Name: (AUG-CC-PVTZ AUX)
    Role: RIFIT
    Keyword: DF_BASIS_MP2
    atoms 1   entry BR         line  1248 file /ddmfs1b/softs/psi4conda/share/psi4/basis/aug-cc-pvtz-ri.gbs 
    atoms 2-3 entry NA         line   610 file /ddmfs1b/softs/psi4conda/share/psi4/basis/def2-qzvpp-ri.gbs 

	 --------------------------------------------------------
	                          DF-MP2                         
	      2nd-Order Density-Fitted Moller-Plesset Theory     
	              RMP2 Wavefunction,  20 Threads             
	                                                         
	        Rob Parrish, Justin Turney, Andy Simmonett,      
	           Ed Hohenstein, and C. David Sherrill          
	 --------------------------------------------------------

   => Auxiliary Basis Set <=

  Basis Set: (AUG-CC-PVTZ AUX)
    Blend: AUG-CC-PVTZ-RI + DEF2-QZVPP-RI
    Number of shells: 127
    Number of basis functions: 523
    Number of Cartesian functions: 689
    Spherical Harmonics?: true
    Max angular momentum: 5

	 --------------------------------------------------------
	                 NBF =   159, NAUX =   523
	 --------------------------------------------------------
	   CLASS    FOCC     OCC    AOCC    AVIR     VIR    FVIR
	   PAIRS       0      10      10     149     149       0
	 --------------------------------------------------------

	-----------------------------------------------------------
	 ==================> DF-MP2 Energies <==================== 
	-----------------------------------------------------------
	 Reference Energy          =    -323.2353908898181771 [Eh]
	 Singles Energy            =      -0.0000000000000000 [Eh]
	 Same-Spin Energy          =      -0.0046418225419404 [Eh]
	 Opposite-Spin Energy      =      -0.0178280188677726 [Eh]
	 Correlation Energy        =      -0.0224698414097130 [Eh]
	 Total Energy              =    -323.2578607312278791 [Eh]
	-----------------------------------------------------------
	 ================> DF-SCS-MP2 Energies <================== 
	-----------------------------------------------------------
	 SCS Same-Spin Scale       =       0.3333333333333333 [-]
	 SCS Opposite-Spin Scale   =       1.2000000000000000 [-]
	 SCS Same-Spin Energy      =      -0.0015472741806468 [Eh]
	 SCS Opposite-Spin Energy  =      -0.0213936226413271 [Eh]
	 SCS Correlation Energy    =      -0.0229408968219739 [Eh]
	 SCS Total Energy          =    -323.2583317866401558 [Eh]
	-----------------------------------------------------------


*** tstop() called on ddmfs1 at Mon Jan 22 04:47:23 2024
Module time:
	user time   =      23.61 seconds =       0.39 minutes
	system time =       1.38 seconds =       0.02 minutes
	total time  =         14 seconds =       0.23 minutes
Total time:
	user time   =     177.18 seconds =       2.95 minutes
	system time =      20.87 seconds =       0.35 minutes
	total time  =         60 seconds =       1.00 minutes

    Psi4 stopped on: Monday, 22 January 2024 04:47AM
    Psi4 wall time for execution: 0:00:19.46


    -----------------------------------------------------------------------
          Psi4: An Open-Source Ab Initio Electronic Structure Package
                               Psi4 1.8.2 release

                         Git: Rev {} zzzzzzz 


    D. G. A. Smith, L. A. Burns, A. C. Simmonett, R. M. Parrish,
    M. C. Schieber, R. Galvelis, P. Kraus, H. Kruse, R. Di Remigio,
    A. Alenaizan, A. M. James, S. Lehtola, J. P. Misiewicz, M. Scheurer,
    R. A. Shaw, J. B. Schriber, Y. Xie, Z. L. Glick, D. A. Sirianni,
    J. S. O'Brien, J. M. Waldrop, A. Kumar, E. G. Hohenstein,
    B. P. Pritchard, B. R. Brooks, H. F. Schaefer III, A. Yu. Sokolov,
    K. Patkowski, A. E. DePrince III, U. Bozkaya, R. A. King,
    F. A. Evangelista, J. M. Turney, T. D. Crawford, C. D. Sherrill,
    J. Chem. Phys. 152(18) 184108 (2020). https://doi.org/10.1063/5.0006002

                            Additional Code Authors
    E. T. Seidl, C. L. Janssen, E. F. Valeev, M. L. Leininger,
    J. F. Gonthier, R. M. Richard, H. R. McAlexander, M. Saitow, X. Wang,
    P. Verma, M. H. Lechner, A. Jiang, S. Behnle, A. G. Heide,
    M. F. Herbst, and D. L. Poole

             Previous Authors, Complete List of Code Contributors,
                       and Citations for Specific Modules
    https://github.com/psi4/psi4/blob/master/codemeta.json
    https://github.com/psi4/psi4/graphs/contributors
    http://psicode.org/psi4manual/master/introduction.html#citing-psifour

    -----------------------------------------------------------------------


    Psi4 started on: Monday, 22 January 2024 04:46AM

    Process ID: 32756
    Host:       ddmfs1
    PSIDATADIR: /ddmfs1b/softs/psi4conda/share/psi4
    Memory:     55.9 GiB
    Threads:    20
    
  ==> Input QCSchema <==

--------------------------------------------------------------------------
{'driver': 'energy',
 'extras': {'psiapi': True, 'wfn_qcvars_only': True},
 'id': None,
 'keywords': {'SCF_TYPE': 'DF', 'function_kwargs': {}},
 'model': {'basis': 'aug-cc-pvtz', 'method': 'mp2'},
 'molecule': {'atom_labels': ['', '', ''],
              'atomic_numbers': [35, 11, 11],
              'extras': {},
              'fix_com': True,
              'fix_orientation': True,
              'fix_symmetry': 'c1',
              'fragment_charges': [-1.0, 0.0, 1.0],
              'fragment_multiplicities': [1, 1, 1],
              'fragments': [[0], [1], [2]],
              'geometry': [0.0, 0.0, 0.0, 0.0, 4.751071945854927, 0.0, 7.126606973919329, 0.0, 0.0],
              'mass_numbers': [79, 23, 23],
              'masses': [78.9183376, 22.989769282, 22.989769282],
              'molecular_charge': 0.0,
              'molecular_multiplicity': 1,
              'name': 'dimer',
              'provenance': {'creator': 'QCElemental',
                             'routine': 'qcelemental.molparse.from_string',
                             'version': '0.26.0'},
              'real': [True, False, True],
              'schema_name': 'qcschema_molecule',
              'schema_version': 2,
              'symbols': ['Br', 'Na', 'Na'],
              'validated': True},
 'protocols': {'stdout': True},
 'provenance': {'creator': 'QCElemental', 'routine': 'qcelemental.models.results', 'version': '0.26.0'},
 'schema_name': 'qcschema_input',
 'schema_version': 1}
--------------------------------------------------------------------------

Scratch directory: /ddmfs1a/scratch/
   => Libint2 <=

    Primary   basis highest AM E, G, H:  5, 4, 3
    Auxiliary basis highest AM E, G, H:  6, 5, 4
    Onebody   basis highest AM E, G, H:  6, 5, 4
    Solid Harmonics ordering:            gaussian

*** tstart() called on ddmfs1
*** at Mon Jan 22 04:47:23 2024

   => Loading Basis Set <=

    Name: AUG-CC-PVTZ
    Role: ORBITAL
    Keyword: BASIS
    atoms 1   entry BR         line  4208 file /ddmfs1b/softs/psi4conda/share/psi4/basis/aug-cc-pvtz.gbs 
    atoms 2-3 entry NA         line   469 file /ddmfs1b/softs/psi4conda/share/psi4/basis/aug-cc-pvtz.gbs 


         ---------------------------------------------------------
                                   SCF
               by Justin Turney, Rob Parrish, Andy Simmonett
                          and Daniel G. A. Smith
                              RHF Reference
                       20 Threads,  57220 MiB Core
         ---------------------------------------------------------

  ==> Geometry <==

    Molecular point group: c1
    Full point group: Cs

    Geometry (in Bohr), charge = 0, multiplicity = 1:

       Center              X                  Y                   Z               Mass       
    ------------   -----------------  -----------------  -----------------  -----------------
         BR           0.000000000000     0.000000000000     0.000000000000    78.918337600000
      Gh(NA)          0.000000000000     4.751071945855     0.000000000000    22.989769282000
         NA           7.126606973919     0.000000000000     0.000000000000    22.989769282000

  Running in c1 symmetry.

  Rotational constants: A =      0.11600  B =      0.05156  C =      0.03569 [cm^-1]
  Rotational constants: A =   3477.73997  B =   1545.66262  C =   1070.07403 [MHz]
  Nuclear repulsion =   54.022903382907685

  Charge       = 0
  Multiplicity = 1
  Electrons    = 46
  Nalpha       = 23
  Nbeta        = 23

  ==> Algorithm <==

  SCF Algorithm Type is DF.
  DIIS enabled.
  MOM disabled.
  Fractional occupation disabled.
  Guess Type is SAD.
  Energy threshold   = 1.00e-08
  Density threshold  = 1.00e-08
  Integral threshold = 1.00e-12

  ==> Primary Basis <==

  Basis Set: AUG-CC-PVTZ
    Blend: AUG-CC-PVTZ
    Number of shells: 51
    Number of basis functions: 159
    Number of Cartesian functions: 187
    Spherical Harmonics?: true
    Max angular momentum: 3

   => Loading Basis Set <=

    Name: (AUG-CC-PVTZ AUX)
    Role: JKFIT
    Keyword: DF_BASIS_SCF
    atoms 1   entry BR         line  1492 file /ddmfs1b/softs/psi4conda/share/psi4/basis/aug-cc-pvtz-jkfit.gbs 
    atoms 2-3 entry NA         line   498 file /ddmfs1b/softs/psi4conda/share/psi4/basis/def2-universal-jkfit.gbs 

  ==> Integral Setup <==

  DFHelper Memory: AOs need 0.099 GiB; user supplied 41.910 GiB. 
  Using in-core AOs.

  ==> MemDFJK: Density-Fitted J/K Matrices <==

    J tasked:                   Yes
    K tasked:                   Yes
    wK tasked:                   No
    OpenMP threads:              20
    Memory [MiB]:             42915
    Algorithm:                 Core
    Schwarz Cutoff:           1E-12
    Mask sparsity (%):       0.0000
    Fitting Condition:        1E-10

   => Auxiliary Basis Set <=

  Basis Set: (AUG-CC-PVTZ AUX)
    Blend: AUG-CC-PVTZ-JKFIT + DEF2-UNIVERSAL-JKFIT
    Number of shells: 126
    Number of basis functions: 472
    Number of Cartesian functions: 603
    Spherical Harmonics?: true
    Max angular momentum: 4

  Minimum eigenvalue in the overlap matrix is 5.6863550308E-05.
  Reciprocal condition number of the overlap matrix is 7.6835505898E-06.
    Using symmetric orthogonalization.

  ==> Pre-Iterations <==

  SCF Guess: Superposition of Atomic Densities via on-the-fly atomic UHF (no occupation information).

   -------------------------
    Irrep   Nso     Nmo    
   -------------------------
     A        159     159 
   -------------------------
    Total     159     159
   -------------------------

  ==> Iterations <==

                           Total Energy        Delta E     RMS |[F,P]|

   @DF-RHF iter SAD: -2732.18810814305971   -2.73219e+03   0.00000e+00 
   @DF-RHF iter   1: -2734.08219169189442   -1.89408e+00   6.66120e-03 DIIS/ADIIS
   @DF-RHF iter   2: -2734.28190905966949   -1.99717e-01   3.77309e-03 DIIS/ADIIS
   @DF-RHF iter   3: -2734.35863903387735   -7.67300e-02   1.01679e-04 DIIS/ADIIS
   @DF-RHF iter   4: -2734.35882500484013   -1.85971e-04   2.17668e-05 DIIS
   @DF-RHF iter   5: -2734.35884148889136   -1.64841e-05   7.58184e-06 DIIS
   @DF-RHF iter   6: -2734.35884459188946   -3.10300e-06   1.85222e-06 DIIS
   @DF-RHF iter   7: -2734.35884483316931   -2.41280e-07   5.44581e-07 DIIS
   @DF-RHF iter   8: -2734.35884484687085   -1.37015e-08   1.51339e-07 DIIS
   @DF-RHF iter   9: -2734.35884484967983   -2.80897e-09   2.73529e-08 DIIS
   @DF-RHF iter  10: -2734.35884484978806   -1.08230e-10   5.06410e-09 DIIS
  Energy and wave function converged.


  ==> Post-Iterations <==

    Orbital Energies [Eh]
    ---------------------

    Doubly Occupied:                                                      

       1A   -489.870852     2A    -65.010545     3A    -58.365206  
       4A    -58.364946     5A    -58.364941     6A    -40.598582  
       7A     -9.682436     8A     -7.290486     9A     -7.289288  
      10A     -7.289281    11A     -3.032444    12A     -3.031929  
      13A     -3.031924    14A     -3.030367    15A     -3.030362  
      16A     -2.911320    17A     -1.634790    18A     -1.634766  
      19A     -1.633333    20A     -0.833031    21A     -0.288446  
      22A     -0.284333    23A     -0.284319  

    Virtual:                                                              

      24A     -0.052339    25A     -0.002354    26A     -0.002049  
      27A     -0.000943    28A      0.015400    29A      0.019592  
      30A      0.027338    31A      0.027511    32A      0.028885  
      33A      0.035100    34A      0.038464    35A      0.041237  
      36A      0.050750    37A      0.051045    38A      0.057357  
      39A      0.059828    40A      0.067578    41A      0.074240  
      42A      0.078632    43A      0.085164    44A      0.091717  
      45A      0.094928    46A      0.095945    47A      0.102083  
      48A      0.102608    49A      0.112328    50A      0.114943  
      51A      0.119733    52A      0.127680    53A      0.142464  
      54A      0.172627    55A      0.174397    56A      0.177598  
      57A      0.181682    58A      0.183334    59A      0.187805  
      60A      0.196700    61A      0.201767    62A      0.211426  
      63A      0.218001    64A      0.228911    65A      0.231338  
      66A      0.232942    67A      0.253148    68A      0.264802  
      69A      0.266688    70A      0.275993    71A      0.285884  
      72A      0.289838    73A      0.293108    74A      0.298108  
      75A      0.300734    76A      0.304480    77A      0.327551  
      78A      0.328213    79A      0.330932    80A      0.340956  
      81A      0.345818    82A      0.363179    83A      0.368117  
      84A      0.382554    85A      0.404842    86A      0.415758  
      87A      0.415934    88A      0.438184    89A      0.445080  
      90A      0.465935    91A      0.478711    92A      0.483249  
      93A      0.494222    94A      0.515112    95A      0.521678  
      96A      0.528324    97A      0.549476    98A      0.558821  
      99A      0.571453   100A      0.585494   101A      0.610515  
     102A      0.640326   103A      0.640891   104A      0.664233  
     105A      0.669854   106A      0.673464   107A      0.690486  
     108A      0.695342   109A      0.740256   110A      0.768039  
     111A      0.781920   112A      0.785293   113A      0.801225  
     114A      0.820422   115A      0.822372   116A      0.826806  
     117A      0.830802   118A      0.838657   119A      0.857691  
     120A      0.857779   121A      0.874830   122A      0.888544  
     123A      0.949295   124A      0.991024   125A      1.012455  
     126A      1.042314   127A      1.111817   128A      1.115444  
     129A      1.134914   130A      1.148368   131A      1.186318  
     132A      1.197440   133A      1.223625   134A      1.319733  
     135A      1.412713   136A      1.424705   137A      1.816116  
     138A      1.879070   139A      2.369740   140A      2.432209  
     141A      2.459112   142A      2.460353   143A      2.482052  
     144A      2.502732   145A      2.518389   146A      2.529808  
     147A      2.570221   148A      2.590512   149A      2.595277  
     150A      2.622137   151A      2.646550   152A      2.656070  
     153A      2.784385   154A      4.470020   155A      5.176350  
     156A      6.420446   157A      6.445772   158A      6.926919  
     159A     64.552489  

    Final Occupation by Irrep:
              A 
    DOCC [    23 ]
    NA   [    23 ]
    NB   [    23 ]

  @DF-RHF Final Energy: -2734.35884484978806

   => Energetics <=

    Nuclear Repulsion Energy =             54.0229033829076855
    One-Electron Energy =               -3923.1876403592186762
    Two-Electron Energy =                1134.8058921265228491
    Total Energy =                      -2734.3588448497880563

Computation Completed


Properties will be evaluated at   0.000000,   0.000000,   0.000000 [a0]

Properties computed using the SCF density matrix


 Multipole Moments:

 ------------------------------------------------------------------------------------
     Multipole            Electronic (a.u.)      Nuclear  (a.u.)        Total (a.u.)
 ------------------------------------------------------------------------------------

 L = 1.  Multiply by 2.5417464519 to convert [e a0] to [Debye]
 Dipole X            :        -72.2065098           78.3926767            6.1861669
 Dipole Y            :          0.0007335            0.0000000            0.0007335
 Dipole Z            :          0.0000000            0.0000000            0.0000000
 Magnitude           :                                                    6.1861669

 ------------------------------------------------------------------------------------

*** tstop() called on ddmfs1 at Mon Jan 22 04:47:30 2024
Module time:
	user time   =      47.33 seconds =       0.79 minutes
	system time =       7.86 seconds =       0.13 minutes
	total time  =          7 seconds =       0.12 minutes
Total time:
	user time   =     225.66 seconds =       3.76 minutes
	system time =      28.77 seconds =       0.48 minutes
	total time  =         67 seconds =       1.12 minutes

*** tstart() called on ddmfs1
*** at Mon Jan 22 04:47:30 2024


  //>>>>>>>>>>>>>>>>>>>>>>>>>>>>>>>>>>>//
  //               DFMP2               //
  //<<<<<<<<<<<<<<<<<<<<<<<<<<<<<<<<<<<//

   => Loading Basis Set <=

    Name: (AUG-CC-PVTZ AUX)
    Role: RIFIT
    Keyword: DF_BASIS_MP2
    atoms 1   entry BR         line  1248 file /ddmfs1b/softs/psi4conda/share/psi4/basis/aug-cc-pvtz-ri.gbs 
    atoms 2-3 entry NA         line   610 file /ddmfs1b/softs/psi4conda/share/psi4/basis/def2-qzvpp-ri.gbs 

	 --------------------------------------------------------
	                          DF-MP2                         
	      2nd-Order Density-Fitted Moller-Plesset Theory     
	              RMP2 Wavefunction,  20 Threads             
	                                                         
	        Rob Parrish, Justin Turney, Andy Simmonett,      
	           Ed Hohenstein, and C. David Sherrill          
	 --------------------------------------------------------

   => Auxiliary Basis Set <=

  Basis Set: (AUG-CC-PVTZ AUX)
    Blend: AUG-CC-PVTZ-RI + DEF2-QZVPP-RI
    Number of shells: 127
    Number of basis functions: 523
    Number of Cartesian functions: 689
    Spherical Harmonics?: true
    Max angular momentum: 5

	 --------------------------------------------------------
	                 NBF =   159, NAUX =   523
	 --------------------------------------------------------
	   CLASS    FOCC     OCC    AOCC    AVIR     VIR    FVIR
	   PAIRS       0      23      23     136     136       0
	 --------------------------------------------------------

	-----------------------------------------------------------
	 ==================> DF-MP2 Energies <==================== 
	-----------------------------------------------------------
	 Reference Energy          =   -2734.3588448497880563 [Eh]
	 Singles Energy            =      -0.0000000000000000 [Eh]
	 Same-Spin Energy          =      -0.0909323117687213 [Eh]
	 Opposite-Spin Energy      =      -0.2146010100034864 [Eh]
	 Correlation Energy        =      -0.3055333217722077 [Eh]
	 Total Energy              =   -2734.6643781715602017 [Eh]
	-----------------------------------------------------------
	 ================> DF-SCS-MP2 Energies <================== 
	-----------------------------------------------------------
	 SCS Same-Spin Scale       =       0.3333333333333333 [-]
	 SCS Opposite-Spin Scale   =       1.2000000000000000 [-]
	 SCS Same-Spin Energy      =      -0.0303107705895738 [Eh]
	 SCS Opposite-Spin Energy  =      -0.2575212120041837 [Eh]
	 SCS Correlation Energy    =      -0.2878319825937574 [Eh]
	 SCS Total Energy          =   -2734.6466768323816723 [Eh]
	-----------------------------------------------------------


*** tstop() called on ddmfs1 at Mon Jan 22 04:47:44 2024
Module time:
	user time   =      23.95 seconds =       0.40 minutes
	system time =       1.52 seconds =       0.03 minutes
	total time  =         14 seconds =       0.23 minutes
Total time:
	user time   =     249.63 seconds =       4.16 minutes
	system time =      30.29 seconds =       0.50 minutes
	total time  =         81 seconds =       1.35 minutes

    Psi4 stopped on: Monday, 22 January 2024 04:47AM
    Psi4 wall time for execution: 0:00:20.85


    -----------------------------------------------------------------------
          Psi4: An Open-Source Ab Initio Electronic Structure Package
                               Psi4 1.8.2 release

                         Git: Rev {} zzzzzzz 


    D. G. A. Smith, L. A. Burns, A. C. Simmonett, R. M. Parrish,
    M. C. Schieber, R. Galvelis, P. Kraus, H. Kruse, R. Di Remigio,
    A. Alenaizan, A. M. James, S. Lehtola, J. P. Misiewicz, M. Scheurer,
    R. A. Shaw, J. B. Schriber, Y. Xie, Z. L. Glick, D. A. Sirianni,
    J. S. O'Brien, J. M. Waldrop, A. Kumar, E. G. Hohenstein,
    B. P. Pritchard, B. R. Brooks, H. F. Schaefer III, A. Yu. Sokolov,
    K. Patkowski, A. E. DePrince III, U. Bozkaya, R. A. King,
    F. A. Evangelista, J. M. Turney, T. D. Crawford, C. D. Sherrill,
    J. Chem. Phys. 152(18) 184108 (2020). https://doi.org/10.1063/5.0006002

                            Additional Code Authors
    E. T. Seidl, C. L. Janssen, E. F. Valeev, M. L. Leininger,
    J. F. Gonthier, R. M. Richard, H. R. McAlexander, M. Saitow, X. Wang,
    P. Verma, M. H. Lechner, A. Jiang, S. Behnle, A. G. Heide,
    M. F. Herbst, and D. L. Poole

             Previous Authors, Complete List of Code Contributors,
                       and Citations for Specific Modules
    https://github.com/psi4/psi4/blob/master/codemeta.json
    https://github.com/psi4/psi4/graphs/contributors
    http://psicode.org/psi4manual/master/introduction.html#citing-psifour

    -----------------------------------------------------------------------


    Psi4 started on: Monday, 22 January 2024 04:46AM

    Process ID: 32756
    Host:       ddmfs1
    PSIDATADIR: /ddmfs1b/softs/psi4conda/share/psi4
    Memory:     55.9 GiB
    Threads:    20
    
  ==> Input QCSchema <==

--------------------------------------------------------------------------
{'driver': 'energy',
 'extras': {'psiapi': True, 'wfn_qcvars_only': True},
 'id': None,
 'keywords': {'SCF_TYPE': 'DF', 'function_kwargs': {}},
 'model': {'basis': 'aug-cc-pvtz', 'method': 'mp2'},
 'molecule': {'atom_labels': ['', '', ''],
              'atomic_numbers': [35, 11, 11],
              'extras': {},
              'fix_com': True,
              'fix_orientation': True,
              'fix_symmetry': 'c1',
              'fragment_charges': [-1.0, 1.0, 0.0],
              'fragment_multiplicities': [1, 1, 1],
              'fragments': [[0], [1], [2]],
              'geometry': [0.0, 0.0, 0.0, 0.0, 4.751071945854927, 0.0, 7.126606973919329, 0.0, 0.0],
              'mass_numbers': [79, 23, 23],
              'masses': [78.9183376, 22.989769282, 22.989769282],
              'molecular_charge': 0.0,
              'molecular_multiplicity': 1,
              'name': 'dimer',
              'provenance': {'creator': 'QCElemental',
                             'routine': 'qcelemental.molparse.from_string',
                             'version': '0.26.0'},
              'real': [True, True, False],
              'schema_name': 'qcschema_molecule',
              'schema_version': 2,
              'symbols': ['Br', 'Na', 'Na'],
              'validated': True},
 'protocols': {'stdout': True},
 'provenance': {'creator': 'QCElemental', 'routine': 'qcelemental.models.results', 'version': '0.26.0'},
 'schema_name': 'qcschema_input',
 'schema_version': 1}
--------------------------------------------------------------------------

Scratch directory: /ddmfs1a/scratch/
   => Libint2 <=

    Primary   basis highest AM E, G, H:  5, 4, 3
    Auxiliary basis highest AM E, G, H:  6, 5, 4
    Onebody   basis highest AM E, G, H:  6, 5, 4
    Solid Harmonics ordering:            gaussian

*** tstart() called on ddmfs1
*** at Mon Jan 22 04:47:44 2024

   => Loading Basis Set <=

    Name: AUG-CC-PVTZ
    Role: ORBITAL
    Keyword: BASIS
    atoms 1   entry BR         line  4208 file /ddmfs1b/softs/psi4conda/share/psi4/basis/aug-cc-pvtz.gbs 
    atoms 2-3 entry NA         line   469 file /ddmfs1b/softs/psi4conda/share/psi4/basis/aug-cc-pvtz.gbs 


         ---------------------------------------------------------
                                   SCF
               by Justin Turney, Rob Parrish, Andy Simmonett
                          and Daniel G. A. Smith
                              RHF Reference
                       20 Threads,  57220 MiB Core
         ---------------------------------------------------------

  ==> Geometry <==

    Molecular point group: c1
    Full point group: Cs

    Geometry (in Bohr), charge = 0, multiplicity = 1:

       Center              X                  Y                   Z               Mass       
    ------------   -----------------  -----------------  -----------------  -----------------
         BR           0.000000000000     0.000000000000     0.000000000000    78.918337600000
         NA           0.000000000000     4.751071945855     0.000000000000    22.989769282000
      Gh(NA)          7.126606973919     0.000000000000     0.000000000000    22.989769282000

  Running in c1 symmetry.

  Rotational constants: A =      0.11600  B =      0.05156  C =      0.03569 [cm^-1]
  Rotational constants: A =   3477.73997  B =   1545.66262  C =   1070.07403 [MHz]
  Nuclear repulsion =   81.034344330629054

  Charge       = 0
  Multiplicity = 1
  Electrons    = 46
  Nalpha       = 23
  Nbeta        = 23

  ==> Algorithm <==

  SCF Algorithm Type is DF.
  DIIS enabled.
  MOM disabled.
  Fractional occupation disabled.
  Guess Type is SAD.
  Energy threshold   = 1.00e-08
  Density threshold  = 1.00e-08
  Integral threshold = 1.00e-12

  ==> Primary Basis <==

  Basis Set: AUG-CC-PVTZ
    Blend: AUG-CC-PVTZ
    Number of shells: 51
    Number of basis functions: 159
    Number of Cartesian functions: 187
    Spherical Harmonics?: true
    Max angular momentum: 3

   => Loading Basis Set <=

    Name: (AUG-CC-PVTZ AUX)
    Role: JKFIT
    Keyword: DF_BASIS_SCF
    atoms 1   entry BR         line  1492 file /ddmfs1b/softs/psi4conda/share/psi4/basis/aug-cc-pvtz-jkfit.gbs 
    atoms 2-3 entry NA         line   498 file /ddmfs1b/softs/psi4conda/share/psi4/basis/def2-universal-jkfit.gbs 

  ==> Integral Setup <==

  DFHelper Memory: AOs need 0.099 GiB; user supplied 41.910 GiB. 
  Using in-core AOs.

  ==> MemDFJK: Density-Fitted J/K Matrices <==

    J tasked:                   Yes
    K tasked:                   Yes
    wK tasked:                   No
    OpenMP threads:              20
    Memory [MiB]:             42915
    Algorithm:                 Core
    Schwarz Cutoff:           1E-12
    Mask sparsity (%):       0.0000
    Fitting Condition:        1E-10

   => Auxiliary Basis Set <=

  Basis Set: (AUG-CC-PVTZ AUX)
    Blend: AUG-CC-PVTZ-JKFIT + DEF2-UNIVERSAL-JKFIT
    Number of shells: 126
    Number of basis functions: 472
    Number of Cartesian functions: 603
    Spherical Harmonics?: true
    Max angular momentum: 4

  Minimum eigenvalue in the overlap matrix is 5.6863550308E-05.
  Reciprocal condition number of the overlap matrix is 7.6835505898E-06.
    Using symmetric orthogonalization.

  ==> Pre-Iterations <==

  SCF Guess: Superposition of Atomic Densities via on-the-fly atomic UHF (no occupation information).

   -------------------------
    Irrep   Nso     Nmo    
   -------------------------
     A        159     159 
   -------------------------
    Total     159     159
   -------------------------

  ==> Iterations <==

                           Total Energy        Delta E     RMS |[F,P]|

   @DF-RHF iter SAD: -2732.24870890188095   -2.73225e+03   0.00000e+00 
   @DF-RHF iter   1: -2734.14132564669262   -1.89262e+00   6.64446e-03 DIIS/ADIIS
   @DF-RHF iter   2: -2734.34429034865707   -2.02965e-01   3.59257e-03 DIIS/ADIIS
   @DF-RHF iter   3: -2734.40583582848058   -6.15455e-02   6.53111e-05 DIIS
   @DF-RHF iter   4: -2734.40588974582988   -5.39173e-05   1.50033e-05 DIIS
   @DF-RHF iter   5: -2734.40589430675800   -4.56093e-06   4.47022e-06 DIIS
   @DF-RHF iter   6: -2734.40589484488555   -5.38128e-07   1.05839e-06 DIIS
   @DF-RHF iter   7: -2734.40589491459195   -6.97064e-08   1.83894e-07 DIIS
   @DF-RHF iter   8: -2734.40589491727906   -2.68710e-09   3.08499e-08 DIIS
   @DF-RHF iter   9: -2734.40589491735909   -8.00355e-11   5.85283e-09 DIIS
  Energy and wave function converged.


  ==> Post-Iterations <==

    Orbital Energies [Eh]
    ---------------------

    Doubly Occupied:                                                      

       1A   -489.910040     2A    -65.050462     3A    -58.404958  
       4A    -58.404891     5A    -58.404891     6A    -40.508087  
       7A     -9.723046     8A     -7.330989     9A     -7.330177  
      10A     -7.330174    11A     -3.072661    12A     -3.072315  
      13A     -3.072314    14A     -3.071500    15A     -3.071496  
      16A     -2.829246    17A     -1.551981    18A     -1.551956  
      19A     -1.551758    20A     -0.883367    21A     -0.348356  
      22A     -0.330540    23A     -0.330534  

    Virtual:                                                              

      24A     -0.021528    25A      0.008797    26A      0.010828  
      27A      0.011814    28A      0.015853    29A      0.024866  
      30A      0.024997    31A      0.028467    32A      0.035779  
      33A      0.040134    34A      0.041349    35A      0.049402  
      36A      0.056871    37A      0.063437    38A      0.064862  
      39A      0.069079    40A      0.071908    41A      0.076539  
[...]
	   CLASS    FOCC     OCC    AOCC    AVIR     VIR    FVIR
	   PAIRS       0       5       5     154     154       0
	 --------------------------------------------------------

	-----------------------------------------------------------
	 ==================> DF-MP2 Energies <==================== 
	-----------------------------------------------------------
	 Reference Energy          =    -161.6760316309863015 [Eh]
	 Singles Energy            =      -0.0000000000000000 [Eh]
	 Same-Spin Energy          =      -0.0021035203277870 [Eh]
	 Opposite-Spin Energy      =      -0.0083235299071585 [Eh]
	 Correlation Energy        =      -0.0104270502349455 [Eh]
	 Total Energy              =    -161.6864586812212394 [Eh]
	-----------------------------------------------------------
	 ================> DF-SCS-MP2 Energies <================== 
	-----------------------------------------------------------
	 SCS Same-Spin Scale       =       0.3333333333333333 [-]
	 SCS Opposite-Spin Scale   =       1.2000000000000000 [-]
	 SCS Same-Spin Energy      =      -0.0007011734425957 [Eh]
	 SCS Opposite-Spin Energy  =      -0.0099882358885902 [Eh]
	 SCS Correlation Energy    =      -0.0106894093311858 [Eh]
	 SCS Total Energy          =    -161.6867210403174795 [Eh]
	-----------------------------------------------------------


*** tstop() called on ddmfs1 at Mon Jan 22 04:48:25 2024
Module time:
	user time   =      23.62 seconds =       0.39 minutes
	system time =       1.41 seconds =       0.02 minutes
	total time  =         15 seconds =       0.25 minutes
Total time:
	user time   =     377.40 seconds =       6.29 minutes
	system time =      45.64 seconds =       0.76 minutes
	total time  =        122 seconds =       2.03 minutes

    Psi4 stopped on: Monday, 22 January 2024 04:48AM
    Psi4 wall time for execution: 0:00:19.53


    -----------------------------------------------------------------------
          Psi4: An Open-Source Ab Initio Electronic Structure Package
                               Psi4 1.8.2 release

                         Git: Rev {} zzzzzzz 


    D. G. A. Smith, L. A. Burns, A. C. Simmonett, R. M. Parrish,
    M. C. Schieber, R. Galvelis, P. Kraus, H. Kruse, R. Di Remigio,
    A. Alenaizan, A. M. James, S. Lehtola, J. P. Misiewicz, M. Scheurer,
    R. A. Shaw, J. B. Schriber, Y. Xie, Z. L. Glick, D. A. Sirianni,
    J. S. O'Brien, J. M. Waldrop, A. Kumar, E. G. Hohenstein,
    B. P. Pritchard, B. R. Brooks, H. F. Schaefer III, A. Yu. Sokolov,
    K. Patkowski, A. E. DePrince III, U. Bozkaya, R. A. King,
    F. A. Evangelista, J. M. Turney, T. D. Crawford, C. D. Sherrill,
    J. Chem. Phys. 152(18) 184108 (2020). https://doi.org/10.1063/5.0006002

                            Additional Code Authors
    E. T. Seidl, C. L. Janssen, E. F. Valeev, M. L. Leininger,
    J. F. Gonthier, R. M. Richard, H. R. McAlexander, M. Saitow, X. Wang,
    P. Verma, M. H. Lechner, A. Jiang, S. Behnle, A. G. Heide,
    M. F. Herbst, and D. L. Poole

             Previous Authors, Complete List of Code Contributors,
                       and Citations for Specific Modules
    https://github.com/psi4/psi4/blob/master/codemeta.json
    https://github.com/psi4/psi4/graphs/contributors
    http://psicode.org/psi4manual/master/introduction.html#citing-psifour

    -----------------------------------------------------------------------


    Psi4 started on: Monday, 22 January 2024 04:46AM

    Process ID: 32756
    Host:       ddmfs1
    PSIDATADIR: /ddmfs1b/softs/psi4conda/share/psi4
    Memory:     55.9 GiB
    Threads:    20
    
  ==> Input QCSchema <==

--------------------------------------------------------------------------
{'driver': 'energy',
 'extras': {'psiapi': True, 'wfn_qcvars_only': True},
 'id': None,
 'keywords': {'SCF_TYPE': 'DF', 'function_kwargs': {}},
 'model': {'basis': 'aug-cc-pvtz', 'method': 'mp2'},
 'molecule': {'atom_labels': ['', '', ''],
              'atomic_numbers': [35, 11, 11],
              'extras': {},
              'fix_com': True,
              'fix_orientation': True,
              'fix_symmetry': 'c1',
              'fragment_charges': [-1.0, 1.0, 1.0],
              'fragment_multiplicities': [1, 1, 1],
              'fragments': [[0], [1], [2]],
              'geometry': [0.0, 0.0, 0.0, 0.0, 4.751071945854927, 0.0, 7.126606973919329, 0.0, 0.0],
              'mass_numbers': [79, 23, 23],
              'masses': [78.9183376, 22.989769282, 22.989769282],
              'molecular_charge': 1.0,
              'molecular_multiplicity': 1,
              'name': 'dimer',
              'provenance': {'creator': 'QCElemental',
                             'routine': 'qcelemental.molparse.from_string',
                             'version': '0.26.0'},
              'real': [True, True, True],
              'schema_name': 'qcschema_molecule',
              'schema_version': 2,
              'symbols': ['Br', 'Na', 'Na'],
              'validated': True},
 'protocols': {'stdout': True},
 'provenance': {'creator': 'QCElemental', 'routine': 'qcelemental.models.results', 'version': '0.26.0'},
 'schema_name': 'qcschema_input',
 'schema_version': 1}
--------------------------------------------------------------------------

Scratch directory: /ddmfs1a/scratch/
   => Libint2 <=

    Primary   basis highest AM E, G, H:  5, 4, 3
    Auxiliary basis highest AM E, G, H:  6, 5, 4
    Onebody   basis highest AM E, G, H:  6, 5, 4
    Solid Harmonics ordering:            gaussian

*** tstart() called on ddmfs1
*** at Mon Jan 22 04:48:25 2024

   => Loading Basis Set <=

    Name: AUG-CC-PVTZ
    Role: ORBITAL
    Keyword: BASIS
    atoms 1   entry BR         line  4208 file /ddmfs1b/softs/psi4conda/share/psi4/basis/aug-cc-pvtz.gbs 
    atoms 2-3 entry NA         line   469 file /ddmfs1b/softs/psi4conda/share/psi4/basis/aug-cc-pvtz.gbs 


         ---------------------------------------------------------
                                   SCF
               by Justin Turney, Rob Parrish, Andy Simmonett
                          and Daniel G. A. Smith
                              RHF Reference
                       20 Threads,  57220 MiB Core
         ---------------------------------------------------------

  ==> Geometry <==

    Molecular point group: c1
    Full point group: Cs

    Geometry (in Bohr), charge = 1, multiplicity = 1:

       Center              X                  Y                   Z               Mass       
    ------------   -----------------  -----------------  -----------------  -----------------
         BR           0.000000000000     0.000000000000     0.000000000000    78.918337600000
         NA           0.000000000000     4.751071945855     0.000000000000    22.989769282000
         NA           7.126606973919     0.000000000000     0.000000000000    22.989769282000

  Running in c1 symmetry.

  Rotational constants: A =      0.11600  B =      0.05156  C =      0.03569 [cm^-1]
  Rotational constants: A =   3477.73997  B =   1545.66262  C =   1070.07403 [MHz]
  Nuclear repulsion =  149.184318544887503

  Charge       = 1
  Multiplicity = 1
  Electrons    = 56
  Nalpha       = 28
  Nbeta        = 28

  ==> Algorithm <==

  SCF Algorithm Type is DF.
  DIIS enabled.
  MOM disabled.
  Fractional occupation disabled.
  Guess Type is SAD.
  Energy threshold   = 1.00e-08
  Density threshold  = 1.00e-08
  Integral threshold = 1.00e-12

  ==> Primary Basis <==

  Basis Set: AUG-CC-PVTZ
    Blend: AUG-CC-PVTZ
    Number of shells: 51
    Number of basis functions: 159
    Number of Cartesian functions: 187
    Spherical Harmonics?: true
    Max angular momentum: 3

   => Loading Basis Set <=

    Name: (AUG-CC-PVTZ AUX)
    Role: JKFIT
    Keyword: DF_BASIS_SCF
    atoms 1   entry BR         line  1492 file /ddmfs1b/softs/psi4conda/share/psi4/basis/aug-cc-pvtz-jkfit.gbs 
    atoms 2-3 entry NA         line   498 file /ddmfs1b/softs/psi4conda/share/psi4/basis/def2-universal-jkfit.gbs 

  ==> Integral Setup <==

  DFHelper Memory: AOs need 0.099 GiB; user supplied 41.910 GiB. 
  Using in-core AOs.

  ==> MemDFJK: Density-Fitted J/K Matrices <==

    J tasked:                   Yes
    K tasked:                   Yes
    wK tasked:                   No
    OpenMP threads:              20
    Memory [MiB]:             42915
    Algorithm:                 Core
    Schwarz Cutoff:           1E-12
    Mask sparsity (%):       0.0000
    Fitting Condition:        1E-10

   => Auxiliary Basis Set <=

  Basis Set: (AUG-CC-PVTZ AUX)
    Blend: AUG-CC-PVTZ-JKFIT + DEF2-UNIVERSAL-JKFIT
    Number of shells: 126
    Number of basis functions: 472
    Number of Cartesian functions: 603
    Spherical Harmonics?: true
    Max angular momentum: 4

  Minimum eigenvalue in the overlap matrix is 5.6863550308E-05.
  Reciprocal condition number of the overlap matrix is 7.6835505898E-06.
    Using symmetric orthogonalization.

  ==> Pre-Iterations <==

  SCF Guess: Superposition of Atomic Densities via on-the-fly atomic UHF (no occupation information).

   -------------------------
    Irrep   Nso     Nmo    
   -------------------------
     A        159     159 
   -------------------------
    Total     159     159
   -------------------------

  ==> Iterations <==

                           Total Energy        Delta E     RMS |[F,P]|

   @DF-RHF iter SAD: -2894.03901401733083   -2.89404e+03   0.00000e+00 
   @DF-RHF iter   1: -2895.85087515475152   -1.81186e+00   6.60616e-03 DIIS/ADIIS
   @DF-RHF iter   2: -2896.04885040638828   -1.97975e-01   3.58279e-03 DIIS/ADIIS
   @DF-RHF iter   3: -2896.11122718446131   -6.23768e-02   7.26696e-05 DIIS
   @DF-RHF iter   4: -2896.11131494437723   -8.77599e-05   1.75686e-05 DIIS
   @DF-RHF iter   5: -2896.11132404679302   -9.10242e-06   6.13711e-06 DIIS
   @DF-RHF iter   6: -2896.11132553306243   -1.48627e-06   1.66408e-06 DIIS
   @DF-RHF iter   7: -2896.11132573671466   -2.03652e-07   3.19840e-07 DIIS
   @DF-RHF iter   8: -2896.11132574499698   -8.28231e-09   4.68868e-08 DIIS
   @DF-RHF iter   9: -2896.11132574514340   -1.46429e-10   1.30603e-08 DIIS
   @DF-RHF iter  10: -2896.11132574515250   -9.09495e-12   2.72119e-09 DIIS
  Energy and wave function converged.


  ==> Post-Iterations <==

    Orbital Energies [Eh]
    ---------------------

    Doubly Occupied:                                                      

       1A   -490.055339     2A    -65.195646     3A    -58.550206  
       4A    -58.550053     5A    -58.550004     6A    -40.722682  
       7A    -40.629378     8A     -9.868148     9A     -7.475942  
      10A     -7.475604    11A     -7.474922    12A     -3.217857  
      13A     -3.217791    14A     -3.217065    15A     -3.216504  
      16A     -3.216409    17A     -3.035036    18A     -2.950193  
      19A     -1.758591    20A     -1.758372    21A     -1.757487  
      22A     -1.673246    23A     -1.673026    24A     -1.672851  
      25A     -1.027029    26A     -0.489973    27A     -0.477620  
      28A     -0.472088  

    Virtual:                                                              

      29A     -0.156218    30A     -0.117682    31A     -0.092670  
      32A     -0.089114    33A     -0.074159    34A     -0.063923  
      35A     -0.060324    36A     -0.054211    37A     -0.051313  
      38A     -0.042229    39A     -0.039018    40A     -0.036396  
      41A     -0.035112    42A     -0.032701    43A     -0.032227  
      44A     -0.026348    45A     -0.023289    46A     -0.020592  
      47A     -0.016358    48A     -0.012548    49A     -0.009150  
      50A     -0.007899    51A     -0.004843    52A      0.004204  
      53A      0.008657    54A      0.011441    55A      0.014253  
      56A      0.016212    57A      0.017962    58A      0.026807  
      59A      0.030331    60A      0.044437    61A      0.065333  
      62A      0.071193    63A      0.072179    64A      0.073568  
      65A      0.075946    66A      0.082929    67A      0.085754  
      68A      0.096191    69A      0.102582    70A      0.110979  
      71A      0.113397    72A      0.115321    73A      0.123853  
      74A      0.129812    75A      0.134812    76A      0.145530  
      77A      0.150373    78A      0.153820    79A      0.164865  
      80A      0.175393    81A      0.177202    82A      0.183636  
      83A      0.187663    84A      0.191240    85A      0.194852  
      86A      0.197321    87A      0.217148    88A      0.218246  
      89A      0.221803    90A      0.222570    91A      0.250883  
      92A      0.259172    93A      0.275132    94A      0.276090  
      95A      0.289731    96A      0.323123    97A      0.324218  
      98A      0.331485    99A      0.342160   100A      0.369439  
     101A      0.392344   102A      0.408746   103A      0.411555  
     104A      0.433500   105A      0.442928   106A      0.465849  
     107A      0.469638   108A      0.481756   109A      0.483212  
     110A      0.509795   111A      0.526076   112A      0.526218  
     113A      0.534486   114A      0.534581   115A      0.540460  
     116A      0.546237   117A      0.554407   118A      0.558927  
     119A      0.580663   120A      0.589801   121A      0.589806  
     122A      0.600497   123A      0.621151   124A      0.628624  
     125A      0.638041   126A      0.661344   127A      0.705621  
     128A      0.735491   129A      0.808220   130A      0.819493  
     131A      0.893352   132A      0.906133   133A      0.929522  
     134A      0.971417   135A      0.999562   136A      1.003872  
     137A      1.008376   138A      1.044094   139A      1.200559  
     140A      1.211553   141A      1.455747   142A      1.737180  
     143A      2.064268   144A      2.190222   145A      2.252145  
     146A      2.277011   147A      2.277274   148A      2.298269  
     149A      2.314070   150A      2.331470   151A      2.349222  
     152A      2.389604   153A      2.395471   154A      2.420591  
     155A      2.432893   156A      2.450097   157A      2.461710  
     158A      2.581902   159A      4.785598  

    Final Occupation by Irrep:
              A 
    DOCC [    28 ]
    NA   [    28 ]
    NB   [    28 ]

  @DF-RHF Final Energy: -2896.11132574515250

   => Energetics <=

    Nuclear Repulsion Energy =            149.1843185448875033
    One-Electron Energy =               -4331.8331750392135291
    Two-Electron Energy =                1286.5375307491731292
    Total Energy =                      -2896.1113257451524987

Computation Completed


Properties will be evaluated at   0.000000,   0.000000,   0.000000 [a0]

Properties computed using the SCF density matrix


 Multipole Moments:

 ------------------------------------------------------------------------------------
     Multipole            Electronic (a.u.)      Nuclear  (a.u.)        Total (a.u.)
 ------------------------------------------------------------------------------------

 L = 1.  Multiply by 2.5417464519 to convert [e a0] to [Debye]
 Dipole X            :        -71.9983391           78.3926767            6.3943376
 Dipole Y            :        -48.4715994           52.2617914            3.7901920
 Dipole Z            :          0.0000000            0.0000000            0.0000000
 Magnitude           :                                                    7.4332435

 ------------------------------------------------------------------------------------

*** tstop() called on ddmfs1 at Mon Jan 22 04:48:31 2024
Module time:
	user time   =      47.47 seconds =       0.79 minutes
	system time =       7.70 seconds =       0.13 minutes
	total time  =          6 seconds =       0.10 minutes
Total time:
	user time   =     426.01 seconds =       7.10 minutes
	system time =      53.37 seconds =       0.89 minutes
	total time  =        128 seconds =       2.13 minutes

*** tstart() called on ddmfs1
*** at Mon Jan 22 04:48:31 2024


  //>>>>>>>>>>>>>>>>>>>>>>>>>>>>>>>>>>>//
  //               DFMP2               //
  //<<<<<<<<<<<<<<<<<<<<<<<<<<<<<<<<<<<//

   => Loading Basis Set <=

    Name: (AUG-CC-PVTZ AUX)
    Role: RIFIT
    Keyword: DF_BASIS_MP2
    atoms 1   entry BR         line  1248 file /ddmfs1b/softs/psi4conda/share/psi4/basis/aug-cc-pvtz-ri.gbs 
    atoms 2-3 entry NA         line   610 file /ddmfs1b/softs/psi4conda/share/psi4/basis/def2-qzvpp-ri.gbs 

	 --------------------------------------------------------
	                          DF-MP2                         
	      2nd-Order Density-Fitted Moller-Plesset Theory     
	              RMP2 Wavefunction,  20 Threads             
	                                                         
	        Rob Parrish, Justin Turney, Andy Simmonett,      
	           Ed Hohenstein, and C. David Sherrill          
	 --------------------------------------------------------

   => Auxiliary Basis Set <=

  Basis Set: (AUG-CC-PVTZ AUX)
    Blend: AUG-CC-PVTZ-RI + DEF2-QZVPP-RI
    Number of shells: 127
    Number of basis functions: 523
    Number of Cartesian functions: 689
    Spherical Harmonics?: true
    Max angular momentum: 5

	 --------------------------------------------------------
	                 NBF =   159, NAUX =   523
	 --------------------------------------------------------
	   CLASS    FOCC     OCC    AOCC    AVIR     VIR    FVIR
	   PAIRS       0      28      28     131     131       0
	 --------------------------------------------------------

	-----------------------------------------------------------
	 ==================> DF-MP2 Energies <==================== 
	-----------------------------------------------------------
	 Reference Energy          =   -2896.1113257451524987 [Eh]
	 Singles Energy            =      -0.0000000000000000 [Eh]
	 Same-Spin Energy          =      -0.0936238235379474 [Eh]
	 Opposite-Spin Energy      =      -0.2235229125719257 [Eh]
	 Correlation Energy        =      -0.3171467361098731 [Eh]
	 Total Energy              =   -2896.4284724812623608 [Eh]
	-----------------------------------------------------------
	 ================> DF-SCS-MP2 Energies <================== 
	-----------------------------------------------------------
	 SCS Same-Spin Scale       =       0.3333333333333333 [-]
	 SCS Opposite-Spin Scale   =       1.2000000000000000 [-]
	 SCS Same-Spin Energy      =      -0.0312079411793158 [Eh]
	 SCS Opposite-Spin Energy  =      -0.2682274950863108 [Eh]
	 SCS Correlation Energy    =      -0.2994354362656266 [Eh]
	 SCS Total Energy          =   -2896.4107611814179108 [Eh]
	-----------------------------------------------------------


*** tstop() called on ddmfs1 at Mon Jan 22 04:48:46 2024
Module time:
	user time   =      24.14 seconds =       0.40 minutes
	system time =       1.42 seconds =       0.02 minutes
	total time  =         15 seconds =       0.25 minutes
Total time:
	user time   =     450.17 seconds =       7.50 minutes
	system time =      54.79 seconds =       0.91 minutes
	total time  =        143 seconds =       2.38 minutes

    Psi4 stopped on: Monday, 22 January 2024 04:48AM
    Psi4 wall time for execution: 0:00:20.93


  //>>>>>>>>>>>>>>>>>>>>>>>>>>>>>>>>>>>//
  //          ManyBody Results         //
  //<<<<<<<<<<<<<<<<<<<<<<<<<<<<<<<<<<<//


   ==> N-Body: Counterpoise Corrected (CP) energies <==

        n-Body     Total Energy            Interaction Energy                          N-body Contribution to Interaction Energy
                   [Eh]                    [Eh]                  [kcal/mol]            [Eh]                  [kcal/mol]
             1  N/A                         0.000000000000        0.000000000000        0.000000000000        0.000000000000
             2  N/A                        -0.230177272508     -144.438419146866       -0.230177272508     -144.438419146866
  FULL/RTN   3  N/A                        -0.226403474086     -142.070324885147        0.003773798422        2.368094261720


    Psi4 stopped on: Monday, 22 January 2024 04:48AM
    Psi4 wall time for execution: 0:02:25.32

*** Psi4 exiting successfully. Buy a developer a beer!
