
    -----------------------------------------------------------------------
          Psi4: An Open-Source Ab Initio Electronic Structure Package
                               Psi4 1.8.2 release

                         Git: Rev {} zzzzzzz 


    D. G. A. Smith, L. A. Burns, A. C. Simmonett, R. M. Parrish,
    M. C. Schieber, R. Galvelis, P. Kraus, H. Kruse, R. Di Remigio,
    A. Alenaizan, A. M. James, S. Lehtola, J. P. Misiewicz, M. Scheurer,
    R. A. Shaw, J. B. Schriber, Y. Xie, Z. L. Glick, D. A. Sirianni,
    J. S. O'Brien, J. M. Waldrop, A. Kumar, E. G. Hohenstein,
    B. P. Pritchard, B. R. Brooks, H. F. Schaefer III, A. Yu. Sokolov,
    K. Patkowski, A. E. DePrince III, U. Bozkaya, R. A. King,
    F. A. Evangelista, J. M. Turney, T. D. Crawford, C. D. Sherrill,
    J. Chem. Phys. 152(18) 184108 (2020). https://doi.org/10.1063/5.0006002

                            Additional Code Authors
    E. T. Seidl, C. L. Janssen, E. F. Valeev, M. L. Leininger,
    J. F. Gonthier, R. M. Richard, H. R. McAlexander, M. Saitow, X. Wang,
    P. Verma, M. H. Lechner, A. Jiang, S. Behnle, A. G. Heide,
    M. F. Herbst, and D. L. Poole

             Previous Authors, Complete List of Code Contributors,
                       and Citations for Specific Modules
    https://github.com/psi4/psi4/blob/master/codemeta.json
    https://github.com/psi4/psi4/graphs/contributors
    http://psicode.org/psi4manual/master/introduction.html#citing-psifour

    -----------------------------------------------------------------------


    Psi4 started on: Monday, 22 January 2024 12:28PM

    Process ID: 47777
    Host:       ddmfs1
    PSIDATADIR: /ddmfs1b/softs/psi4conda/share/psi4
    Memory:     500.0 MiB
    Threads:    20
    
  ==> Input File <==

--------------------------------------------------------------------------
MEMORY 60 GB

molecule dimer {
-1 1
Na         0.000000     0.000000     0.000000
Br         0.000000     2.514159     0.000000
Br         3.771238     0.000000     0.000000

units ang
no_reorient
no_com
symmetry c1
}

set {
basis        aug-cc-pVTZ
scf_type     df
}

energy("mp2")
--------------------------------------------------------------------------

  Memory set to  55.879 GiB by Python driver.

Scratch directory: /ddmfs1a/scratch/
   => Libint2 <=

    Primary   basis highest AM E, G, H:  5, 4, 3
    Auxiliary basis highest AM E, G, H:  6, 5, 4
    Onebody   basis highest AM E, G, H:  6, 5, 4
    Solid Harmonics ordering:            gaussian

*** tstart() called on ddmfs1
*** at Mon Jan 22 12:28:05 2024

   => Loading Basis Set <=

    Name: AUG-CC-PVTZ
    Role: ORBITAL
    Keyword: BASIS
    atoms 1   entry NA         line   469 file /ddmfs1b/softs/psi4conda/share/psi4/basis/aug-cc-pvtz.gbs 
    atoms 2-3 entry BR         line  4208 file /ddmfs1b/softs/psi4conda/share/psi4/basis/aug-cc-pvtz.gbs 


         ---------------------------------------------------------
                                   SCF
               by Justin Turney, Rob Parrish, Andy Simmonett
                          and Daniel G. A. Smith
                              RHF Reference
                       20 Threads,  57220 MiB Core
         ---------------------------------------------------------

  ==> Geometry <==

    Molecular point group: c1
    Full point group: Cs

    Geometry (in Angstrom), charge = -1, multiplicity = 1:

       Center              X                  Y                   Z               Mass       
    ------------   -----------------  -----------------  -----------------  -----------------
         NA           0.000000000000     0.000000000000     0.000000000000    22.989769282000
         BR           0.000000000000     2.514159000000     0.000000000000    78.918337600000
         BR           3.771238000000     0.000000000000     0.000000000000    78.918337600000

  Running in c1 symmetry.

  Rotational constants: A =      0.03379  B =      0.01502  C =      0.01040 [cm^-1]
  Rotational constants: A =   1013.10344  B =    450.26832  C =    311.72419 [MHz]
  Nuclear repulsion =  278.079245799525779

  Charge       = -1
  Multiplicity = 1
  Electrons    = 82
  Nalpha       = 41
  Nbeta        = 41

  ==> Algorithm <==

  SCF Algorithm Type is DF.
  DIIS enabled.
  MOM disabled.
  Fractional occupation disabled.
  Guess Type is SAD.
  Energy threshold   = 1.00e-08
  Density threshold  = 1.00e-08
  Integral threshold = 1.00e-12

  ==> Primary Basis <==

  Basis Set: AUG-CC-PVTZ
    Blend: AUG-CC-PVTZ
    Number of shells: 54
    Number of basis functions: 168
    Number of Cartesian functions: 197
    Spherical Harmonics?: true
    Max angular momentum: 3

   => Loading Basis Set <=

    Name: (AUG-CC-PVTZ AUX)
    Role: JKFIT
    Keyword: DF_BASIS_SCF
    atoms 1   entry NA         line   498 file /ddmfs1b/softs/psi4conda/share/psi4/basis/def2-universal-jkfit.gbs 
    atoms 2-3 entry BR         line  1492 file /ddmfs1b/softs/psi4conda/share/psi4/basis/aug-cc-pvtz-jkfit.gbs 

  ==> Integral Setup <==

  DFHelper Memory: AOs need 0.139 GiB; user supplied 41.910 GiB. 
  Using in-core AOs.

  ==> MemDFJK: Density-Fitted J/K Matrices <==

    J tasked:                   Yes
    K tasked:                   Yes
    wK tasked:                   No
    OpenMP threads:              20
    Memory [MiB]:             42915
    Algorithm:                 Core
    Schwarz Cutoff:           1E-12
    Mask sparsity (%):       1.0133
    Fitting Condition:        1E-10

   => Auxiliary Basis Set <=

  Basis Set: (AUG-CC-PVTZ AUX)
    Blend: AUG-CC-PVTZ-JKFIT + DEF2-UNIVERSAL-JKFIT
    Number of shells: 150
    Number of basis functions: 608
    Number of Cartesian functions: 795
    Spherical Harmonics?: true
    Max angular momentum: 4

  Minimum eigenvalue in the overlap matrix is 6.0706964690E-05.
  Reciprocal condition number of the overlap matrix is 1.0538604308E-05.
    Using symmetric orthogonalization.

  ==> Pre-Iterations <==

  SCF Guess: Superposition of Atomic Densities via on-the-fly atomic UHF (no occupation information).

   -------------------------
    Irrep   Nso     Nmo    
   -------------------------
     A        168     168 
   -------------------------
    Total     168     168
   -------------------------

  ==> Iterations <==

                           Total Energy        Delta E     RMS |[F,P]|

   @DF-RHF iter SAD: -5302.69196287537306   -5.30269e+03   0.00000e+00 
   @DF-RHF iter   1: -5306.42457944126181   -3.73262e+00   8.83851e-03 DIIS/ADIIS
   @DF-RHF iter   2: -5306.83200284781833   -4.07423e-01   4.82416e-03 DIIS/ADIIS
   @DF-RHF iter   3: -5306.96067817130370   -1.28675e-01   1.07389e-04 DIIS/ADIIS
   @DF-RHF iter   4: -5306.96081333517395   -1.35164e-04   2.64430e-05 DIIS
   @DF-RHF iter   5: -5306.96082451943039   -1.11843e-05   8.23966e-06 DIIS
   @DF-RHF iter   6: -5306.96082633877722   -1.81935e-06   1.89804e-06 DIIS
   @DF-RHF iter   7: -5306.96082655876944   -2.19992e-07   5.40207e-07 DIIS
   @DF-RHF iter   8: -5306.96082657403349   -1.52640e-08   1.17050e-07 DIIS
   @DF-RHF iter   9: -5306.96082657498482   -9.51331e-10   3.18584e-08 DIIS
   @DF-RHF iter  10: -5306.96082657505940   -7.45786e-11   6.46616e-09 DIIS
  Energy and wave function converged.


  ==> Post-Iterations <==

    Orbital Energies [Eh]
    ---------------------

    Doubly Occupied:                                                      

       1A   -489.790658     2A   -489.744835     3A    -64.931162  
       4A    -64.884826     5A    -58.285673     6A    -58.285621  
       7A    -58.285553     8A    -58.239378     9A    -58.239282  
      10A    -58.239250    11A    -40.370914    12A     -9.603835  
      13A     -9.557086    14A     -7.211792    15A     -7.211134  
      16A     -7.210870    17A     -7.164790    18A     -7.164312  
      19A     -7.164146    20A     -2.953482    21A     -2.953298  
      22A     -2.952963    23A     -2.952302    24A     -2.952262  
      25A     -2.906591    26A     -2.906438    27A     -2.906231  
      28A     -2.905611    29A     -2.905595    30A     -2.691848  
      31A     -1.415015    32A     -1.414968    33A     -1.413803  
      34A     -0.764641    35A     -0.710109    36A     -0.230474  
      37A     -0.213102    38A     -0.211882    39A     -0.165510  
      40A     -0.162547    41A     -0.160630  

    Virtual:                                                              

      42A      0.063550    43A      0.082420    44A      0.084601  
      45A      0.096212    46A      0.101625    47A      0.125042  
      48A      0.131369    49A      0.143616    50A      0.155536  
      51A      0.157604    52A      0.173688    53A      0.174839  
      54A      0.177260    55A      0.198323    56A      0.218207  
      57A      0.221787    58A      0.245634    59A      0.257716  
      60A      0.267007    61A      0.267582    62A      0.267624  
      63A      0.271522    64A      0.278698    65A      0.326806  
      66A      0.330358    67A      0.330743    68A      0.349632  
      69A      0.357204    70A      0.377954    71A      0.378146  
      72A      0.385556    73A      0.393242    74A      0.409156  
      75A      0.426957    76A      0.432135    77A      0.433615  
      78A      0.443892    79A      0.459950    80A      0.473644  
      81A      0.495413    82A      0.501986    83A      0.521273  
      84A      0.529797    85A      0.542659    86A      0.560166  
      87A      0.561157    88A      0.577417    89A      0.583756  
      90A      0.593084    91A      0.618330    92A      0.697652  
      93A      0.704352    94A      0.704503    95A      0.723538  
      96A      0.746621    97A      0.764867    98A      0.777162  
      99A      0.808918   100A      0.816141   101A      0.820417  
     102A      0.826460   103A      0.830140   104A      0.838302  
     105A      0.841915   106A      0.848574   107A      0.866456  
     108A      0.909523   109A      0.957231   110A      1.025563  
     111A      1.026790   112A      1.033667   113A      1.040302  
     114A      1.048568   115A      1.066311   116A      1.069782  
     117A      1.095742   118A      1.124385   119A      1.150183  
     120A      1.159506   121A      1.160748   122A      1.173352  
     123A      1.191775   124A      1.196031   125A      1.209395  
     126A      1.213239   127A      1.236944   128A      1.245124  
     129A      1.288199   130A      1.299255   131A      1.328765  
     132A      1.361887   133A      1.449324   134A      1.473775  
     135A      1.695417   136A      2.288104   137A      2.414753  
     138A      2.417535   139A      2.440118   140A      2.443824  
     141A      2.493768   142A      2.519433   143A      2.520379  
     144A      2.531057   145A      2.533251   146A      2.540826  
     147A      2.551925   148A      2.555192   149A      2.561336  
     150A      2.566584   151A      2.567657   152A      2.570183  
     153A      2.574839   154A      2.584727   155A      2.595189  
     156A      2.595440   157A      2.621534   158A      2.640967  
     159A      2.641646   160A      2.653150   161A      2.657425  
     162A      2.704402   163A      2.706544   164A      2.724191  
     165A      2.772394   166A      2.832166   167A      4.080706  
     168A      4.986598  

    Final Occupation by Irrep:
              A 
    DOCC [    41 ]
    NA   [    41 ]
    NB   [    41 ]

  @DF-RHF Final Energy: -5306.96082657505940

   => Energetics <=

    Nuclear Repulsion Energy =            278.0792457995257791
    One-Electron Energy =               -7969.2112971066817408
    Two-Electron Energy =                2384.1712247320961069
    Total Energy =                      -5306.9608265750594001

Computation Completed


Properties will be evaluated at   0.000000,   0.000000,   0.000000 [a0]

Properties computed using the SCF density matrix


 Multipole Moments:

 ------------------------------------------------------------------------------------
     Multipole            Electronic (a.u.)      Nuclear  (a.u.)        Total (a.u.)
 ------------------------------------------------------------------------------------

 L = 1.  Multiply by 2.5417464519 to convert [e a0] to [Debye]
 Dipole X            :       -255.8596142          249.4312441           -6.4283701
 Dipole Y            :       -170.0556019          166.2875181           -3.7680838
 Dipole Z            :         -0.0000000            0.0000000           -0.0000000
 Magnitude           :                                                    7.4513353

 ------------------------------------------------------------------------------------

*** tstop() called on ddmfs1 at Mon Jan 22 12:28:14 2024
Module time:
	user time   =      54.96 seconds =       0.92 minutes
	system time =       8.82 seconds =       0.15 minutes
	total time  =          9 seconds =       0.15 minutes
Total time:
	user time   =      54.96 seconds =       0.92 minutes
	system time =       8.82 seconds =       0.15 minutes
	total time  =          9 seconds =       0.15 minutes

*** tstart() called on ddmfs1
*** at Mon Jan 22 12:28:14 2024


  //>>>>>>>>>>>>>>>>>>>>>>>>>>>>>>>>>>>//
  //               DFMP2               //
  //<<<<<<<<<<<<<<<<<<<<<<<<<<<<<<<<<<<//

   => Loading Basis Set <=

    Name: (AUG-CC-PVTZ AUX)
    Role: RIFIT
    Keyword: DF_BASIS_MP2
    atoms 1   entry NA         line   610 file /ddmfs1b/softs/psi4conda/share/psi4/basis/def2-qzvpp-ri.gbs 
    atoms 2-3 entry BR         line  1248 file /ddmfs1b/softs/psi4conda/share/psi4/basis/aug-cc-pvtz-ri.gbs 

	 --------------------------------------------------------
	                          DF-MP2                         
	      2nd-Order Density-Fitted Moller-Plesset Theory     
	              RMP2 Wavefunction,  20 Threads             
	                                                         
	        Rob Parrish, Justin Turney, Andy Simmonett,      
	           Ed Hohenstein, and C. David Sherrill          
	 --------------------------------------------------------

   => Auxiliary Basis Set <=

  Basis Set: (AUG-CC-PVTZ AUX)
    Blend: AUG-CC-PVTZ-RI + DEF2-QZVPP-RI
    Number of shells: 128
    Number of basis functions: 548
    Number of Cartesian functions: 736
    Spherical Harmonics?: true
    Max angular momentum: 5

	 --------------------------------------------------------
	                 NBF =   168, NAUX =   548
	 --------------------------------------------------------
	   CLASS    FOCC     OCC    AOCC    AVIR     VIR    FVIR
	   PAIRS       0      41      41     127     127       0
	 --------------------------------------------------------

	-----------------------------------------------------------
	 ==================> DF-MP2 Energies <==================== 
	-----------------------------------------------------------
	 Reference Energy          =   -5306.9608265750594001 [Eh]
	 Singles Energy            =      -0.0000000000000000 [Eh]
	 Same-Spin Energy          =      -0.1794183166874385 [Eh]
	 Opposite-Spin Energy      =      -0.4177256192368553 [Eh]
	 Correlation Energy        =      -0.5971439359242938 [Eh]
	 Total Energy              =   -5307.5579705109839779 [Eh]
	-----------------------------------------------------------
	 ================> DF-SCS-MP2 Energies <================== 
	-----------------------------------------------------------
	 SCS Same-Spin Scale       =       0.3333333333333333 [-]
	 SCS Opposite-Spin Scale   =       1.2000000000000000 [-]
	 SCS Same-Spin Energy      =      -0.0598061055624795 [Eh]
	 SCS Opposite-Spin Energy  =      -0.5012707430842264 [Eh]
	 SCS Correlation Energy    =      -0.5610768486467059 [Eh]
	 SCS Total Energy          =   -5307.5219034237061351 [Eh]
	-----------------------------------------------------------


*** tstop() called on ddmfs1 at Mon Jan 22 12:28:36 2024
Module time:
	user time   =      32.80 seconds =       0.55 minutes
	system time =       1.57 seconds =       0.03 minutes
	total time  =         22 seconds =       0.37 minutes
Total time:
	user time   =      87.77 seconds =       1.46 minutes
	system time =      10.39 seconds =       0.17 minutes
	total time  =         31 seconds =       0.52 minutes

    Psi4 stopped on: Monday, 22 January 2024 12:28PM
    Psi4 wall time for execution: 0:00:31.46

*** Psi4 exiting successfully. Buy a developer a beer!
