
    -----------------------------------------------------------------------
          Psi4: An Open-Source Ab Initio Electronic Structure Package
                               Psi4 1.8.2 release

                         Git: Rev {} zzzzzzz 


    D. G. A. Smith, L. A. Burns, A. C. Simmonett, R. M. Parrish,
    M. C. Schieber, R. Galvelis, P. Kraus, H. Kruse, R. Di Remigio,
    A. Alenaizan, A. M. James, S. Lehtola, J. P. Misiewicz, M. Scheurer,
    R. A. Shaw, J. B. Schriber, Y. Xie, Z. L. Glick, D. A. Sirianni,
    J. S. O'Brien, J. M. Waldrop, A. Kumar, E. G. Hohenstein,
    B. P. Pritchard, B. R. Brooks, H. F. Schaefer III, A. Yu. Sokolov,
    K. Patkowski, A. E. DePrince III, U. Bozkaya, R. A. King,
    F. A. Evangelista, J. M. Turney, T. D. Crawford, C. D. Sherrill,
    J. Chem. Phys. 152(18) 184108 (2020). https://doi.org/10.1063/5.0006002

                            Additional Code Authors
    E. T. Seidl, C. L. Janssen, E. F. Valeev, M. L. Leininger,
    J. F. Gonthier, R. M. Richard, H. R. McAlexander, M. Saitow, X. Wang,
    P. Verma, M. H. Lechner, A. Jiang, S. Behnle, A. G. Heide,
    M. F. Herbst, and D. L. Poole

             Previous Authors, Complete List of Code Contributors,
                       and Citations for Specific Modules
    https://github.com/psi4/psi4/blob/master/codemeta.json
    https://github.com/psi4/psi4/graphs/contributors
    http://psicode.org/psi4manual/master/introduction.html#citing-psifour

    -----------------------------------------------------------------------


    Psi4 started on: Monday, 22 January 2024 12:23PM

    Process ID: 47601
    Host:       ddmfs1
    PSIDATADIR: /ddmfs1b/softs/psi4conda/share/psi4
    Memory:     500.0 MiB
    Threads:    20
    
  ==> Input File <==

--------------------------------------------------------------------------
MEMORY 60 GB

molecule dimer {
-1 1
Na         0.000000     0.000000     0.000000
Br         0.000000     2.514159     0.000000
Br         3.268407     0.000000     0.000000

units ang
no_reorient
no_com
symmetry c1
}

set {
basis        aug-cc-pVTZ
scf_type     df
}

energy("mp2")
--------------------------------------------------------------------------

  Memory set to  55.879 GiB by Python driver.

Scratch directory: /ddmfs1a/scratch/
   => Libint2 <=

    Primary   basis highest AM E, G, H:  5, 4, 3
    Auxiliary basis highest AM E, G, H:  6, 5, 4
    Onebody   basis highest AM E, G, H:  6, 5, 4
    Solid Harmonics ordering:            gaussian

*** tstart() called on ddmfs1
*** at Mon Jan 22 12:23:53 2024

   => Loading Basis Set <=

    Name: AUG-CC-PVTZ
    Role: ORBITAL
    Keyword: BASIS
    atoms 1   entry NA         line   469 file /ddmfs1b/softs/psi4conda/share/psi4/basis/aug-cc-pvtz.gbs 
    atoms 2-3 entry BR         line  4208 file /ddmfs1b/softs/psi4conda/share/psi4/basis/aug-cc-pvtz.gbs 


         ---------------------------------------------------------
                                   SCF
               by Justin Turney, Rob Parrish, Andy Simmonett
                          and Daniel G. A. Smith
                              RHF Reference
                       20 Threads,  57220 MiB Core
         ---------------------------------------------------------

  ==> Geometry <==

    Molecular point group: c1
    Full point group: Cs

    Geometry (in Angstrom), charge = -1, multiplicity = 1:

       Center              X                  Y                   Z               Mass       
    ------------   -----------------  -----------------  -----------------  -----------------
         NA           0.000000000000     0.000000000000     0.000000000000    22.989769282000
         BR           0.000000000000     2.514159000000     0.000000000000    78.918337600000
         BR           3.268407000000     0.000000000000     0.000000000000    78.918337600000

  Running in c1 symmetry.

  Rotational constants: A =      0.03379  B =      0.02000  C =      0.01256 [cm^-1]
  Rotational constants: A =   1013.10344  B =    599.46938  C =    376.61834 [MHz]
  Nuclear repulsion =  300.574159729751045

  Charge       = -1
  Multiplicity = 1
  Electrons    = 82
  Nalpha       = 41
  Nbeta        = 41

  ==> Algorithm <==

  SCF Algorithm Type is DF.
  DIIS enabled.
  MOM disabled.
  Fractional occupation disabled.
  Guess Type is SAD.
  Energy threshold   = 1.00e-08
  Density threshold  = 1.00e-08
  Integral threshold = 1.00e-12

  ==> Primary Basis <==

  Basis Set: AUG-CC-PVTZ
    Blend: AUG-CC-PVTZ
    Number of shells: 54
    Number of basis functions: 168
    Number of Cartesian functions: 197
    Spherical Harmonics?: true
    Max angular momentum: 3

   => Loading Basis Set <=

    Name: (AUG-CC-PVTZ AUX)
    Role: JKFIT
    Keyword: DF_BASIS_SCF
    atoms 1   entry NA         line   498 file /ddmfs1b/softs/psi4conda/share/psi4/basis/def2-universal-jkfit.gbs 
    atoms 2-3 entry BR         line  1492 file /ddmfs1b/softs/psi4conda/share/psi4/basis/aug-cc-pvtz-jkfit.gbs 

  ==> Integral Setup <==

  DFHelper Memory: AOs need 0.140 GiB; user supplied 41.910 GiB. 
  Using in-core AOs.

  ==> MemDFJK: Density-Fitted J/K Matrices <==

    J tasked:                   Yes
    K tasked:                   Yes
    wK tasked:                   No
    OpenMP threads:              20
    Memory [MiB]:             42915
    Algorithm:                 Core
    Schwarz Cutoff:           1E-12
    Mask sparsity (%):       0.3756
    Fitting Condition:        1E-10

   => Auxiliary Basis Set <=

  Basis Set: (AUG-CC-PVTZ AUX)
    Blend: AUG-CC-PVTZ-JKFIT + DEF2-UNIVERSAL-JKFIT
    Number of shells: 150
    Number of basis functions: 608
    Number of Cartesian functions: 795
    Spherical Harmonics?: true
    Max angular momentum: 4

  Minimum eigenvalue in the overlap matrix is 6.0150572185E-05.
  Reciprocal condition number of the overlap matrix is 1.0094542795E-05.
    Using symmetric orthogonalization.

  ==> Pre-Iterations <==

  SCF Guess: Superposition of Atomic Densities via on-the-fly atomic UHF (no occupation information).

   -------------------------
    Irrep   Nso     Nmo    
   -------------------------
     A        168     168 
   -------------------------
    Total     168     168
   -------------------------

  ==> Iterations <==

                           Total Energy        Delta E     RMS |[F,P]|

   @DF-RHF iter SAD: -5302.70726905070296   -5.30271e+03   0.00000e+00 
   @DF-RHF iter   1: -5306.43391643456107   -3.72665e+00   8.84249e-03 ADIIS/DIIS
   @DF-RHF iter   2: -5306.84140268577630   -4.07486e-01   4.81039e-03 ADIIS/DIIS
   @DF-RHF iter   3: -5306.96834500695877   -1.26942e-01   1.04801e-04 ADIIS/DIIS
   @DF-RHF iter   4: -5306.96847883106147   -1.33824e-04   2.38800e-05 DIIS
   @DF-RHF iter   5: -5306.96848985610268   -1.10250e-05   8.04241e-06 DIIS
   @DF-RHF iter   6: -5306.96849158080113   -1.72470e-06   1.91145e-06 DIIS
   @DF-RHF iter   7: -5306.96849179149012   -2.10689e-07   5.64631e-07 DIIS
   @DF-RHF iter   8: -5306.96849180472418   -1.32341e-08   1.23363e-07 DIIS
   @DF-RHF iter   9: -5306.96849180584832   -1.12414e-09   2.91542e-08 DIIS
   @DF-RHF iter  10: -5306.96849180590925   -6.09361e-11   6.67334e-09 DIIS
  Energy and wave function converged.


  ==> Post-Iterations <==

    Orbital Energies [Eh]
    ---------------------

    Doubly Occupied:                                                      

       1A   -489.778904     2A   -489.752429     3A    -64.919446  
       4A    -64.892437     5A    -58.273957     6A    -58.273911  
       7A    -58.273822     8A    -58.247007     9A    -58.246900  
      10A    -58.246849    11A    -40.348089    12A     -9.592151  
      13A     -9.564689    14A     -7.200096    15A     -7.199496  
      16A     -7.199170    17A     -7.172492    18A     -7.171925  
      19A     -7.171679    20A     -2.941806    21A     -2.941662  
      22A     -2.941234    23A     -2.940625    24A     -2.940562  
      25A     -2.914329    26A     -2.914157    27A     -2.913843  
      28A     -2.913106    29A     -2.913077    30A     -2.669739  
      31A     -1.393128    32A     -1.392965    33A     -1.391493  
      34A     -0.753325    35A     -0.718794    36A     -0.220538  
      37A     -0.203707    38A     -0.202287    39A     -0.175277  
      40A     -0.170292    41A     -0.164881  

    Virtual:                                                              

      42A      0.066678    43A      0.083875    44A      0.086307  
      45A      0.099582    46A      0.104162    47A      0.129992  
      48A      0.134921    49A      0.149117    50A      0.159382  
      51A      0.161373    52A      0.175902    53A      0.178247  
      54A      0.179058    55A      0.200302    56A      0.219549  
      57A      0.227762    58A      0.253388    59A      0.261907  
      60A      0.268602    61A      0.269084    62A      0.270002  
      63A      0.276126    64A      0.291589    65A      0.337088  
      66A      0.340439    67A      0.342216    68A      0.359135  
      69A      0.365084    70A      0.385888    71A      0.386339  
      72A      0.391583    73A      0.405198    74A      0.425766  
      75A      0.429932    76A      0.439355    77A      0.442485  
      78A      0.454545    79A      0.477088    80A      0.490938  
      81A      0.508499    82A      0.514754    83A      0.530315  
      84A      0.546349    85A      0.555949    86A      0.563697  
      87A      0.568786    88A      0.587050    89A      0.587847  
      90A      0.604916    91A      0.638198    92A      0.709929  
      93A      0.715210    94A      0.718332    95A      0.734415  
      96A      0.761445    97A      0.784049    98A      0.792831  
      99A      0.820218   100A      0.830454   101A      0.832266  
     102A      0.842010   103A      0.843827   104A      0.850213  
     105A      0.853966   106A      0.872693   107A      0.874404  
     108A      0.933729   109A      0.965883   110A      1.023863  
     111A      1.027371   112A      1.041976   113A      1.044452  
     114A      1.047138   115A      1.081630   116A      1.097646  
     117A      1.139290   118A      1.156370   119A      1.166964  
     120A      1.168692   121A      1.178987   122A      1.186973  
     123A      1.196875   124A      1.197462   125A      1.222186  
     126A      1.244907   127A      1.270035   128A      1.274329  
     129A      1.329255   130A      1.345352   131A      1.413612  
     132A      1.459795   133A      1.461734   134A      1.517052  
     135A      1.717798   136A      2.369840   137A      2.425248  
     138A      2.429840   139A      2.448826   140A      2.450564  
     141A      2.508090   142A      2.522574   143A      2.537550  
     144A      2.538898   145A      2.542381   146A      2.551682  
     147A      2.556300   148A      2.557664   149A      2.563009  
     150A      2.570819   151A      2.575204   152A      2.592302  
     153A      2.594653   154A      2.596472   155A      2.620612  
     156A      2.634425   157A      2.648760   158A      2.659209  
     159A      2.663585   160A      2.678461   161A      2.710497  
     162A      2.718961   163A      2.721117   164A      2.778220  
     165A      2.806603   166A      2.895514   167A      4.208375  
     168A      5.001237  

    Final Occupation by Irrep:
              A 
    DOCC [    41 ]
    NA   [    41 ]
    NB   [    41 ]

  @DF-RHF Final Energy: -5306.96849180590925

   => Energetics <=

    Nuclear Repulsion Energy =            300.5741597297510452
    One-Electron Energy =               -8014.5727473770048164
    Two-Electron Energy =                2407.0300958413445187
    Total Energy =                      -5306.9684918059092524

Computation Completed


Properties will be evaluated at   0.000000,   0.000000,   0.000000 [a0]

Properties computed using the SCF density matrix


 Multipole Moments:

 ------------------------------------------------------------------------------------
     Multipole            Electronic (a.u.)      Nuclear  (a.u.)        Total (a.u.)
 ------------------------------------------------------------------------------------

 L = 1.  Multiply by 2.5417464519 to convert [e a0] to [Debye]
 Dipole X            :       -221.5181855          216.1737934           -5.3443921
 Dipole Y            :       -170.0756422          166.2875181           -3.7881241
 Dipole Z            :         -0.0000000            0.0000000           -0.0000000
 Magnitude           :                                                    6.5507565

 ------------------------------------------------------------------------------------

*** tstop() called on ddmfs1 at Mon Jan 22 12:24:02 2024
Module time:
	user time   =      54.35 seconds =       0.91 minutes
	system time =       9.13 seconds =       0.15 minutes
	total time  =          9 seconds =       0.15 minutes
Total time:
	user time   =      54.35 seconds =       0.91 minutes
	system time =       9.13 seconds =       0.15 minutes
	total time  =          9 seconds =       0.15 minutes

*** tstart() called on ddmfs1
*** at Mon Jan 22 12:24:02 2024


  //>>>>>>>>>>>>>>>>>>>>>>>>>>>>>>>>>>>//
  //               DFMP2               //
  //<<<<<<<<<<<<<<<<<<<<<<<<<<<<<<<<<<<//

   => Loading Basis Set <=

    Name: (AUG-CC-PVTZ AUX)
    Role: RIFIT
    Keyword: DF_BASIS_MP2
    atoms 1   entry NA         line   610 file /ddmfs1b/softs/psi4conda/share/psi4/basis/def2-qzvpp-ri.gbs 
    atoms 2-3 entry BR         line  1248 file /ddmfs1b/softs/psi4conda/share/psi4/basis/aug-cc-pvtz-ri.gbs 

	 --------------------------------------------------------
	                          DF-MP2                         
	      2nd-Order Density-Fitted Moller-Plesset Theory     
	              RMP2 Wavefunction,  20 Threads             
	                                                         
	        Rob Parrish, Justin Turney, Andy Simmonett,      
	           Ed Hohenstein, and C. David Sherrill          
	 --------------------------------------------------------

   => Auxiliary Basis Set <=

  Basis Set: (AUG-CC-PVTZ AUX)
    Blend: AUG-CC-PVTZ-RI + DEF2-QZVPP-RI
    Number of shells: 128
    Number of basis functions: 548
    Number of Cartesian functions: 736
    Spherical Harmonics?: true
    Max angular momentum: 5

	 --------------------------------------------------------
	                 NBF =   168, NAUX =   548
	 --------------------------------------------------------
	   CLASS    FOCC     OCC    AOCC    AVIR     VIR    FVIR
	   PAIRS       0      41      41     127     127       0
	 --------------------------------------------------------

	-----------------------------------------------------------
	 ==================> DF-MP2 Energies <==================== 
	-----------------------------------------------------------
	 Reference Energy          =   -5306.9684918059092524 [Eh]
	 Singles Energy            =      -0.0000000000000000 [Eh]
	 Same-Spin Energy          =      -0.1804894588792307 [Eh]
	 Opposite-Spin Energy      =      -0.4195460589089092 [Eh]
	 Correlation Energy        =      -0.6000355177881399 [Eh]
	 Total Energy              =   -5307.5685273236977082 [Eh]
	-----------------------------------------------------------
	 ================> DF-SCS-MP2 Energies <================== 
	-----------------------------------------------------------
	 SCS Same-Spin Scale       =       0.3333333333333333 [-]
	 SCS Opposite-Spin Scale   =       1.2000000000000000 [-]
	 SCS Same-Spin Energy      =      -0.0601631529597435 [Eh]
	 SCS Opposite-Spin Energy  =      -0.5034552706906911 [Eh]
	 SCS Correlation Energy    =      -0.5636184236504346 [Eh]
	 SCS Total Energy          =   -5307.5321102295592937 [Eh]
	-----------------------------------------------------------


*** tstop() called on ddmfs1 at Mon Jan 22 12:24:25 2024
Module time:
	user time   =      33.03 seconds =       0.55 minutes
	system time =       1.55 seconds =       0.03 minutes
	total time  =         23 seconds =       0.38 minutes
Total time:
	user time   =      87.39 seconds =       1.46 minutes
	system time =      10.68 seconds =       0.18 minutes
	total time  =         32 seconds =       0.53 minutes

    Psi4 stopped on: Monday, 22 January 2024 12:24PM
    Psi4 wall time for execution: 0:00:31.70

*** Psi4 exiting successfully. Buy a developer a beer!
