
    -----------------------------------------------------------------------
          Psi4: An Open-Source Ab Initio Electronic Structure Package
                               Psi4 1.8.2 release

                         Git: Rev {} zzzzzzz 


    D. G. A. Smith, L. A. Burns, A. C. Simmonett, R. M. Parrish,
    M. C. Schieber, R. Galvelis, P. Kraus, H. Kruse, R. Di Remigio,
    A. Alenaizan, A. M. James, S. Lehtola, J. P. Misiewicz, M. Scheurer,
    R. A. Shaw, J. B. Schriber, Y. Xie, Z. L. Glick, D. A. Sirianni,
    J. S. O'Brien, J. M. Waldrop, A. Kumar, E. G. Hohenstein,
    B. P. Pritchard, B. R. Brooks, H. F. Schaefer III, A. Yu. Sokolov,
    K. Patkowski, A. E. DePrince III, U. Bozkaya, R. A. King,
    F. A. Evangelista, J. M. Turney, T. D. Crawford, C. D. Sherrill,
    J. Chem. Phys. 152(18) 184108 (2020). https://doi.org/10.1063/5.0006002

                            Additional Code Authors
    E. T. Seidl, C. L. Janssen, E. F. Valeev, M. L. Leininger,
    J. F. Gonthier, R. M. Richard, H. R. McAlexander, M. Saitow, X. Wang,
    P. Verma, M. H. Lechner, A. Jiang, S. Behnle, A. G. Heide,
    M. F. Herbst, and D. L. Poole

             Previous Authors, Complete List of Code Contributors,
                       and Citations for Specific Modules
    https://github.com/psi4/psi4/blob/master/codemeta.json
    https://github.com/psi4/psi4/graphs/contributors
    http://psicode.org/psi4manual/master/introduction.html#citing-psifour

    -----------------------------------------------------------------------


    Psi4 started on: Monday, 22 January 2024 12:23PM

    Process ID: 47579
    Host:       ddmfs1
    PSIDATADIR: /ddmfs1b/softs/psi4conda/share/psi4
    Memory:     500.0 MiB
    Threads:    20
    
  ==> Input File <==

--------------------------------------------------------------------------
MEMORY 60 GB

molecule dimer {
-1 1
Gh(Na)     0.000000     0.000000     0.000000
Gh(Br)     0.000000     2.514159     0.000000
Br         3.268407     0.000000     0.000000

units ang
no_reorient
no_com
symmetry c1
}

set {
basis        aug-cc-pVTZ
scf_type     df
}

energy("mp2")
--------------------------------------------------------------------------

  Memory set to  55.879 GiB by Python driver.

Scratch directory: /ddmfs1a/scratch/
   => Libint2 <=

    Primary   basis highest AM E, G, H:  5, 4, 3
    Auxiliary basis highest AM E, G, H:  6, 5, 4
    Onebody   basis highest AM E, G, H:  6, 5, 4
    Solid Harmonics ordering:            gaussian

*** tstart() called on ddmfs1
*** at Mon Jan 22 12:23:21 2024

   => Loading Basis Set <=

    Name: AUG-CC-PVTZ
    Role: ORBITAL
    Keyword: BASIS
    atoms 1   entry NA         line   469 file /ddmfs1b/softs/psi4conda/share/psi4/basis/aug-cc-pvtz.gbs 
    atoms 2-3 entry BR         line  4208 file /ddmfs1b/softs/psi4conda/share/psi4/basis/aug-cc-pvtz.gbs 


         ---------------------------------------------------------
                                   SCF
               by Justin Turney, Rob Parrish, Andy Simmonett
                          and Daniel G. A. Smith
                              RHF Reference
                       20 Threads,  57220 MiB Core
         ---------------------------------------------------------

  ==> Geometry <==

    Molecular point group: c1
    Full point group: Cs

    Geometry (in Angstrom), charge = -1, multiplicity = 1:

       Center              X                  Y                   Z               Mass       
    ------------   -----------------  -----------------  -----------------  -----------------
      Gh(NA)          0.000000000000     0.000000000000     0.000000000000    22.989769282000
      Gh(BR)          0.000000000000     2.514159000000     0.000000000000    78.918337600000
         BR           3.268407000000     0.000000000000     0.000000000000    78.918337600000

  Running in c1 symmetry.

  Rotational constants: A =      0.03379  B =      0.02000  C =      0.01256 [cm^-1]
  Rotational constants: A =   1013.10344  B =    599.46938  C =    376.61834 [MHz]
  Nuclear repulsion =    0.000000000000000

  Charge       = -1
  Multiplicity = 1
  Electrons    = 36
  Nalpha       = 18
  Nbeta        = 18

  ==> Algorithm <==

  SCF Algorithm Type is DF.
  DIIS enabled.
  MOM disabled.
  Fractional occupation disabled.
  Guess Type is SAD.
  Energy threshold   = 1.00e-08
  Density threshold  = 1.00e-08
  Integral threshold = 1.00e-12

  ==> Primary Basis <==

  Basis Set: AUG-CC-PVTZ
    Blend: AUG-CC-PVTZ
    Number of shells: 54
    Number of basis functions: 168
    Number of Cartesian functions: 197
    Spherical Harmonics?: true
    Max angular momentum: 3

   => Loading Basis Set <=

    Name: (AUG-CC-PVTZ AUX)
    Role: JKFIT
    Keyword: DF_BASIS_SCF
    atoms 1   entry NA         line   498 file /ddmfs1b/softs/psi4conda/share/psi4/basis/def2-universal-jkfit.gbs 
    atoms 2-3 entry BR         line  1492 file /ddmfs1b/softs/psi4conda/share/psi4/basis/aug-cc-pvtz-jkfit.gbs 

  ==> Integral Setup <==

  DFHelper Memory: AOs need 0.140 GiB; user supplied 41.910 GiB. 
  Using in-core AOs.

  ==> MemDFJK: Density-Fitted J/K Matrices <==

    J tasked:                   Yes
    K tasked:                   Yes
    wK tasked:                   No
    OpenMP threads:              20
    Memory [MiB]:             42915
    Algorithm:                 Core
    Schwarz Cutoff:           1E-12
    Mask sparsity (%):       0.3756
    Fitting Condition:        1E-10

   => Auxiliary Basis Set <=

  Basis Set: (AUG-CC-PVTZ AUX)
    Blend: AUG-CC-PVTZ-JKFIT + DEF2-UNIVERSAL-JKFIT
    Number of shells: 150
    Number of basis functions: 608
    Number of Cartesian functions: 795
    Spherical Harmonics?: true
    Max angular momentum: 4

  Minimum eigenvalue in the overlap matrix is 6.0150572185E-05.
  Reciprocal condition number of the overlap matrix is 1.0094542795E-05.
    Using symmetric orthogonalization.

  ==> Pre-Iterations <==

  SCF Guess: Superposition of Atomic Densities via on-the-fly atomic UHF (no occupation information).

   -------------------------
    Irrep   Nso     Nmo    
   -------------------------
     A        168     168 
   -------------------------
    Total     168     168
   -------------------------

  ==> Iterations <==

                           Total Energy        Delta E     RMS |[F,P]|

   @DF-RHF iter SAD: -2570.41423527235474   -2.57041e+03   0.00000e+00 
   @DF-RHF iter   1: -2572.25512914112551   -1.84089e+00   6.27605e-03 ADIIS/DIIS
   @DF-RHF iter   2: -2572.46405947151698   -2.08930e-01   3.48838e-03 ADIIS/DIIS
   @DF-RHF iter   3: -2572.53363844417481   -6.95790e-02   5.49481e-05 DIIS
   @DF-RHF iter   4: -2572.53367800904107   -3.95649e-05   6.90898e-06 DIIS
   @DF-RHF iter   5: -2572.53367987015463   -1.86111e-06   1.90257e-06 DIIS
   @DF-RHF iter   6: -2572.53367999947795   -1.29323e-07   3.80120e-07 DIIS
   @DF-RHF iter   7: -2572.53368001587160   -1.63936e-08   2.33327e-08 DIIS
   @DF-RHF iter   8: -2572.53368001591298   -4.13820e-11   4.30920e-09 DIIS
  Energy and wave function converged.


  ==> Post-Iterations <==

    Orbital Energies [Eh]
    ---------------------

    Doubly Occupied:                                                      

       1A   -489.720734     2A    -64.860710     3A    -58.215195  
       4A    -58.215195     5A    -58.215194     6A     -9.532929  
       7A     -7.140275     8A     -7.140274     9A     -7.140266  
      10A     -2.881950    11A     -2.881949    12A     -2.881947  
      13A     -2.881945    14A     -2.881944    15A     -0.685998  
      16A     -0.139341    17A     -0.139337    18A     -0.139337  

    Virtual:                                                              

      19A      0.071874    20A      0.084935    21A      0.085658  
      22A      0.099490    23A      0.128718    24A      0.140297  
      25A      0.142011    26A      0.145903    27A      0.163023  
      28A      0.164506    29A      0.174888    30A      0.179882  
      31A      0.194275    32A      0.208979    33A      0.217450  
      34A      0.226393    35A      0.230164    36A      0.254805  
      37A      0.261933    38A      0.266202    39A      0.280294  
      40A      0.280807    41A      0.298461    42A      0.330155  
      43A      0.361986    44A      0.371771    45A      0.377736  
      46A      0.379794    47A      0.401353    48A      0.409353  
      49A      0.414537    50A      0.428716    51A      0.434936  
      52A      0.449101    53A      0.458540    54A      0.460860  
      55A      0.476652    56A      0.486710    57A      0.498812  
      58A      0.500071    59A      0.514912    60A      0.523694  
      61A      0.535381    62A      0.535592    63A      0.545581  
      64A      0.554545    65A      0.574100    66A      0.611611  
      67A      0.612974    68A      0.623297    69A      0.647729  
      70A      0.678516    71A      0.703464    72A      0.787698  
      73A      0.812159    74A      0.820405    75A      0.840555  
      76A      0.857788    77A      0.869607    78A      0.878306  
      79A      0.912787    80A      0.915013    81A      0.919237  
      82A      0.923869    83A      0.926221    84A      0.953867  
      85A      0.954251    86A      0.979014    87A      1.031596  
      88A      1.055541    89A      1.070384    90A      1.081350  
      91A      1.133014    92A      1.139871    93A      1.169858  
      94A      1.183328    95A      1.195616    96A      1.198261  
      97A      1.214488    98A      1.220350    99A      1.232860  
     100A      1.241695   101A      1.249052   102A      1.265223  
     103A      1.291556   104A      1.304668   105A      1.310715  
     106A      1.323229   107A      1.326453   108A      1.370783  
     109A      1.396933   110A      1.408324   111A      1.429645  
     112A      1.529046   113A      1.542982   114A      1.571474  
     115A      1.596064   116A      1.624770   117A      1.995484  
     118A      2.455242   119A      2.469433   120A      2.554118  
     121A      2.579367   122A      2.583241   123A      2.590996  
     124A      2.596335   125A      2.619058   126A      2.630001  
     127A      2.630252   128A      2.650389   129A      2.682253  
     130A      2.704249   131A      2.730144   132A      2.811588  
     133A      3.071838   134A      3.101640   135A      3.189327  
     136A      3.267087   137A      3.280250   138A      3.292451  
     139A      3.327959   140A      3.368595   141A      3.456419  
     142A      3.461742   143A      3.465601   144A      3.493803  
     145A      3.508677   146A      3.552279   147A      3.567767  
     148A      3.914328   149A      4.202312   150A      4.951279  
     151A      6.508776   152A      6.746907   153A      6.952462  
     154A     10.451863   155A     13.677494   156A     13.707886  
     157A     13.837442   158A     26.300817   159A     26.311116  
     160A     26.386983   161A     26.398975   162A     26.486221  
     163A     46.130985   164A     64.668298   165A    138.681944  
     166A    138.727876   167A    138.922168   168A    710.328548  

    Final Occupation by Irrep:
              A 
    DOCC [    18 ]
    NA   [    18 ]
    NB   [    18 ]

  @DF-RHF Final Energy: -2572.53368001591298

   => Energetics <=

    Nuclear Repulsion Energy =              0.0000000000000000
    One-Electron Energy =               -3593.6783190110741089
    Two-Electron Energy =                1021.1446389951607898
    Total Energy =                      -2572.5336800159134327

Computation Completed


Properties will be evaluated at   0.000000,   0.000000,   0.000000 [a0]

Properties computed using the SCF density matrix


 Multipole Moments:

 ------------------------------------------------------------------------------------
     Multipole            Electronic (a.u.)      Nuclear  (a.u.)        Total (a.u.)
 ------------------------------------------------------------------------------------

 L = 1.  Multiply by 2.5417464519 to convert [e a0] to [Debye]
 Dipole X            :       -222.3505069          216.1737934           -6.1767135
 Dipole Y            :         -0.0000478            0.0000000           -0.0000478
 Dipole Z            :          0.0000000            0.0000000            0.0000000
 Magnitude           :                                                    6.1767135

 ------------------------------------------------------------------------------------

*** tstop() called on ddmfs1 at Mon Jan 22 12:23:30 2024
Module time:
	user time   =      43.65 seconds =       0.73 minutes
	system time =       6.74 seconds =       0.11 minutes
	total time  =          9 seconds =       0.15 minutes
Total time:
	user time   =      43.65 seconds =       0.73 minutes
	system time =       6.74 seconds =       0.11 minutes
	total time  =          9 seconds =       0.15 minutes

*** tstart() called on ddmfs1
*** at Mon Jan 22 12:23:30 2024


  //>>>>>>>>>>>>>>>>>>>>>>>>>>>>>>>>>>>//
  //               DFMP2               //
  //<<<<<<<<<<<<<<<<<<<<<<<<<<<<<<<<<<<//

   => Loading Basis Set <=

    Name: (AUG-CC-PVTZ AUX)
    Role: RIFIT
    Keyword: DF_BASIS_MP2
    atoms 1   entry NA         line   610 file /ddmfs1b/softs/psi4conda/share/psi4/basis/def2-qzvpp-ri.gbs 
    atoms 2-3 entry BR         line  1248 file /ddmfs1b/softs/psi4conda/share/psi4/basis/aug-cc-pvtz-ri.gbs 

	 --------------------------------------------------------
	                          DF-MP2                         
	      2nd-Order Density-Fitted Moller-Plesset Theory     
	              RMP2 Wavefunction,  20 Threads             
	                                                         
	        Rob Parrish, Justin Turney, Andy Simmonett,      
	           Ed Hohenstein, and C. David Sherrill          
	 --------------------------------------------------------

   => Auxiliary Basis Set <=

  Basis Set: (AUG-CC-PVTZ AUX)
    Blend: AUG-CC-PVTZ-RI + DEF2-QZVPP-RI
    Number of shells: 128
    Number of basis functions: 548
    Number of Cartesian functions: 736
    Spherical Harmonics?: true
    Max angular momentum: 5

	 --------------------------------------------------------
	                 NBF =   168, NAUX =   548
	 --------------------------------------------------------
	   CLASS    FOCC     OCC    AOCC    AVIR     VIR    FVIR
	   PAIRS       0      18      18     150     150       0
	 --------------------------------------------------------

	-----------------------------------------------------------
	 ==================> DF-MP2 Energies <==================== 
	-----------------------------------------------------------
	 Reference Energy          =   -2572.5336800159129780 [Eh]
	 Singles Energy            =      -0.0000000000000000 [Eh]
	 Same-Spin Energy          =      -0.0875529214896334 [Eh]
	 Opposite-Spin Energy      =      -0.2029726080073619 [Eh]
	 Correlation Energy        =      -0.2905255294969952 [Eh]
	 Total Energy              =   -2572.8242055454097681 [Eh]
	-----------------------------------------------------------
	 ================> DF-SCS-MP2 Energies <================== 
	-----------------------------------------------------------
	 SCS Same-Spin Scale       =       0.3333333333333333 [-]
	 SCS Opposite-Spin Scale   =       1.2000000000000000 [-]
	 SCS Same-Spin Energy      =      -0.0291843071632111 [Eh]
	 SCS Opposite-Spin Energy  =      -0.2435671296088343 [Eh]
	 SCS Correlation Energy    =      -0.2727514367720454 [Eh]
	 SCS Total Energy          =   -2572.8064314526850467 [Eh]
	-----------------------------------------------------------


*** tstop() called on ddmfs1 at Mon Jan 22 12:23:52 2024
Module time:
	user time   =      32.22 seconds =       0.54 minutes
	system time =       1.43 seconds =       0.02 minutes
	total time  =         22 seconds =       0.37 minutes
Total time:
	user time   =      75.89 seconds =       1.26 minutes
	system time =       8.17 seconds =       0.14 minutes
	total time  =         31 seconds =       0.52 minutes

    Psi4 stopped on: Monday, 22 January 2024 12:23PM
    Psi4 wall time for execution: 0:00:30.77

*** Psi4 exiting successfully. Buy a developer a beer!
