
    -----------------------------------------------------------------------
          Psi4: An Open-Source Ab Initio Electronic Structure Package
                               Psi4 1.8.2 release

                         Git: Rev {} zzzzzzz 


    D. G. A. Smith, L. A. Burns, A. C. Simmonett, R. M. Parrish,
    M. C. Schieber, R. Galvelis, P. Kraus, H. Kruse, R. Di Remigio,
    A. Alenaizan, A. M. James, S. Lehtola, J. P. Misiewicz, M. Scheurer,
    R. A. Shaw, J. B. Schriber, Y. Xie, Z. L. Glick, D. A. Sirianni,
    J. S. O'Brien, J. M. Waldrop, A. Kumar, E. G. Hohenstein,
    B. P. Pritchard, B. R. Brooks, H. F. Schaefer III, A. Yu. Sokolov,
    K. Patkowski, A. E. DePrince III, U. Bozkaya, R. A. King,
    F. A. Evangelista, J. M. Turney, T. D. Crawford, C. D. Sherrill,
    J. Chem. Phys. 152(18) 184108 (2020). https://doi.org/10.1063/5.0006002

                            Additional Code Authors
    E. T. Seidl, C. L. Janssen, E. F. Valeev, M. L. Leininger,
    J. F. Gonthier, R. M. Richard, H. R. McAlexander, M. Saitow, X. Wang,
    P. Verma, M. H. Lechner, A. Jiang, S. Behnle, A. G. Heide,
    M. F. Herbst, and D. L. Poole

             Previous Authors, Complete List of Code Contributors,
                       and Citations for Specific Modules
    https://github.com/psi4/psi4/blob/master/codemeta.json
    https://github.com/psi4/psi4/graphs/contributors
    http://psicode.org/psi4manual/master/introduction.html#citing-psifour

    -----------------------------------------------------------------------


    Psi4 started on: Monday, 22 January 2024 12:19PM

    Process ID: 47401
    Host:       ddmfs1
    PSIDATADIR: /ddmfs1b/softs/psi4conda/share/psi4
    Memory:     500.0 MiB
    Threads:    20
    
  ==> Input File <==

--------------------------------------------------------------------------
MEMORY 60 GB

molecule dimer {
-1 1
Gh(Na)     0.000000     0.000000     0.000000
Gh(Br)     0.000000     2.514159     0.000000
Br         2.765575     0.000000     0.000000

units ang
no_reorient
no_com
symmetry c1
}

set {
basis        aug-cc-pVTZ
scf_type     df
}

energy("mp2")
--------------------------------------------------------------------------

  Memory set to  55.879 GiB by Python driver.

Scratch directory: /ddmfs1a/scratch/
   => Libint2 <=

    Primary   basis highest AM E, G, H:  5, 4, 3
    Auxiliary basis highest AM E, G, H:  6, 5, 4
    Onebody   basis highest AM E, G, H:  6, 5, 4
    Solid Harmonics ordering:            gaussian

*** tstart() called on ddmfs1
*** at Mon Jan 22 12:19:13 2024

   => Loading Basis Set <=

    Name: AUG-CC-PVTZ
    Role: ORBITAL
    Keyword: BASIS
    atoms 1   entry NA         line   469 file /ddmfs1b/softs/psi4conda/share/psi4/basis/aug-cc-pvtz.gbs 
    atoms 2-3 entry BR         line  4208 file /ddmfs1b/softs/psi4conda/share/psi4/basis/aug-cc-pvtz.gbs 


         ---------------------------------------------------------
                                   SCF
               by Justin Turney, Rob Parrish, Andy Simmonett
                          and Daniel G. A. Smith
                              RHF Reference
                       20 Threads,  57220 MiB Core
         ---------------------------------------------------------

  ==> Geometry <==

    Molecular point group: c1
    Full point group: Cs

    Geometry (in Angstrom), charge = -1, multiplicity = 1:

       Center              X                  Y                   Z               Mass       
    ------------   -----------------  -----------------  -----------------  -----------------
      Gh(NA)          0.000000000000     0.000000000000     0.000000000000    22.989769282000
      Gh(BR)          0.000000000000     2.514159000000     0.000000000000    78.918337600000
         BR           2.765575000000     0.000000000000     0.000000000000    78.918337600000

  Running in c1 symmetry.

  Rotational constants: A =      0.03379  B =      0.02793  C =      0.01529 [cm^-1]
  Rotational constants: A =   1013.10344  B =    837.27551  C =    458.41783 [MHz]
  Nuclear repulsion =    0.000000000000000

  Charge       = -1
  Multiplicity = 1
  Electrons    = 36
  Nalpha       = 18
  Nbeta        = 18

  ==> Algorithm <==

  SCF Algorithm Type is DF.
  DIIS enabled.
  MOM disabled.
  Fractional occupation disabled.
  Guess Type is SAD.
  Energy threshold   = 1.00e-08
  Density threshold  = 1.00e-08
  Integral threshold = 1.00e-12

  ==> Primary Basis <==

  Basis Set: AUG-CC-PVTZ
    Blend: AUG-CC-PVTZ
    Number of shells: 54
    Number of basis functions: 168
    Number of Cartesian functions: 197
    Spherical Harmonics?: true
    Max angular momentum: 3

   => Loading Basis Set <=

    Name: (AUG-CC-PVTZ AUX)
    Role: JKFIT
    Keyword: DF_BASIS_SCF
    atoms 1   entry NA         line   498 file /ddmfs1b/softs/psi4conda/share/psi4/basis/def2-universal-jkfit.gbs 
    atoms 2-3 entry BR         line  1492 file /ddmfs1b/softs/psi4conda/share/psi4/basis/aug-cc-pvtz-jkfit.gbs 

  ==> Integral Setup <==

  DFHelper Memory: AOs need 0.140 GiB; user supplied 41.910 GiB. 
  Using in-core AOs.

  ==> MemDFJK: Density-Fitted J/K Matrices <==

    J tasked:                   Yes
    K tasked:                   Yes
    wK tasked:                   No
    OpenMP threads:              20
    Memory [MiB]:             42915
    Algorithm:                 Core
    Schwarz Cutoff:           1E-12
    Mask sparsity (%):       0.1772
    Fitting Condition:        1E-10

   => Auxiliary Basis Set <=

  Basis Set: (AUG-CC-PVTZ AUX)
    Blend: AUG-CC-PVTZ-JKFIT + DEF2-UNIVERSAL-JKFIT
    Number of shells: 150
    Number of basis functions: 608
    Number of Cartesian functions: 795
    Spherical Harmonics?: true
    Max angular momentum: 4

  Minimum eigenvalue in the overlap matrix is 5.9476114510E-05.
  Reciprocal condition number of the overlap matrix is 9.6592628807E-06.
    Using symmetric orthogonalization.

  ==> Pre-Iterations <==

  SCF Guess: Superposition of Atomic Densities via on-the-fly atomic UHF (no occupation information).

   -------------------------
    Irrep   Nso     Nmo    
   -------------------------
     A        168     168 
   -------------------------
    Total     168     168
   -------------------------

  ==> Iterations <==

                           Total Energy        Delta E     RMS |[F,P]|

   @DF-RHF iter SAD: -2570.41423531765122   -2.57041e+03   0.00000e+00 
   @DF-RHF iter   1: -2572.25463451437508   -1.84040e+00   6.30745e-03 DIIS/ADIIS
   @DF-RHF iter   2: -2572.46372846678560   -2.09094e-01   3.50937e-03 DIIS/ADIIS
   @DF-RHF iter   3: -2572.53364290902437   -6.99144e-02   5.64839e-05 DIIS
   @DF-RHF iter   4: -2572.53368457824217   -4.16692e-05   7.11999e-06 DIIS
   @DF-RHF iter   5: -2572.53368660263641   -2.02439e-06   1.92608e-06 DIIS
   @DF-RHF iter   6: -2572.53368674411831   -1.41482e-07   3.93091e-07 DIIS
   @DF-RHF iter   7: -2572.53368676211085   -1.79925e-08   2.41153e-08 DIIS
   @DF-RHF iter   8: -2572.53368676215405   -4.32010e-11   4.32707e-09 DIIS
  Energy and wave function converged.


  ==> Post-Iterations <==

    Orbital Energies [Eh]
    ---------------------

    Doubly Occupied:                                                      

       1A   -489.720938     2A    -64.860855     3A    -58.215349  
       4A    -58.215349     5A    -58.215346     6A     -9.532973  
       7A     -7.140321     8A     -7.140318     9A     -7.140308  
      10A     -2.882002    11A     -2.882001    12A     -2.881994  
      13A     -2.881992    14A     -2.881986    15A     -0.685997  
      16A     -0.139339    17A     -0.139338    18A     -0.139337  

    Virtual:                                                              

      19A      0.074123    20A      0.085722    21A      0.086567  
      22A      0.099046    23A      0.132319    24A      0.144291  
      25A      0.146226    26A      0.147663    27A      0.166529  
      28A      0.168324    29A      0.174878    30A      0.178789  
      31A      0.195673    32A      0.211991    33A      0.221304  
      34A      0.228090    35A      0.230500    36A      0.261081  
      37A      0.270228    38A      0.274931    39A      0.283095  
      40A      0.284149    41A      0.299017    42A      0.344124  
      43A      0.371057    44A      0.379868    45A      0.386829  
      46A      0.389470    47A      0.412403    48A      0.415681  
      49A      0.421263    50A      0.439653    51A      0.443775  
      52A      0.455663    53A      0.470139    54A      0.477016  
      55A      0.482072    56A      0.490783    57A      0.506921  
      58A      0.511839    59A      0.528107    60A      0.529031  
      61A      0.544950    62A      0.548086    63A      0.559296  
      64A      0.573665    65A      0.594013    66A      0.610443  
      67A      0.622134    68A      0.633283    69A      0.668707  
      70A      0.689985    71A      0.729465    72A      0.805445  
      73A      0.845879    74A      0.854109    75A      0.868618  
      76A      0.879831    77A      0.884789    78A      0.893484  
      79A      0.916968    80A      0.924999    81A      0.929216  
      82A      0.935342    83A      0.936428    84A      0.960524  
      85A      0.969638    86A      1.017372    87A      1.047915  
      88A      1.079188    89A      1.083130    90A      1.114848  
      91A      1.167557    92A      1.174151    93A      1.202752  
      94A      1.204435    95A      1.209239    96A      1.213878  
      97A      1.226021    98A      1.245933    99A      1.257558  
     100A      1.280490   101A      1.294278   102A      1.303920  
     103A      1.320131   104A      1.330560   105A      1.341520  
     106A      1.368144   107A      1.389536   108A      1.437240  
     109A      1.447395   110A      1.455216   111A      1.497056  
     112A      1.559010   113A      1.588582   114A      1.626226  
     115A      1.658878   116A      1.821566   117A      2.041573  
     118A      2.486514   119A      2.508470   120A      2.579717  
     121A      2.592554   122A      2.600133   123A      2.602332  
     124A      2.609085   125A      2.645682   126A      2.679119  
     127A      2.696787   128A      2.712984   129A      2.753019  
     130A      2.778411   131A      2.795267   132A      2.828899  
     133A      3.084877   134A      3.118043   135A      3.209464  
     136A      3.287693   137A      3.291329   138A      3.314136  
     139A      3.346915   140A      3.409453   141A      3.469147  
     142A      3.477418   143A      3.479318   144A      3.516534  
     145A      3.528584   146A      3.567245   147A      3.593595  
     148A      3.940606   149A      4.565930   150A      5.201534  
     151A      6.555317   152A      6.809879   153A      6.994494  
     154A     10.485657   155A     13.691212   156A     13.732046  
     157A     13.866504   158A     26.314941   159A     26.323960  
     160A     26.401095   161A     26.418209   162A     26.502484  
     163A     46.158801   164A     64.701009   165A    138.696099  
     166A    138.758845   167A    138.959552   168A    710.378640  

    Final Occupation by Irrep:
              A 
    DOCC [    18 ]
    NA   [    18 ]
    NB   [    18 ]

  @DF-RHF Final Energy: -2572.53368676215405

   => Energetics <=

    Nuclear Repulsion Energy =              0.0000000000000000
    One-Electron Energy =               -3593.6758879883268492
    Two-Electron Energy =                1021.1422012261728014
    Total Energy =                      -2572.5336867621540478

Computation Completed


Properties will be evaluated at   0.000000,   0.000000,   0.000000 [a0]

Properties computed using the SCF density matrix


 Multipole Moments:

 ------------------------------------------------------------------------------------
     Multipole            Electronic (a.u.)      Nuclear  (a.u.)        Total (a.u.)
 ------------------------------------------------------------------------------------

 L = 1.  Multiply by 2.5417464519 to convert [e a0] to [Debye]
 Dipole X            :       -188.1429156          182.9162765           -5.2266391
 Dipole Y            :         -0.0000836            0.0000000           -0.0000836
 Dipole Z            :          0.0000000            0.0000000            0.0000000
 Magnitude           :                                                    5.2266391

 ------------------------------------------------------------------------------------

*** tstop() called on ddmfs1 at Mon Jan 22 12:19:20 2024
Module time:
	user time   =      42.73 seconds =       0.71 minutes
	system time =       6.88 seconds =       0.11 minutes
	total time  =          7 seconds =       0.12 minutes
Total time:
	user time   =      42.73 seconds =       0.71 minutes
	system time =       6.88 seconds =       0.11 minutes
	total time  =          7 seconds =       0.12 minutes

*** tstart() called on ddmfs1
*** at Mon Jan 22 12:19:20 2024


  //>>>>>>>>>>>>>>>>>>>>>>>>>>>>>>>>>>>//
  //               DFMP2               //
  //<<<<<<<<<<<<<<<<<<<<<<<<<<<<<<<<<<<//

   => Loading Basis Set <=

    Name: (AUG-CC-PVTZ AUX)
    Role: RIFIT
    Keyword: DF_BASIS_MP2
    atoms 1   entry NA         line   610 file /ddmfs1b/softs/psi4conda/share/psi4/basis/def2-qzvpp-ri.gbs 
    atoms 2-3 entry BR         line  1248 file /ddmfs1b/softs/psi4conda/share/psi4/basis/aug-cc-pvtz-ri.gbs 

	 --------------------------------------------------------
	                          DF-MP2                         
	      2nd-Order Density-Fitted Moller-Plesset Theory     
	              RMP2 Wavefunction,  20 Threads             
	                                                         
	        Rob Parrish, Justin Turney, Andy Simmonett,      
	           Ed Hohenstein, and C. David Sherrill          
	 --------------------------------------------------------

   => Auxiliary Basis Set <=

  Basis Set: (AUG-CC-PVTZ AUX)
    Blend: AUG-CC-PVTZ-RI + DEF2-QZVPP-RI
    Number of shells: 128
    Number of basis functions: 548
    Number of Cartesian functions: 736
    Spherical Harmonics?: true
    Max angular momentum: 5

	 --------------------------------------------------------
	                 NBF =   168, NAUX =   548
	 --------------------------------------------------------
	   CLASS    FOCC     OCC    AOCC    AVIR     VIR    FVIR
	   PAIRS       0      18      18     150     150       0
	 --------------------------------------------------------

	-----------------------------------------------------------
	 ==================> DF-MP2 Energies <==================== 
	-----------------------------------------------------------
	 Reference Energy          =   -2572.5336867621540478 [Eh]
	 Singles Energy            =      -0.0000000000000000 [Eh]
	 Same-Spin Energy          =      -0.0880662284432626 [Eh]
	 Opposite-Spin Energy      =      -0.2041862995627914 [Eh]
	 Correlation Energy        =      -0.2922525280060540 [Eh]
	 Total Energy              =   -2572.8259392901600222 [Eh]
	-----------------------------------------------------------
	 ================> DF-SCS-MP2 Energies <================== 
	-----------------------------------------------------------
	 SCS Same-Spin Scale       =       0.3333333333333333 [-]
	 SCS Opposite-Spin Scale   =       1.2000000000000000 [-]
	 SCS Same-Spin Energy      =      -0.0293554094810875 [Eh]
	 SCS Opposite-Spin Energy  =      -0.2450235594753497 [Eh]
	 SCS Correlation Energy    =      -0.2743789689564372 [Eh]
	 SCS Total Energy          =   -2572.8080657311106734 [Eh]
	-----------------------------------------------------------


*** tstop() called on ddmfs1 at Mon Jan 22 12:19:43 2024
Module time:
	user time   =      31.69 seconds =       0.53 minutes
	system time =       1.56 seconds =       0.03 minutes
	total time  =         23 seconds =       0.38 minutes
Total time:
	user time   =      74.43 seconds =       1.24 minutes
	system time =       8.44 seconds =       0.14 minutes
	total time  =         30 seconds =       0.50 minutes

    Psi4 stopped on: Monday, 22 January 2024 12:19PM
    Psi4 wall time for execution: 0:00:30.33

*** Psi4 exiting successfully. Buy a developer a beer!
