
    -----------------------------------------------------------------------
          Psi4: An Open-Source Ab Initio Electronic Structure Package
                               Psi4 1.9 release

                         Git: Rev {} zzzzzzz 


    D. G. A. Smith, L. A. Burns, A. C. Simmonett, R. M. Parrish,
    M. C. Schieber, R. Galvelis, P. Kraus, H. Kruse, R. Di Remigio,
    A. Alenaizan, A. M. James, S. Lehtola, J. P. Misiewicz, M. Scheurer,
    R. A. Shaw, J. B. Schriber, Y. Xie, Z. L. Glick, D. A. Sirianni,
    J. S. O'Brien, J. M. Waldrop, A. Kumar, E. G. Hohenstein,
    B. P. Pritchard, B. R. Brooks, H. F. Schaefer III, A. Yu. Sokolov,
    K. Patkowski, A. E. DePrince III, U. Bozkaya, R. A. King,
    F. A. Evangelista, J. M. Turney, T. D. Crawford, C. D. Sherrill,
    J. Chem. Phys. 152(18) 184108 (2020). https://doi.org/10.1063/5.0006002

                            Additional Code Authors
    E. T. Seidl, C. L. Janssen, E. F. Valeev, M. L. Leininger,
    J. F. Gonthier, R. M. Richard, H. R. McAlexander, M. Saitow, X. Wang,
    P. Verma, M. H. Lechner, A. Jiang, S. Behnle, A. G. Heide,
    M. F. Herbst, and D. L. Poole

             Previous Authors, Complete List of Code Contributors,
                       and Citations for Specific Modules
    https://github.com/psi4/psi4/blob/master/codemeta.json
    https://github.com/psi4/psi4/graphs/contributors
    http://psicode.org/psi4manual/master/introduction.html#citing-psifour

    -----------------------------------------------------------------------


    Psi4 started on: Wednesday, 24 January 2024 05:26AM

    Process ID: 1194142
    Host:       moses-razer
    PSIDATADIR: /home/kchung25/anaconda3/envs/psi4_19/share/psi4
    Memory:     500.0 MiB
    Threads:    6
    
  ==> Input File <==

--------------------------------------------------------------------------
MEMORY 60 GB

molecule dimer {
1 1
K      0.000000     0.000000     0.000000
--
-1 1
F      0.000000     2.175180     0.000000
--
-1 1
F      3.262770     0.000000     0.000000

units ang
no_reorient
no_com
symmetry c1
}

set {
basis        aug-cc-pVTZ
scf_type     df
}

energy("mp2", bsse_type="cp")
--------------------------------------------------------------------------

  Memory set to  55.879 GiB by Python driver.

Scratch directory: /scratch/

  //>>>>>>>>>>>>>>>>>>>>>>>>>>>>>>>>>>>>>>>>//
  // ManyBody Setup: N-Body Levels [1, 2, 3]//
  //<<<<<<<<<<<<<<<<<<<<<<<<<<<<<<<<<<<<<<<<//

        Number of 1-body computations:     3
        Number of 2-body computations:     3
        Number of 3-body computations:     1

    -----------------------------------------------------------------------
          Psi4: An Open-Source Ab Initio Electronic Structure Package
                               Psi4 1.9 release

                         Git: Rev {} zzzzzzz 


    D. G. A. Smith, L. A. Burns, A. C. Simmonett, R. M. Parrish,
    M. C. Schieber, R. Galvelis, P. Kraus, H. Kruse, R. Di Remigio,
    A. Alenaizan, A. M. James, S. Lehtola, J. P. Misiewicz, M. Scheurer,
    R. A. Shaw, J. B. Schriber, Y. Xie, Z. L. Glick, D. A. Sirianni,
    J. S. O'Brien, J. M. Waldrop, A. Kumar, E. G. Hohenstein,
    B. P. Pritchard, B. R. Brooks, H. F. Schaefer III, A. Yu. Sokolov,
    K. Patkowski, A. E. DePrince III, U. Bozkaya, R. A. King,
    F. A. Evangelista, J. M. Turney, T. D. Crawford, C. D. Sherrill,
    J. Chem. Phys. 152(18) 184108 (2020). https://doi.org/10.1063/5.0006002

                            Additional Code Authors
    E. T. Seidl, C. L. Janssen, E. F. Valeev, M. L. Leininger,
    J. F. Gonthier, R. M. Richard, H. R. McAlexander, M. Saitow, X. Wang,
    P. Verma, M. H. Lechner, A. Jiang, S. Behnle, A. G. Heide,
    M. F. Herbst, and D. L. Poole

             Previous Authors, Complete List of Code Contributors,
                       and Citations for Specific Modules
    https://github.com/psi4/psi4/blob/master/codemeta.json
    https://github.com/psi4/psi4/graphs/contributors
    http://psicode.org/psi4manual/master/introduction.html#citing-psifour

    -----------------------------------------------------------------------


    Psi4 started on: Wednesday, 24 January 2024 05:26AM

    Process ID: 1194142
    Host:       moses-razer
    PSIDATADIR: /home/kchung25/anaconda3/envs/psi4_19/share/psi4
    Memory:     55.9 GiB
    Threads:    6
    
  ==> Input QCSchema <==

--------------------------------------------------------------------------
{'driver': 'energy',
 'extras': {'psiapi': True, 'wfn_qcvars_only': True},
 'id': None,
 'keywords': {'SCF_TYPE': 'DF', 'function_kwargs': {}},
 'model': {'basis': 'aug-cc-pvtz', 'method': 'mp2'},
 'molecule': {'atom_labels': ['', '', ''],
              'atomic_numbers': [19, 9, 9],
              'extras': {},
              'fix_com': True,
              'fix_orientation': True,
              'fix_symmetry': 'c1',
              'fragment_charges': [1.0, 0.0, 0.0],
              'fragment_multiplicities': [1, 1, 1],
              'fragments': [[0], [1], [2]],
              'geometry': [0.0, 0.0, 0.0, 0.0, 4.110494473573358, 0.0, 6.165741710360038, 0.0, 0.0],
              'mass_numbers': [39, 19, 19],
              'masses': [38.9637064864, 18.99840316273, 18.99840316273],
              'molecular_charge': 1.0,
              'molecular_multiplicity': 1,
              'name': 'dimer',
              'provenance': {'creator': 'QCElemental',
                             'routine': 'qcelemental.molparse.from_string',
                             'version': '0.27.1'},
              'real': [True, False, False],
              'schema_name': 'qcschema_molecule',
              'schema_version': 2,
              'symbols': ['K', 'F', 'F'],
              'validated': True},
 'protocols': {'stdout': True},
 'provenance': {'creator': 'QCElemental', 'routine': 'qcelemental.models.results', 'version': '0.27.1'},
 'schema_name': 'qcschema_input',
 'schema_version': 1}
--------------------------------------------------------------------------

Scratch directory: /scratch/
   => Libint2 <=

    Primary   basis highest AM E, G, H:  5, 4, 3
    Auxiliary basis highest AM E, G, H:  6, 5, 4
    Onebody   basis highest AM E, G, H:  6, 5, 4
    Solid Harmonics ordering:            gaussian

*** tstart() called on moses-razer
*** at Wed Jan 24 05:26:27 2024

   => Loading Basis Set <=

    Name: AUG-CC-PVTZ
    Role: ORBITAL
    Keyword: BASIS
    atoms 1   entry K          line  1152 file /home/kchung25/anaconda3/envs/p415env/share/psi4/basis/aug-cc-pvtz.gbs 
    atoms 2-3 entry F          line   377 file /home/kchung25/anaconda3/envs/p415env/share/psi4/basis/aug-cc-pvtz.gbs 


         ---------------------------------------------------------
                                   SCF
               by Justin Turney, Rob Parrish, Andy Simmonett
                          and Daniel G. A. Smith
                              RHF Reference
                        6 Threads,  57220 MiB Core
         ---------------------------------------------------------

  ==> Geometry <==

    Molecular point group: c1
    Full point group: Cs

    Geometry (in Bohr), charge = 1, multiplicity = 1:

       Center              X                  Y                   Z               Mass       
    ------------   -----------------  -----------------  -----------------  -----------------
         K            0.000000000000     0.000000000000     0.000000000000    38.963706486400
      Gh(F)           0.000000000000     4.110494473573     0.000000000000    18.998403162730
      Gh(F)           6.165741710360     0.000000000000     0.000000000000    18.998403162730

  Running in c1 symmetry.

  Rotational constants: A =      0.18754  B =      0.08335  C =      0.05770 [cm^-1]
  Rotational constants: A =   5622.24409  B =   2498.77515  C =   1729.92126 [MHz]
  Nuclear repulsion =    0.000000000000000

  Charge       = 1
  Multiplicity = 1
  Electrons    = 18
  Nalpha       = 9
  Nbeta        = 9

  ==> Algorithm <==

  SCF Algorithm Type is DF.
  DIIS enabled.
  MOM disabled.
  Fractional occupation disabled.
  Guess Type is SAD.
  Energy threshold   = 1.00e-08
  Density threshold  = 1.00e-08
  Integral threshold = 1.00e-12

  ==> Primary Basis <==

  Basis Set: AUG-CC-PVTZ
    Blend: AUG-CC-PVTZ
    Number of shells: 47
    Number of basis functions: 151
    Number of Cartesian functions: 179
    Spherical Harmonics?: true
    Max angular momentum: 3

   => Loading Basis Set <=

    Name: (AUG-CC-PVTZ AUX)
    Role: JKFIT
    Keyword: DF_BASIS_SCF
    atoms 1   entry K          line  1152 file /home/kchung25/anaconda3/envs/p415env/share/psi4/basis/def2-universal-jkfit.gbs 
    atoms 2-3 entry F          line   348 file /home/kchung25/anaconda3/envs/p415env/share/psi4/basis/aug-cc-pvtz-jkfit.gbs 

  ==> Integral Setup <==

  DFHelper Memory: AOs need 0.066 GiB; user supplied 41.910 GiB. 
  Using in-core AOs.

  ==> MemDFJK: Density-Fitted J/K Matrices <==

    J tasked:                   Yes
    K tasked:                   Yes
    wK tasked:                   No
    OpenMP threads:               6
    Memory [MiB]:             42915
    Algorithm:                 Core
    Schwarz Cutoff:           1E-12
    Mask sparsity (%):       4.5700
    Fitting Condition:        1E-10

   => Auxiliary Basis Set <=

  Basis Set: (AUG-CC-PVTZ AUX)
    Blend: AUG-CC-PVTZ-JKFIT + DEF2-UNIVERSAL-JKFIT
    Number of shells: 104
    Number of basis functions: 368
    Number of Cartesian functions: 465
    Spherical Harmonics?: true
    Max angular momentum: 4

  Minimum eigenvalue in the overlap matrix is 4.5380950802E-04.
  Reciprocal condition number of the overlap matrix is 9.1626630067E-05.
    Using symmetric orthogonalization.

  ==> Pre-Iterations <==

  SCF Guess: Superposition of Atomic Densities via on-the-fly atomic UHF (no occupation information).

   -------------------------
    Irrep   Nso     Nmo    
   -------------------------
     A        151     151 
   -------------------------
    Total     151     151
   -------------------------

  ==> Iterations <==

                           Total Energy        Delta E     RMS |[F,P]|

   @DF-RHF iter SAD:  -599.05184904476209   -5.99052e+02   0.00000e+00 
   @DF-RHF iter   1:  -599.01748397753499    3.43651e-02   4.34987e-05 DIIS
   @DF-RHF iter   2:  -599.01750803083405   -2.40533e-05   6.29095e-06 DIIS
   @DF-RHF iter   3:  -599.01750868596775   -6.55134e-07   4.04218e-07 DIIS
   @DF-RHF iter   4:  -599.01750868847785   -2.51009e-09   3.73753e-08 DIIS
   @DF-RHF iter   5:  -599.01750868850388   -2.60343e-11   7.58134e-09 DIIS
  Energy and wave function converged.


  ==> Post-Iterations <==

    Orbital Energies [Eh]
    ---------------------

    Doubly Occupied:                                                      

       1A   -133.753678     2A    -14.709136     3A    -11.739208  
       4A    -11.739202     5A    -11.739200     6A     -1.964318  
       7A     -1.170955     8A     -1.170922     9A     -1.170895  

    Virtual:                                                              

      10A     -0.146972    11A     -0.095560    12A     -0.095555  
      13A     -0.095551    14A     -0.060579    15A     -0.057834  
      16A     -0.057755    17A     -0.057751    18A     -0.057735  
      19A     -0.057730    20A     -0.045539    21A     -0.045536  
      22A     -0.045535    23A     -0.031262    24A     -0.031221  
      25A     -0.031220    26A     -0.031213    27A     -0.031212  
      28A     -0.016505    29A     -0.016381    30A     -0.016211  
      31A     -0.014041    32A      0.013653    33A      0.014947  
      34A      0.015180    35A      0.016074    36A      0.016366  
      37A      0.016486    38A      0.016653    39A      0.016907  
      40A      0.018522    41A      0.019004    42A      0.019221  
      43A      0.019647    44A      0.086634    45A      0.093835  
      46A      0.102352    47A      0.110230    48A      0.123575  
      49A      0.135364    50A      0.136793    51A      0.167526  
      52A      0.168541    53A      0.186922    54A      0.204748  
      55A      0.219418    56A      0.227707    57A      0.229722  
      58A      0.231945    59A      0.238499    60A      0.240916  
      61A      0.243065    62A      0.247964    63A      0.255997  
      64A      0.268730    65A      0.273713    66A      0.325985  
      67A      0.659343    68A      0.678833    69A      0.692243  
      70A      0.706096    71A      0.714654    72A      0.721861  
      73A      0.731496    74A      0.769560    75A      0.802975  
      76A      0.831791    77A      0.851212    78A      0.861859  
      79A      0.920815    80A      0.926474    81A      0.943231  
      82A      0.955801    83A      0.963612    84A      0.998516  
      85A      1.092440    86A      2.828361    87A      2.844005  
      88A      2.844592    89A      2.850483    90A      2.852541  
      91A      2.856955    92A      2.857248    93A      2.873955  
      94A      2.880312    95A      2.901939    96A      2.903832  
      97A      2.918084    98A      2.924975    99A      2.925093  
     100A      2.925389   101A      2.925938   102A      2.926047  
     103A      2.929000   104A      2.945460   105A      2.966069  
     106A      3.086656   107A      3.115083   108A      3.365551  
     109A      3.383831   110A      3.403665   111A      3.404231  
     112A      3.448697   113A      3.453339   114A      3.459409  
     115A      3.466682   116A      3.496185   117A      3.539740  
     118A      9.376065   119A      9.441045   120A      9.919168  
     121A      9.919588   122A      9.920051   123A      9.921375  
     124A      9.925126   125A      9.926056   126A      9.959046  
     127A      9.994285   128A      9.994470   129A      9.994913  
     130A      9.994948   131A      9.995718   132A      9.995830  
     133A      9.997499   134A     12.733604   135A     12.740547  
     136A     12.771930   137A     12.781284   138A     12.790063  
     139A     12.793939   140A     12.795018   141A     12.822163  
     142A     12.839108   143A     12.858630   144A     14.056873  
     145A     14.058625   146A     14.092179   147A     14.092429  
     148A     14.117169   149A     14.137490   150A     67.380825  
     151A     67.700724  

    Final Occupation by Irrep:
              A 
    DOCC [     9 ]
    NA   [     9 ]
    NB   [     9 ]

  @DF-RHF Final Energy:  -599.01750868850388

   => Energetics <=

    Nuclear Repulsion Energy =              0.0000000000000000
    One-Electron Energy =                -819.7199954474606329
    Two-Electron Energy =                 220.7024867589566952
    Total Energy =                       -599.0175086885039946

Computation Completed


Properties will be evaluated at   0.000000,   0.000000,   0.000000 [a0]

Properties computed using the SCF density matrix


 Multipole Moments:

 ------------------------------------------------------------------------------------
     Multipole            Electronic (a.u.)      Nuclear  (a.u.)        Total (a.u.)
 ------------------------------------------------------------------------------------

 L = 1.  Multiply by 2.5417464519 to convert [e a0] to [Debye]
 Dipole X            :          0.0001467            0.0000000            0.0001467
 Dipole Y            :          0.0004120            0.0000000            0.0004120
 Dipole Z            :          0.0000000            0.0000000            0.0000000
 Magnitude           :                                                    0.0004374

 ------------------------------------------------------------------------------------

*** tstop() called on moses-razer at Wed Jan 24 05:26:33 2024
Module time:
	user time   =      12.00 seconds =       0.20 minutes
	system time =       2.78 seconds =       0.05 minutes
	total time  =          6 seconds =       0.10 minutes
Total time:
	user time   =      12.00 seconds =       0.20 minutes
	system time =       2.78 seconds =       0.05 minutes
	total time  =          6 seconds =       0.10 minutes

*** tstart() called on moses-razer
*** at Wed Jan 24 05:26:33 2024


  //>>>>>>>>>>>>>>>>>>>>>>>>>>>>>>>>>>>//
  //               DFMP2               //
  //<<<<<<<<<<<<<<<<<<<<<<<<<<<<<<<<<<<//

   => Loading Basis Set <=

    Name: (AUG-CC-PVTZ AUX)
    Role: RIFIT
    Keyword: DF_BASIS_MP2
    atoms 1   entry K          line  1282 file /home/kchung25/anaconda3/envs/p415env/share/psi4/basis/def2-qzvpp-ri.gbs 
    atoms 2-3 entry F          line   322 file /home/kchung25/anaconda3/envs/p415env/share/psi4/basis/aug-cc-pvtz-ri.gbs 

	 --------------------------------------------------------
	                          DF-MP2                         
	      2nd-Order Density-Fitted Moller-Plesset Theory     
	              RMP2 Wavefunction,   6 Threads             
	                                                         
	        Rob Parrish, Justin Turney, Andy Simmonett,      
	           Ed Hohenstein, and C. David Sherrill          
	 --------------------------------------------------------

   => Auxiliary Basis Set <=

  Basis Set: (AUG-CC-PVTZ AUX)
    Blend: AUG-CC-PVTZ-RI + DEF2-QZVPP-RI
    Number of shells: 105
    Number of basis functions: 411
    Number of Cartesian functions: 534
    Spherical Harmonics?: true
    Max angular momentum: 4

	 --------------------------------------------------------
	                 NBF =   151, NAUX =   411
	 --------------------------------------------------------
	   CLASS    FOCC     OCC    AOCC    AVIR     VIR    FVIR
	   PAIRS       0       9       9     142     142       0
	 --------------------------------------------------------

	-----------------------------------------------------------
	 ==================> DF-MP2 Energies <==================== 
	-----------------------------------------------------------
	 Reference Energy          =    -599.0175086885038809 [Eh]
	 Singles Energy            =      -0.0000000000000000 [Eh]
	 Same-Spin Energy          =      -0.0280187805455766 [Eh]
	 Opposite-Spin Energy      =      -0.0660012148245193 [Eh]
	 Correlation Energy        =      -0.0940199953700959 [Eh]
	 Total Energy              =    -599.1115286838739848 [Eh]
	-----------------------------------------------------------
	 ================> DF-SCS-MP2 Energies <================== 
	-----------------------------------------------------------
	 SCS Same-Spin Scale       =       0.3333333333333333 [-]
	 SCS Opposite-Spin Scale   =       1.2000000000000000 [-]
	 SCS Same-Spin Energy      =      -0.0093395935151922 [Eh]
	 SCS Opposite-Spin Energy  =      -0.0792014577894232 [Eh]
	 SCS Correlation Energy    =      -0.0885410513046154 [Eh]
	 SCS Total Energy          =    -599.1060497398084408 [Eh]
	-----------------------------------------------------------


*** tstop() called on moses-razer at Wed Jan 24 05:26:38 2024
Module time:
	user time   =       6.12 seconds =       0.10 minutes
	system time =       0.85 seconds =       0.01 minutes
	total time  =          5 seconds =       0.08 minutes
Total time:
	user time   =      18.13 seconds =       0.30 minutes
	system time =       3.63 seconds =       0.06 minutes
	total time  =         11 seconds =       0.18 minutes

    Psi4 stopped on: Wednesday, 24 January 2024 05:26AM
    Psi4 wall time for execution: 0:00:10.90


    -----------------------------------------------------------------------
          Psi4: An Open-Source Ab Initio Electronic Structure Package
                               Psi4 1.9 release

                         Git: Rev {} zzzzzzz 


    D. G. A. Smith, L. A. Burns, A. C. Simmonett, R. M. Parrish,
    M. C. Schieber, R. Galvelis, P. Kraus, H. Kruse, R. Di Remigio,
    A. Alenaizan, A. M. James, S. Lehtola, J. P. Misiewicz, M. Scheurer,
    R. A. Shaw, J. B. Schriber, Y. Xie, Z. L. Glick, D. A. Sirianni,
    J. S. O'Brien, J. M. Waldrop, A. Kumar, E. G. Hohenstein,
    B. P. Pritchard, B. R. Brooks, H. F. Schaefer III, A. Yu. Sokolov,
    K. Patkowski, A. E. DePrince III, U. Bozkaya, R. A. King,
    F. A. Evangelista, J. M. Turney, T. D. Crawford, C. D. Sherrill,
    J. Chem. Phys. 152(18) 184108 (2020). https://doi.org/10.1063/5.0006002

                            Additional Code Authors
    E. T. Seidl, C. L. Janssen, E. F. Valeev, M. L. Leininger,
    J. F. Gonthier, R. M. Richard, H. R. McAlexander, M. Saitow, X. Wang,
    P. Verma, M. H. Lechner, A. Jiang, S. Behnle, A. G. Heide,
    M. F. Herbst, and D. L. Poole

             Previous Authors, Complete List of Code Contributors,
                       and Citations for Specific Modules
    https://github.com/psi4/psi4/blob/master/codemeta.json
    https://github.com/psi4/psi4/graphs/contributors
    http://psicode.org/psi4manual/master/introduction.html#citing-psifour

    -----------------------------------------------------------------------


    Psi4 started on: Wednesday, 24 January 2024 05:26AM

    Process ID: 1194142
    Host:       moses-razer
    PSIDATADIR: /home/kchung25/anaconda3/envs/psi4_19/share/psi4
    Memory:     55.9 GiB
    Threads:    6
    
  ==> Input QCSchema <==

--------------------------------------------------------------------------
{'driver': 'energy',
 'extras': {'psiapi': True, 'wfn_qcvars_only': True},
 'id': None,
 'keywords': {'SCF_TYPE': 'DF', 'function_kwargs': {}},
 'model': {'basis': 'aug-cc-pvtz', 'method': 'mp2'},
 'molecule': {'atom_labels': ['', '', ''],
              'atomic_numbers': [19, 9, 9],
              'extras': {},
              'fix_com': True,
              'fix_orientation': True,
              'fix_symmetry': 'c1',
              'fragment_charges': [0.0, -1.0, 0.0],
              'fragment_multiplicities': [1, 1, 1],
              'fragments': [[0], [1], [2]],
              'geometry': [0.0, 0.0, 0.0, 0.0, 4.110494473573358, 0.0, 6.165741710360038, 0.0, 0.0],
              'mass_numbers': [39, 19, 19],
              'masses': [38.9637064864, 18.99840316273, 18.99840316273],
              'molecular_charge': -1.0,
              'molecular_multiplicity': 1,
              'name': 'dimer',
              'provenance': {'creator': 'QCElemental',
                             'routine': 'qcelemental.molparse.from_string',
                             'version': '0.27.1'},
              'real': [False, True, False],
              'schema_name': 'qcschema_molecule',
              'schema_version': 2,
              'symbols': ['K', 'F', 'F'],
              'validated': True},
 'protocols': {'stdout': True},
 'provenance': {'creator': 'QCElemental', 'routine': 'qcelemental.models.results', 'version': '0.27.1'},
 'schema_name': 'qcschema_input',
 'schema_version': 1}
--------------------------------------------------------------------------

Scratch directory: /scratch/
   => Libint2 <=

    Primary   basis highest AM E, G, H:  5, 4, 3
    Auxiliary basis highest AM E, G, H:  6, 5, 4
    Onebody   basis highest AM E, G, H:  6, 5, 4
    Solid Harmonics ordering:            gaussian

*** tstart() called on moses-razer
*** at Wed Jan 24 05:26:38 2024

   => Loading Basis Set <=

    Name: AUG-CC-PVTZ
    Role: ORBITAL
    Keyword: BASIS
    atoms 1   entry K          line  1152 file /home/kchung25/anaconda3/envs/p415env/share/psi4/basis/aug-cc-pvtz.gbs 
    atoms 2-3 entry F          line   377 file /home/kchung25/anaconda3/envs/p415env/share/psi4/basis/aug-cc-pvtz.gbs 


         ---------------------------------------------------------
                                   SCF
               by Justin Turney, Rob Parrish, Andy Simmonett
                          and Daniel G. A. Smith
                              RHF Reference
                        6 Threads,  57220 MiB Core
         ---------------------------------------------------------

  ==> Geometry <==

    Molecular point group: c1
    Full point group: Cs

    Geometry (in Bohr), charge = -1, multiplicity = 1:

       Center              X                  Y                   Z               Mass       
    ------------   -----------------  -----------------  -----------------  -----------------
      Gh(K)           0.000000000000     0.000000000000     0.000000000000    38.963706486400
         F            0.000000000000     4.110494473573     0.000000000000    18.998403162730
      Gh(F)           6.165741710360     0.000000000000     0.000000000000    18.998403162730

  Running in c1 symmetry.

  Rotational constants: A =      0.18754  B =      0.08335  C =      0.05770 [cm^-1]
  Rotational constants: A =   5622.24409  B =   2498.77515  C =   1729.92126 [MHz]
  Nuclear repulsion =    0.000000000000000

  Charge       = -1
  Multiplicity = 1
  Electrons    = 10
  Nalpha       = 5
  Nbeta        = 5

  ==> Algorithm <==

  SCF Algorithm Type is DF.
  DIIS enabled.
  MOM disabled.
  Fractional occupation disabled.
  Guess Type is SAD.
  Energy threshold   = 1.00e-08
  Density threshold  = 1.00e-08
  Integral threshold = 1.00e-12

  ==> Primary Basis <==

  Basis Set: AUG-CC-PVTZ
    Blend: AUG-CC-PVTZ
    Number of shells: 47
    Number of basis functions: 151
    Number of Cartesian functions: 179
    Spherical Harmonics?: true
    Max angular momentum: 3

   => Loading Basis Set <=

    Name: (AUG-CC-PVTZ AUX)
    Role: JKFIT
    Keyword: DF_BASIS_SCF
    atoms 1   entry K          line  1152 file /home/kchung25/anaconda3/envs/p415env/share/psi4/basis/def2-universal-jkfit.gbs 
    atoms 2-3 entry F          line   348 file /home/kchung25/anaconda3/envs/p415env/share/psi4/basis/aug-cc-pvtz-jkfit.gbs 

  ==> Integral Setup <==

  DFHelper Memory: AOs need 0.066 GiB; user supplied 41.910 GiB. 
  Using in-core AOs.

  ==> MemDFJK: Density-Fitted J/K Matrices <==

    J tasked:                   Yes
    K tasked:                   Yes
    wK tasked:                   No
    OpenMP threads:               6
    Memory [MiB]:             42915
    Algorithm:                 Core
    Schwarz Cutoff:           1E-12
    Mask sparsity (%):       4.5700
    Fitting Condition:        1E-10

   => Auxiliary Basis Set <=

  Basis Set: (AUG-CC-PVTZ AUX)
    Blend: AUG-CC-PVTZ-JKFIT + DEF2-UNIVERSAL-JKFIT
    Number of shells: 104
    Number of basis functions: 368
    Number of Cartesian functions: 465
    Spherical Harmonics?: true
    Max angular momentum: 4

  Minimum eigenvalue in the overlap matrix is 4.5380950802E-04.
  Reciprocal condition number of the overlap matrix is 9.1626630067E-05.
    Using symmetric orthogonalization.

  ==> Pre-Iterations <==

  SCF Guess: Superposition of Atomic Densities via on-the-fly atomic UHF (no occupation information).

   -------------------------
    Irrep   Nso     Nmo    
   -------------------------
     A        151     151 
   -------------------------
    Total     151     151
   -------------------------

  ==> Iterations <==

                           Total Energy        Delta E     RMS |[F,P]|

   @DF-RHF iter SAD:   -98.82535133462075   -9.88254e+01   0.00000e+00 
   @DF-RHF iter   1:   -99.33783511542232   -5.12484e-01   3.61709e-03 DIIS/ADIIS
   @DF-RHF iter   2:   -99.37265098049241   -3.48159e-02   3.53360e-03 DIIS/ADIIS
   @DF-RHF iter   3:   -99.45076641742818   -7.81154e-02   1.08905e-04 DIIS/ADIIS
   @DF-RHF iter   4:   -99.45083296142251   -6.65440e-05   4.17103e-05 DIIS
   @DF-RHF iter   5:   -99.45084332813796   -1.03667e-05   2.83428e-06 DIIS
   @DF-RHF iter   6:   -99.45084343637339   -1.08235e-07   2.22867e-07 DIIS
   @DF-RHF iter   7:   -99.45084343715470   -7.81313e-10   2.81366e-08 DIIS
   @DF-RHF iter   8:   -99.45084343717768   -2.29790e-11   2.30912e-09 DIIS
  Energy and wave function converged.


  ==> Post-Iterations <==

    Orbital Energies [Eh]
    ---------------------

    Doubly Occupied:                                                      

       1A    -25.833886     2A     -1.076110     3A     -0.181060  
       4A     -0.181025     5A     -0.181025  

    Virtual:                                                              

       6A      0.060359     7A      0.061484     8A      0.061789  
       9A      0.074747    10A      0.074952    11A      0.077804  
      12A      0.077868    13A      0.078124    14A      0.084441  
      15A      0.115286    16A      0.116800    17A      0.118263  
      18A      0.150740    19A      0.155574    20A      0.156533  
      21A      0.163938    22A      0.164786    23A      0.168874  
      24A      0.211572    25A      0.217098    26A      0.227214  
      27A      0.249392    28A      0.254715    29A      0.254747  
      30A      0.256204    31A      0.259673    32A      0.264754  
      33A      0.265374    34A      0.280153    35A      0.319077  
      36A      0.351207    37A      0.358517    38A      0.382777  
      39A      0.385335    40A      0.389571    41A      0.391341  
      42A      0.418045    43A      0.421657    44A      0.445499  
      45A      0.452786    46A      0.526688    47A      0.557436  
      48A      0.566373    49A      0.581575    50A      0.619796  
      51A      0.621305    52A      0.633902    53A      0.634425  
      54A      0.647273    55A      0.656810    56A      0.682263  
      57A      0.738155    58A      0.807396    59A      0.986196  
      60A      0.996471    61A      0.999238    62A      1.039519  
      63A      1.108925    64A      1.118341    65A      1.202871  
      66A      1.226072    67A      1.255467    68A      1.306831  
      69A      1.318390    70A      1.329649    71A      1.336224  
      72A      1.393251    73A      1.604314    74A      1.611129  
      75A      1.624234    76A      1.923332    77A      2.053623  
      78A      2.133899    79A      2.136235    80A      2.222491  
      81A      2.300590    82A      2.401008    83A      2.408998  
      84A      2.473917    85A      2.814516    86A      3.193831  
      87A      3.195189    88A      3.215870    89A      3.216128  
      90A      3.220157    91A      3.221639    92A      3.223422  
      93A      3.227633    94A      3.230593    95A      3.236087  
      96A      3.318787    97A      3.321931    98A      3.335693  
      99A      3.337082   100A      3.350800   101A      3.356805  
     102A      3.372575   103A      3.378575   104A      3.389818  
     105A      3.399899   106A      3.525923   107A      3.535719  
     108A      3.591067   109A      3.693186   110A      3.698961  
     111A      3.753910   112A      3.779287   113A      3.851471  
     114A      5.771702   115A      5.777857   116A      5.852439  
     117A      9.277529   118A      9.277922   119A      9.284559  
     120A      9.285642   121A      9.296897   122A      9.297868  
     123A      9.324476   124A      9.673299   125A      9.793405  
     126A      9.800540   127A      9.827799   128A      9.854742  
     129A      9.865561   130A     10.288731   131A     10.288900  
     132A     10.292048   133A     10.292611   134A     10.294197  
     135A     10.294660   136A     10.296781   137A     10.330686  
     138A     11.905228   139A     13.083316   140A     13.086202  
     141A     13.118042   142A     13.131738   143A     13.154426  
     144A     14.387695   145A     14.390227   146A     14.426473  
     147A     30.459430   148A     30.584107   149A     30.911866  
     150A     67.691501   151A    197.752045  

    Final Occupation by Irrep:
              A 
    DOCC [     5 ]
    NA   [     5 ]
    NB   [     5 ]

  @DF-RHF Final Energy:   -99.45084343717768

   => Energetics <=

    Nuclear Repulsion Energy =              0.0000000000000000
    One-Electron Energy =                -143.9954758927523244
    Two-Electron Energy =                  44.5446324555746358
    Total Energy =                        -99.4508434371776957

Computation Completed


Properties will be evaluated at   0.000000,   0.000000,   0.000000 [a0]

Properties computed using the SCF density matrix


 Multipole Moments:

 ------------------------------------------------------------------------------------
     Multipole            Electronic (a.u.)      Nuclear  (a.u.)        Total (a.u.)
 ------------------------------------------------------------------------------------

 L = 1.  Multiply by 2.5417464519 to convert [e a0] to [Debye]
 Dipole X            :         -0.0001385            0.0000000           -0.0001385
 Dipole Y            :        -41.1046322           36.9944503           -4.1101819
 Dipole Z            :          0.0000000            0.0000000            0.0000000
 Magnitude           :                                                    4.1101819

 ------------------------------------------------------------------------------------

*** tstop() called on moses-razer at Wed Jan 24 05:26:42 2024
Module time:
	user time   =       8.74 seconds =       0.15 minutes
	system time =       1.35 seconds =       0.02 minutes
	total time  =          4 seconds =       0.07 minutes
Total time:
	user time   =      27.13 seconds =       0.45 minutes
	system time =       4.98 seconds =       0.08 minutes
	total time  =         15 seconds =       0.25 minutes

*** tstart() called on moses-razer
*** at Wed Jan 24 05:26:42 2024


  //>>>>>>>>>>>>>>>>>>>>>>>>>>>>>>>>>>>//
  //               DFMP2               //
  //<<<<<<<<<<<<<<<<<<<<<<<<<<<<<<<<<<<//

   => Loading Basis Set <=

    Name: (AUG-CC-PVTZ AUX)
    Role: RIFIT
    Keyword: DF_BASIS_MP2
    atoms 1   entry K          line  1282 file /home/kchung25/anaconda3/envs/p415env/share/psi4/basis/def2-qzvpp-ri.gbs 
    atoms 2-3 entry F          line   322 file /home/kchung25/anaconda3/envs/p415env/share/psi4/basis/aug-cc-pvtz-ri.gbs 

	 --------------------------------------------------------
	                          DF-MP2                         
	      2nd-Order Density-Fitted Moller-Plesset Theory     
	              RMP2 Wavefunction,   6 Threads             
	                                                         
	        Rob Parrish, Justin Turney, Andy Simmonett,      
	           Ed Hohenstein, and C. David Sherrill          
	 --------------------------------------------------------

   => Auxiliary Basis Set <=

  Basis Set: (AUG-CC-PVTZ AUX)
    Blend: AUG-CC-PVTZ-RI + DEF2-QZVPP-RI
    Number of shells: 105
    Number of basis functions: 411
    Number of Cartesian functions: 534
    Spherical Harmonics?: true
    Max angular momentum: 4

	 --------------------------------------------------------
	                 NBF =   151, NAUX =   411
	 --------------------------------------------------------
	   CLASS    FOCC     OCC    AOCC    AVIR     VIR    FVIR
	   PAIRS       0       5       5     146     146       0
	 --------------------------------------------------------

	-----------------------------------------------------------
	 ==================> DF-MP2 Energies <==================== 
	-----------------------------------------------------------
	 Reference Energy          =     -99.4508434371776815 [Eh]
	 Singles Energy            =      -0.0000000000000000 [Eh]
	 Same-Spin Energy          =      -0.0816491609986627 [Eh]
	 Opposite-Spin Energy      =      -0.2268012179702121 [Eh]
	 Correlation Energy        =      -0.3084503789688748 [Eh]
	 Total Energy              =     -99.7592938161465526 [Eh]
	-----------------------------------------------------------
	 ================> DF-SCS-MP2 Energies <================== 
	-----------------------------------------------------------
	 SCS Same-Spin Scale       =       0.3333333333333333 [-]
	 SCS Opposite-Spin Scale   =       1.2000000000000000 [-]
	 SCS Same-Spin Energy      =      -0.0272163869995542 [Eh]
	 SCS Opposite-Spin Energy  =      -0.2721614615642545 [Eh]
	 SCS Correlation Energy    =      -0.2993778485638087 [Eh]
	 SCS Total Energy          =     -99.7502212857414889 [Eh]
	-----------------------------------------------------------


*** tstop() called on moses-razer at Wed Jan 24 05:26:46 2024
Module time:
	user time   =       6.11 seconds =       0.10 minutes
	system time =       0.81 seconds =       0.01 minutes
	total time  =          4 seconds =       0.07 minutes
Total time:
	user time   =      33.24 seconds =       0.55 minutes
	system time =       5.79 seconds =       0.10 minutes
	total time  =         19 seconds =       0.32 minutes

    Psi4 stopped on: Wednesday, 24 January 2024 05:26AM
    Psi4 wall time for execution: 0:00:08.60


    -----------------------------------------------------------------------
          Psi4: An Open-Source Ab Initio Electronic Structure Package
                               Psi4 1.9 release

                         Git: Rev {} zzzzzzz 


    D. G. A. Smith, L. A. Burns, A. C. Simmonett, R. M. Parrish,
    M. C. Schieber, R. Galvelis, P. Kraus, H. Kruse, R. Di Remigio,
    A. Alenaizan, A. M. James, S. Lehtola, J. P. Misiewicz, M. Scheurer,
    R. A. Shaw, J. B. Schriber, Y. Xie, Z. L. Glick, D. A. Sirianni,
    J. S. O'Brien, J. M. Waldrop, A. Kumar, E. G. Hohenstein,
    B. P. Pritchard, B. R. Brooks, H. F. Schaefer III, A. Yu. Sokolov,
    K. Patkowski, A. E. DePrince III, U. Bozkaya, R. A. King,
    F. A. Evangelista, J. M. Turney, T. D. Crawford, C. D. Sherrill,
    J. Chem. Phys. 152(18) 184108 (2020). https://doi.org/10.1063/5.0006002

                            Additional Code Authors
    E. T. Seidl, C. L. Janssen, E. F. Valeev, M. L. Leininger,
    J. F. Gonthier, R. M. Richard, H. R. McAlexander, M. Saitow, X. Wang,
    P. Verma, M. H. Lechner, A. Jiang, S. Behnle, A. G. Heide,
    M. F. Herbst, and D. L. Poole

             Previous Authors, Complete List of Code Contributors,
                       and Citations for Specific Modules
    https://github.com/psi4/psi4/blob/master/codemeta.json
    https://github.com/psi4/psi4/graphs/contributors
    http://psicode.org/psi4manual/master/introduction.html#citing-psifour

    -----------------------------------------------------------------------


    Psi4 started on: Wednesday, 24 January 2024 05:26AM

    Process ID: 1194142
    Host:       moses-razer
    PSIDATADIR: /home/kchung25/anaconda3/envs/psi4_19/share/psi4
    Memory:     55.9 GiB
    Threads:    6
    
  ==> Input QCSchema <==

--------------------------------------------------------------------------
{'driver': 'energy',
 'extras': {'psiapi': True, 'wfn_qcvars_only': True},
 'id': None,
 'keywords': {'SCF_TYPE': 'DF', 'function_kwargs': {}},
 'model': {'basis': 'aug-cc-pvtz', 'method': 'mp2'},
 'molecule': {'atom_labels': ['', '', ''],
              'atomic_numbers': [19, 9, 9],
              'extras': {},
              'fix_com': True,
              'fix_orientation': True,
              'fix_symmetry': 'c1',
              'fragment_charges': [0.0, -1.0, -1.0],
              'fragment_multiplicities': [1, 1, 1],
              'fragments': [[0], [1], [2]],
              'geometry': [0.0, 0.0, 0.0, 0.0, 4.110494473573358, 0.0, 6.165741710360038, 0.0, 0.0],
              'mass_numbers': [39, 19, 19],
              'masses': [38.9637064864, 18.99840316273, 18.99840316273],
              'molecular_charge': -2.0,
              'molecular_multiplicity': 1,
              'name': 'dimer',
              'provenance': {'creator': 'QCElemental',
                             'routine': 'qcelemental.molparse.from_string',
                             'version': '0.27.1'},
              'real': [False, True, True],
              'schema_name': 'qcschema_molecule',
              'schema_version': 2,
              'symbols': ['K', 'F', 'F'],
              'validated': True},
 'protocols': {'stdout': True},
 'provenance': {'creator': 'QCElemental', 'routine': 'qcelemental.models.results', 'version': '0.27.1'},
 'schema_name': 'qcschema_input',
 'schema_version': 1}
--------------------------------------------------------------------------

Scratch directory: /scratch/
   => Libint2 <=

    Primary   basis highest AM E, G, H:  5, 4, 3
    Auxiliary basis highest AM E, G, H:  6, 5, 4
    Onebody   basis highest AM E, G, H:  6, 5, 4
    Solid Harmonics ordering:            gaussian

*** tstart() called on moses-razer
*** at Wed Jan 24 05:26:46 2024

   => Loading Basis Set <=

    Name: AUG-CC-PVTZ
    Role: ORBITAL
    Keyword: BASIS
    atoms 1   entry K          line  1152 file /home/kchung25/anaconda3/envs/p415env/share/psi4/basis/aug-cc-pvtz.gbs 
    atoms 2-3 entry F          line   377 file /home/kchung25/anaconda3/envs/p415env/share/psi4/basis/aug-cc-pvtz.gbs 


         ---------------------------------------------------------
                                   SCF
               by Justin Turney, Rob Parrish, Andy Simmonett
                          and Daniel G. A. Smith
                              RHF Reference
                        6 Threads,  57220 MiB Core
         ---------------------------------------------------------

  ==> Geometry <==

    Molecular point group: c1
    Full point group: Cs

    Geometry (in Bohr), charge = -2, multiplicity = 1:

       Center              X                  Y                   Z               Mass       
    ------------   -----------------  -----------------  -----------------  -----------------
      Gh(K)           0.000000000000     0.000000000000     0.000000000000    38.963706486400
         F            0.000000000000     4.110494473573     0.000000000000    18.998403162730
         F            6.165741710360     0.000000000000     0.000000000000    18.998403162730

  Running in c1 symmetry.

  Rotational constants: A =      0.18754  B =      0.08335  C =      0.05770 [cm^-1]
  Rotational constants: A =   5622.24409  B =   2498.77515  C =   1729.92126 [MHz]
  Nuclear repulsion =   10.930732587795971

  Charge       = -2
  Multiplicity = 1
  Electrons    = 20
  Nalpha       = 10
  Nbeta        = 10

  ==> Algorithm <==

  SCF Algorithm Type is DF.
  DIIS enabled.
  MOM disabled.
  Fractional occupation disabled.
  Guess Type is SAD.
  Energy threshold   = 1.00e-08
  Density threshold  = 1.00e-08
  Integral threshold = 1.00e-12

  ==> Primary Basis <==

  Basis Set: AUG-CC-PVTZ
    Blend: AUG-CC-PVTZ
    Number of shells: 47
    Number of basis functions: 151
    Number of Cartesian functions: 179
    Spherical Harmonics?: true
    Max angular momentum: 3

   => Loading Basis Set <=

    Name: (AUG-CC-PVTZ AUX)
    Role: JKFIT
    Keyword: DF_BASIS_SCF
    atoms 1   entry K          line  1152 file /home/kchung25/anaconda3/envs/p415env/share/psi4/basis/def2-universal-jkfit.gbs 
    atoms 2-3 entry F          line   348 file /home/kchung25/anaconda3/envs/p415env/share/psi4/basis/aug-cc-pvtz-jkfit.gbs 

  ==> Integral Setup <==

  DFHelper Memory: AOs need 0.066 GiB; user supplied 41.910 GiB. 
  Using in-core AOs.

  ==> MemDFJK: Density-Fitted J/K Matrices <==

    J tasked:                   Yes
    K tasked:                   Yes
    wK tasked:                   No
    OpenMP threads:               6
    Memory [MiB]:             42915
    Algorithm:                 Core
    Schwarz Cutoff:           1E-12
    Mask sparsity (%):       4.5700
    Fitting Condition:        1E-10

   => Auxiliary Basis Set <=

  Basis Set: (AUG-CC-PVTZ AUX)
    Blend: AUG-CC-PVTZ-JKFIT + DEF2-UNIVERSAL-JKFIT
    Number of shells: 104
    Number of basis functions: 368
    Number of Cartesian functions: 465
    Spherical Harmonics?: true
    Max angular momentum: 4

  Minimum eigenvalue in the overlap matrix is 4.5380950802E-04.
  Reciprocal condition number of the overlap matrix is 9.1626630067E-05.
    Using symmetric orthogonalization.

  ==> Pre-Iterations <==

  SCF Guess: Superposition of Atomic Densities via on-the-fly atomic UHF (no occupation information).

   -------------------------
    Irrep   Nso     Nmo    
   -------------------------
     A        151     151 
   -------------------------
    Total     151     151
   -------------------------

  ==> Iterations <==

                           Total Energy        Delta E     RMS |[F,P]|

   @DF-RHF iter SAD:  -197.65073391713790   -1.97651e+02   0.00000e+00 
   @DF-RHF iter   1:  -198.54068386857836   -8.89950e-01   5.12323e-03 DIIS/ADIIS
   @DF-RHF iter   2:  -174.87364226476907    2.36670e+01   1.51599e-02 DIIS/ADIIS
   @DF-RHF iter   3:  -198.57171268650723   -2.36981e+01   4.73782e-03 DIIS/ADIIS
   @DF-RHF iter   4:  -198.58816971847236   -1.64570e-02   4.94682e-03 DIIS/ADIIS
   @DF-RHF iter   5:  -198.49703641636228    9.11333e-02   6.24074e-03 DIIS/ADIIS
   @DF-RHF iter   6:  -198.74973049179181   -2.52694e-01   1.54881e-03 DIIS/ADIIS
   @DF-RHF iter   7:  -198.76843677261272   -1.87063e-02   4.60438e-04 DIIS/ADIIS
   @DF-RHF iter   8:  -198.76993491506462   -1.49814e-03   1.53112e-05 DIIS
   @DF-RHF iter   9:  -198.76994920931622   -1.42943e-05   5.46662e-06 DIIS
   @DF-RHF iter  10:  -198.76994970767731   -4.98361e-07   2.70000e-06 DIIS
   @DF-RHF iter  11:  -198.76994976854300   -6.08657e-08   1.52054e-06 DIIS
   @DF-RHF iter  12:  -198.76994979106058   -2.25176e-08   3.22765e-07 DIIS
   @DF-RHF iter  13:  -198.76994979234826   -1.28767e-09   2.82715e-08 DIIS
   @DF-RHF iter  14:  -198.76994979238029   -3.20313e-11   8.40496e-09 DIIS
  Energy and wave function converged.


  ==> Post-Iterations <==

    Orbital Energies [Eh]
    ---------------------

    Doubly Occupied:                                                      

       1A    -25.705577     2A    -25.705456     3A     -0.946909  
       4A     -0.946667     5A     -0.053730     6A     -0.052173  
       7A     -0.052148     8A     -0.051093     9A     -0.051081  
      10A     -0.048092  

    Virtual:                                                              

      11A      0.107982    12A      0.109867    13A      0.111082  
      14A      0.129516    15A      0.129936    16A      0.133991  
      17A      0.134653    18A      0.135459    19A      0.149650  
      20A      0.190263    21A      0.193372    22A      0.199076  
      23A      0.241972    24A      0.248760    25A      0.248963  
      26A      0.253580    27A      0.259794    28A      0.262041  
      29A      0.318362    30A      0.335968    31A      0.353842  
      32A      0.355581    33A      0.359256    34A      0.363123  
      35A      0.364737    36A      0.368085    37A      0.373430  
      38A      0.378392    39A      0.418841    40A      0.493305  
      41A      0.505966    42A      0.512399    43A      0.514952  
      44A      0.529276    45A      0.555270    46A      0.588998  
      47A      0.608261    48A      0.639519    49A      0.645846  
      50A      0.658995    51A      0.668008    52A      0.679680  
      53A      0.720950    54A      0.738864    55A      0.773076  
      56A      0.779452    57A      0.786634    58A      0.794928  
      59A      0.808006    60A      0.840175    61A      0.857001  
      62A      0.897417    63A      0.986899    64A      1.368621  
      65A      1.376768    66A      1.425193    67A      1.430075  
      68A      1.440466    69A      1.457234    70A      1.463023  
      71A      1.486760    72A      1.487948    73A      1.522485  
      74A      1.711558    75A      1.717183    76A      1.732975  
      77A      1.736780    78A      1.738347    79A      1.790345  
      80A      2.057636    81A      2.202929    82A      2.290725  
      83A      2.297717    84A      2.377899    85A      2.443066  
      86A      2.496855    87A      2.544680    88A      2.561135  
      89A      2.620216    90A      2.960348    91A      3.421165  
      92A      3.426543    93A      3.445427    94A      3.452980  
      95A      3.458056    96A      3.458117    97A      3.460720  
      98A      3.460800    99A      3.462870   100A      3.463732  
     101A      3.464106   102A      3.465110   103A      3.469474  
     104A      3.482738   105A      3.487069   106A      3.487236  
     107A      3.491528   108A      3.518056   109A      3.520205  
     110A      3.535052   111A      3.572465   112A      3.655782  
     113A      3.674659   114A      3.732011   115A      5.849735  
     116A      5.849789   117A      5.881056   118A      5.900173  
     119A      5.917785   120A      5.983780   121A      9.404131  
     122A      9.404324   123A      9.405453   124A      9.406022  
     125A      9.406165   126A      9.407247   127A      9.408512  
     128A      9.409943   129A      9.409950   130A      9.415972  
     131A      9.417162   132A      9.425831   133A      9.428426  
     134A      9.454242   135A      9.890554   136A      9.894280  
     137A      9.916285   138A      9.921036   139A      9.938270  
     140A      9.945946   141A      9.948171   142A      9.964683  
     143A      9.983936   144A     10.003518   145A     10.477921  
     146A     11.789827   147A     12.036366   148A     30.612541  
     149A     30.737767   150A     31.065009   151A    197.905410  

    Final Occupation by Irrep:
              A 
    DOCC [    10 ]
    NA   [    10 ]
    NB   [    10 ]

  @DF-RHF Final Energy:  -198.76994979238029

   => Energetics <=

    Nuclear Repulsion Energy =             10.9307325877959709
    One-Electron Energy =                -312.1755218129252967
    Two-Electron Energy =                 102.4748394327490360
    Total Energy =                       -198.7699497923803165

Computation Completed


Properties will be evaluated at   0.000000,   0.000000,   0.000000 [a0]

Properties computed using the SCF density matrix


 Multipole Moments:

 ------------------------------------------------------------------------------------
     Multipole            Electronic (a.u.)      Nuclear  (a.u.)        Total (a.u.)
 ------------------------------------------------------------------------------------

 L = 1.  Multiply by 2.5417464519 to convert [e a0] to [Debye]
 Dipole X            :        -61.6515827           55.4916754           -6.1599073
 Dipole Y            :        -41.1069596           36.9944503           -4.1125093
 Dipole Z            :          0.0000000            0.0000000            0.0000000
 Magnitude           :                                                    7.4065640

 ------------------------------------------------------------------------------------

*** tstop() called on moses-razer at Wed Jan 24 05:26:51 2024
Module time:
	user time   =       8.79 seconds =       0.15 minutes
	system time =       1.34 seconds =       0.02 minutes
	total time  =          5 seconds =       0.08 minutes
Total time:
	user time   =      42.26 seconds =       0.70 minutes
	system time =       7.13 seconds =       0.12 minutes
	total time  =         24 seconds =       0.40 minutes

*** tstart() called on moses-razer
*** at Wed Jan 24 05:26:51 2024


  //>>>>>>>>>>>>>>>>>>>>>>>>>>>>>>>>>>>//
  //               DFMP2               //
  //<<<<<<<<<<<<<<<<<<<<<<<<<<<<<<<<<<<//

   => Loading Basis Set <=

    Name: (AUG-CC-PVTZ AUX)
    Role: RIFIT
    Keyword: DF_BASIS_MP2
    atoms 1   entry K          line  1282 file /home/kchung25/anaconda3/envs/p415env/share/psi4/basis/def2-qzvpp-ri.gbs 
    atoms 2-3 entry F          line   322 file /home/kchung25/anaconda3/envs/p415env/share/psi4/basis/aug-cc-pvtz-ri.gbs 

	 --------------------------------------------------------
	                          DF-MP2                         
	      2nd-Order Density-Fitted Moller-Plesset Theory     
	              RMP2 Wavefunction,   6 Threads             
	                                                         
	        Rob Parrish, Justin Turney, Andy Simmonett,      
	           Ed Hohenstein, and C. David Sherrill          
	 --------------------------------------------------------

   => Auxiliary Basis Set <=

  Basis Set: (AUG-CC-PVTZ AUX)
    Blend: AUG-CC-PVTZ-RI + DEF2-QZVPP-RI
    Number of shells: 105
    Number of basis functions: 411
    Number of Cartesian functions: 534
    Spherical Harmonics?: true
    Max angular momentum: 4

	 --------------------------------------------------------
	                 NBF =   151, NAUX =   411
	 --------------------------------------------------------
	   CLASS    FOCC     OCC    AOCC    AVIR     VIR    FVIR
	   PAIRS       0      10      10     141     141       0
	 --------------------------------------------------------

	-----------------------------------------------------------
	 ==================> DF-MP2 Energies <==================== 
	-----------------------------------------------------------
	 Reference Energy          =    -198.7699497923802880 [Eh]
	 Singles Energy            =      -0.0000000000000000 [Eh]
	 Same-Spin Energy          =      -0.1638742829782104 [Eh]
	 Opposite-Spin Energy      =      -0.4545287255723987 [Eh]
	 Correlation Energy        =      -0.6184030085506090 [Eh]
	 Total Energy              =    -199.3883528009309032 [Eh]
	-----------------------------------------------------------
	 ================> DF-SCS-MP2 Energies <================== 
	-----------------------------------------------------------
	 SCS Same-Spin Scale       =       0.3333333333333333 [-]
	 SCS Opposite-Spin Scale   =       1.2000000000000000 [-]
	 SCS Same-Spin Energy      =      -0.0546247609927368 [Eh]
	 SCS Opposite-Spin Energy  =      -0.5454344706868783 [Eh]
	 SCS Correlation Energy    =      -0.6000592316796152 [Eh]
	 SCS Total Energy          =    -199.3700090240598968 [Eh]
	-----------------------------------------------------------


*** tstop() called on moses-razer at Wed Jan 24 05:26:55 2024
Module time:
	user time   =       6.25 seconds =       0.10 minutes
	system time =       0.81 seconds =       0.01 minutes
	total time  =          4 seconds =       0.07 minutes
Total time:
	user time   =      48.51 seconds =       0.81 minutes
	system time =       7.94 seconds =       0.13 minutes
	total time  =         28 seconds =       0.47 minutes

    Psi4 stopped on: Wednesday, 24 January 2024 05:26AM
    Psi4 wall time for execution: 0:00:08.61


    -----------------------------------------------------------------------
          Psi4: An Open-Source Ab Initio Electronic Structure Package
                               Psi4 1.9 release

                         Git: Rev {} zzzzzzz 


    D. G. A. Smith, L. A. Burns, A. C. Simmonett, R. M. Parrish,
    M. C. Schieber, R. Galvelis, P. Kraus, H. Kruse, R. Di Remigio,
    A. Alenaizan, A. M. James, S. Lehtola, J. P. Misiewicz, M. Scheurer,
    R. A. Shaw, J. B. Schriber, Y. Xie, Z. L. Glick, D. A. Sirianni,
    J. S. O'Brien, J. M. Waldrop, A. Kumar, E. G. Hohenstein,
    B. P. Pritchard, B. R. Brooks, H. F. Schaefer III, A. Yu. Sokolov,
    K. Patkowski, A. E. DePrince III, U. Bozkaya, R. A. King,
    F. A. Evangelista, J. M. Turney, T. D. Crawford, C. D. Sherrill,
    J. Chem. Phys. 152(18) 184108 (2020). https://doi.org/10.1063/5.0006002

                            Additional Code Authors
    E. T. Seidl, C. L. Janssen, E. F. Valeev, M. L. Leininger,
    J. F. Gonthier, R. M. Richard, H. R. McAlexander, M. Saitow, X. Wang,
    P. Verma, M. H. Lechner, A. Jiang, S. Behnle, A. G. Heide,
    M. F. Herbst, and D. L. Poole

             Previous Authors, Complete List of Code Contributors,
                       and Citations for Specific Modules
    https://github.com/psi4/psi4/blob/master/codemeta.json
    https://github.com/psi4/psi4/graphs/contributors
    http://psicode.org/psi4manual/master/introduction.html#citing-psifour

    -----------------------------------------------------------------------


    Psi4 started on: Wednesday, 24 January 2024 05:26AM

    Process ID: 1194142
    Host:       moses-razer
    PSIDATADIR: /home/kchung25/anaconda3/envs/psi4_19/share/psi4
    Memory:     55.9 GiB
    Threads:    6
    
  ==> Input QCSchema <==

--------------------------------------------------------------------------
{'driver': 'energy',
 'extras': {'psiapi': True, 'wfn_qcvars_only': True},
 'id': None,
 'keywords': {'SCF_TYPE': 'DF', 'function_kwargs': {}},
 'model': {'basis': 'aug-cc-pvtz', 'method': 'mp2'},
 'molecule': {'atom_labels': ['', '', ''],
              'atomic_numbers': [19, 9, 9],
              'extras': {},
              'fix_com': True,
              'fix_orientation': True,
              'fix_symmetry': 'c1',
              'fragment_charges': [1.0, 0.0, -1.0],
              'fragment_multiplicities': [1, 1, 1],
              'fragments': [[0], [1], [2]],
              'geometry': [0.0, 0.0, 0.0, 0.0, 4.110494473573358, 0.0, 6.165741710360038, 0.0, 0.0],
              'mass_numbers': [39, 19, 19],
              'masses': [38.9637064864, 18.99840316273, 18.99840316273],
              'molecular_charge': 0.0,
              'molecular_multiplicity': 1,
              'name': 'dimer',
              'provenance': {'creator': 'QCElemental',
                             'routine': 'qcelemental.molparse.from_string',
                             'version': '0.27.1'},
              'real': [True, False, True],
              'schema_name': 'qcschema_molecule',
              'schema_version': 2,
              'symbols': ['K', 'F', 'F'],
              'validated': True},
 'protocols': {'stdout': True},
 'provenance': {'creator': 'QCElemental', 'routine': 'qcelemental.models.results', 'version': '0.27.1'},
 'schema_name': 'qcschema_input',
 'schema_version': 1}
--------------------------------------------------------------------------

Scratch directory: /scratch/
   => Libint2 <=

    Primary   basis highest AM E, G, H:  5, 4, 3
    Auxiliary basis highest AM E, G, H:  6, 5, 4
    Onebody   basis highest AM E, G, H:  6, 5, 4
    Solid Harmonics ordering:            gaussian

*** tstart() called on moses-razer
*** at Wed Jan 24 05:26:55 2024

   => Loading Basis Set <=

    Name: AUG-CC-PVTZ
    Role: ORBITAL
    Keyword: BASIS
    atoms 1   entry K          line  1152 file /home/kchung25/anaconda3/envs/p415env/share/psi4/basis/aug-cc-pvtz.gbs 
    atoms 2-3 entry F          line   377 file /home/kchung25/anaconda3/envs/p415env/share/psi4/basis/aug-cc-pvtz.gbs 


         ---------------------------------------------------------
                                   SCF
               by Justin Turney, Rob Parrish, Andy Simmonett
                          and Daniel G. A. Smith
                              RHF Reference
                        6 Threads,  57220 MiB Core
         ---------------------------------------------------------

  ==> Geometry <==

    Molecular point group: c1
    Full point group: Cs

    Geometry (in Bohr), charge = 0, multiplicity = 1:

       Center              X                  Y                   Z               Mass       
    ------------   -----------------  -----------------  -----------------  -----------------
         K            0.000000000000     0.000000000000     0.000000000000    38.963706486400
      Gh(F)           0.000000000000     4.110494473573     0.000000000000    18.998403162730
         F            6.165741710360     0.000000000000     0.000000000000    18.998403162730

  Running in c1 symmetry.

  Rotational constants: A =      0.18754  B =      0.08335  C =      0.05770 [cm^-1]
  Rotational constants: A =   5622.24409  B =   2498.77515  C =   1729.92126 [MHz]
  Nuclear repulsion =   27.733889616666207

  Charge       = 0
  Multiplicity = 1
  Electrons    = 28
  Nalpha       = 14
  Nbeta        = 14

  ==> Algorithm <==

  SCF Algorithm Type is DF.
  DIIS enabled.
  MOM disabled.
  Fractional occupation disabled.
  Guess Type is SAD.
  Energy threshold   = 1.00e-08
  Density threshold  = 1.00e-08
  Integral threshold = 1.00e-12

  ==> Primary Basis <==

  Basis Set: AUG-CC-PVTZ
    Blend: AUG-CC-PVTZ
    Number of shells: 47
    Number of basis functions: 151
    Number of Cartesian functions: 179
    Spherical Harmonics?: true
    Max angular momentum: 3

   => Loading Basis Set <=

    Name: (AUG-CC-PVTZ AUX)
    Role: JKFIT
    Keyword: DF_BASIS_SCF
    atoms 1   entry K          line  1152 file /home/kchung25/anaconda3/envs/p415env/share/psi4/basis/def2-universal-jkfit.gbs 
    atoms 2-3 entry F          line   348 file /home/kchung25/anaconda3/envs/p415env/share/psi4/basis/aug-cc-pvtz-jkfit.gbs 

  ==> Integral Setup <==

  DFHelper Memory: AOs need 0.066 GiB; user supplied 41.910 GiB. 
  Using in-core AOs.

  ==> MemDFJK: Density-Fitted J/K Matrices <==

    J tasked:                   Yes
    K tasked:                   Yes
    wK tasked:                   No
    OpenMP threads:               6
    Memory [MiB]:             42915
    Algorithm:                 Core
    Schwarz Cutoff:           1E-12
    Mask sparsity (%):       4.5700
    Fitting Condition:        1E-10

   => Auxiliary Basis Set <=

  Basis Set: (AUG-CC-PVTZ AUX)
    Blend: AUG-CC-PVTZ-JKFIT + DEF2-UNIVERSAL-JKFIT
    Number of shells: 104
    Number of basis functions: 368
    Number of Cartesian functions: 465
    Spherical Harmonics?: true
    Max angular momentum: 4

  Minimum eigenvalue in the overlap matrix is 4.5380950802E-04.
  Reciprocal condition number of the overlap matrix is 9.1626630067E-05.
    Using symmetric orthogonalization.

  ==> Pre-Iterations <==

  SCF Guess: Superposition of Atomic Densities via on-the-fly atomic UHF (no occupation information).

   -------------------------
    Irrep   Nso     Nmo    
   -------------------------
     A        151     151 
   -------------------------
    Total     151     151
   -------------------------

  ==> Iterations <==

                           Total Energy        Delta E     RMS |[F,P]|

   @DF-RHF iter SAD:  -697.88465476608724   -6.97885e+02   0.00000e+00 
   @DF-RHF iter   1:  -698.52096686480706   -6.36312e-01   3.60439e-03 DIIS/ADIIS
   @DF-RHF iter   2:  -698.55772267775478   -3.67558e-02   3.49861e-03 DIIS/ADIIS
   @DF-RHF iter   3:  -698.63412526762693   -7.64026e-02   1.14471e-04 DIIS/ADIIS
   @DF-RHF iter   4:  -698.63423245223942   -1.07185e-04   4.49692e-05 DIIS
   @DF-RHF iter   5:  -698.63425031105407   -1.78588e-05   6.84790e-06 DIIS
   @DF-RHF iter   6:  -698.63425188048552   -1.56943e-06   2.28054e-06 DIIS
   @DF-RHF iter   7:  -698.63425214491599   -2.64430e-07   5.44650e-07 DIIS
   @DF-RHF iter   8:  -698.63425216058397   -1.56680e-08   8.99848e-08 DIIS
   @DF-RHF iter   9:  -698.63425216091514   -3.31170e-10   2.15127e-08 DIIS
   @DF-RHF iter  10:  -698.63425216093424   -1.90994e-11   3.39237e-09 DIIS
  Energy and wave function converged.


  ==> Post-Iterations <==

    Orbital Energies [Eh]
    ---------------------

    Doubly Occupied:                                                      

       1A   -133.585142     2A    -26.000955     3A    -14.540501  
       4A    -11.570624     5A    -11.570618     6A    -11.570417  
       7A     -1.795753     8A     -1.242956     9A     -1.004334  
      10A     -1.004302    11A     -0.998526    12A     -0.347758  
      13A     -0.347744    14A     -0.347739  

    Virtual:                                                              

      15A     -0.028320    16A     -0.000634    17A     -0.000629  
      18A      0.002741    19A      0.014270    20A      0.016179  
      21A      0.016233    22A      0.016374    23A      0.016431  
      24A      0.023827    25A      0.023897    26A      0.026183  
      27A      0.032965    28A      0.046863    29A      0.047181  
      30A      0.060289    31A      0.060530    32A      0.062704  
      33A      0.067943    34A      0.068660    35A      0.088194  
      36A      0.094535    37A      0.119190    38A      0.119483  
      39A      0.129748    40A      0.132608    41A      0.133696  
      42A      0.133888    43A      0.137257    44A      0.141139  
      45A      0.145045    46A      0.167117    47A      0.168856  
      48A      0.188957    49A      0.214720    50A      0.227507  
      51A      0.234354    52A      0.260478    53A      0.284827  
      54A      0.304376    55A      0.312655    56A      0.355442  
      57A      0.367958    58A      0.372191    59A      0.375532  
      60A      0.376664    61A      0.384883    62A      0.391956  
      63A      0.392896    64A      0.397529    65A      0.406837  
      66A      0.412815    67A      0.415620    68A      0.421735  
      69A      0.441332    70A      0.473236    71A      0.615111  
      72A      0.808448    73A      0.844493    74A      0.848928  
      75A      0.896062    76A      0.970509    77A      0.986289  
      78A      1.050895    79A      1.081049    80A      1.098889  
      81A      1.101717    82A      1.107120    83A      1.128575  
      84A      1.166455    85A      1.208900    86A      1.256562  
      87A      1.433592    88A      1.437000    89A      1.492864  
      90A      2.198680    91A      2.972996    92A      2.982569  
      93A      2.987028    94A      2.992148    95A      2.992573  
      96A      2.997262    97A      2.999804    98A      3.018148  
      99A      3.018952   100A      3.101094   101A      3.131121  
     102A      3.136035   103A      3.151803   104A      3.154501  
     105A      3.157767   106A      3.170425   107A      3.170510  
     108A      3.172028   109A      3.175440   110A      3.201772  
     111A      3.224272   112A      3.249810   113A      3.252898  
     114A      3.515702   115A      3.528077   116A      3.584627  
     117A      3.594814   118A      3.618135   119A      5.556325  
     120A      5.558629   121A      5.590906   122A      9.109604  
     123A      9.111255   124A      9.111448   125A      9.111489  
     126A      9.111499   127A      9.111923   128A      9.112455  
     129A      9.571570   130A      9.599611   131A      9.603085  
     132A      9.633326   133A      9.647005   134A      9.659015  
     135A     10.058146   136A     10.058584   137A     10.060048  
     138A     10.061395   139A     10.064047   140A     10.066384  
     141A     10.099761   142A     11.494802   143A     12.875438  
     144A     12.882514   145A     12.915404   146A     12.925571  
     147A     12.937608   148A     14.195780   149A     14.201963  
     150A     14.260172   151A     67.825906  

    Final Occupation by Irrep:
              A 
    DOCC [    14 ]
    NA   [    14 ]
    NB   [    14 ]

  @DF-RHF Final Energy:  -698.63425216093424

   => Energetics <=

    Nuclear Repulsion Energy =             27.7338896166662074
    One-Electron Energy =               -1020.8815453983738735
    Two-Electron Energy =                 294.5134036207733743
    Total Energy =                       -698.6342521609342384

Computation Completed


Properties will be evaluated at   0.000000,   0.000000,   0.000000 [a0]

Properties computed using the SCF density matrix


 Multipole Moments:

 ------------------------------------------------------------------------------------
     Multipole            Electronic (a.u.)      Nuclear  (a.u.)        Total (a.u.)
 ------------------------------------------------------------------------------------

 L = 1.  Multiply by 2.5417464519 to convert [e a0] to [Debye]
 Dipole X            :        -61.2662441           55.4916754           -5.7745687
 Dipole Y            :         -0.0006961            0.0000000           -0.0006961
 Dipole Z            :         -0.0000000            0.0000000           -0.0000000
 Magnitude           :                                                    5.7745687

 ------------------------------------------------------------------------------------

*** tstop() called on moses-razer at Wed Jan 24 05:27:01 2024
Module time:
	user time   =      12.74 seconds =       0.21 minutes
	system time =       2.61 seconds =       0.04 minutes
	total time  =          6 seconds =       0.10 minutes
Total time:
	user time   =      61.48 seconds =       1.02 minutes
	system time =      10.55 seconds =       0.18 minutes
	total time  =         34 seconds =       0.57 minutes

*** tstart() called on moses-razer
*** at Wed Jan 24 05:27:01 2024


  //>>>>>>>>>>>>>>>>>>>>>>>>>>>>>>>>>>>//
  //               DFMP2               //
  //<<<<<<<<<<<<<<<<<<<<<<<<<<<<<<<<<<<//

   => Loading Basis Set <=

    Name: (AUG-CC-PVTZ AUX)
    Role: RIFIT
    Keyword: DF_BASIS_MP2
    atoms 1   entry K          line  1282 file /home/kchung25/anaconda3/envs/p415env/share/psi4/basis/def2-qzvpp-ri.gbs 
    atoms 2-3 entry F          line   322 file /home/kchung25/anaconda3/envs/p415env/share/psi4/basis/aug-cc-pvtz-ri.gbs 

	 --------------------------------------------------------
	                          DF-MP2                         
	      2nd-Order Density-Fitted Moller-Plesset Theory     
	              RMP2 Wavefunction,   6 Threads             
	                                                         
	        Rob Parrish, Justin Turney, Andy Simmonett,      
	           Ed Hohenstein, and C. David Sherrill          
	 --------------------------------------------------------

   => Auxiliary Basis Set <=

  Basis Set: (AUG-CC-PVTZ AUX)
    Blend: AUG-CC-PVTZ-RI + DEF2-QZVPP-RI
    Number of shells: 105
    Number of basis functions: 411
    Number of Cartesian functions: 534
    Spherical Harmonics?: true
    Max angular momentum: 4

	 --------------------------------------------------------
	                 NBF =   151, NAUX =   411
	 --------------------------------------------------------
	   CLASS    FOCC     OCC    AOCC    AVIR     VIR    FVIR
	   PAIRS       0      14      14     137     137       0
	 --------------------------------------------------------

	-----------------------------------------------------------
	 ==================> DF-MP2 Energies <==================== 
	-----------------------------------------------------------
	 Reference Energy          =    -698.6342521609342384 [Eh]
	 Singles Energy            =      -0.0000000000000000 [Eh]
	 Same-Spin Energy          =      -0.1100817976136373 [Eh]
	 Opposite-Spin Energy      =      -0.2932858960286012 [Eh]
	 Correlation Energy        =      -0.4033676936422385 [Eh]
	 Total Energy              =    -699.0376198545765192 [Eh]
	-----------------------------------------------------------
	 ================> DF-SCS-MP2 Energies <================== 
	-----------------------------------------------------------
	 SCS Same-Spin Scale       =       0.3333333333333333 [-]
	 SCS Opposite-Spin Scale   =       1.2000000000000000 [-]
	 SCS Same-Spin Energy      =      -0.0366939325378791 [Eh]
	 SCS Opposite-Spin Energy  =      -0.3519430752343214 [Eh]
	 SCS Correlation Energy    =      -0.3886370077722006 [Eh]
	 SCS Total Energy          =    -699.0228891687064561 [Eh]
	-----------------------------------------------------------


*** tstop() called on moses-razer at Wed Jan 24 05:27:06 2024
Module time:
	user time   =       6.21 seconds =       0.10 minutes
	system time =       0.78 seconds =       0.01 minutes
	total time  =          5 seconds =       0.08 minutes
Total time:
	user time   =      67.69 seconds =       1.13 minutes
	system time =      11.33 seconds =       0.19 minutes
	total time  =         39 seconds =       0.65 minutes

    Psi4 stopped on: Wednesday, 24 January 2024 05:27AM
    Psi4 wall time for execution: 0:00:10.98


    -----------------------------------------------------------------------
          Psi4: An Open-Source Ab Initio Electronic Structure Package
                               Psi4 1.9 release

                         Git: Rev {} zzzzzzz 


    D. G. A. Smith, L. A. Burns, A. C. Simmonett, R. M. Parrish,
    M. C. Schieber, R. Galvelis, P. Kraus, H. Kruse, R. Di Remigio,
    A. Alenaizan, A. M. James, S. Lehtola, J. P. Misiewicz, M. Scheurer,
    R. A. Shaw, J. B. Schriber, Y. Xie, Z. L. Glick, D. A. Sirianni,
    J. S. O'Brien, J. M. Waldrop, A. Kumar, E. G. Hohenstein,
    B. P. Pritchard, B. R. Brooks, H. F. Schaefer III, A. Yu. Sokolov,
    K. Patkowski, A. E. DePrince III, U. Bozkaya, R. A. King,
    F. A. Evangelista, J. M. Turney, T. D. Crawford, C. D. Sherrill,
    J. Chem. Phys. 152(18) 184108 (2020). https://doi.org/10.1063/5.0006002

                            Additional Code Authors
    E. T. Seidl, C. L. Janssen, E. F. Valeev, M. L. Leininger,
    J. F. Gonthier, R. M. Richard, H. R. McAlexander, M. Saitow, X. Wang,
    P. Verma, M. H. Lechner, A. Jiang, S. Behnle, A. G. Heide,
    M. F. Herbst, and D. L. Poole

             Previous Authors, Complete List of Code Contributors,
                       and Citations for Specific Modules
    https://github.com/psi4/psi4/blob/master/codemeta.json
    https://github.com/psi4/psi4/graphs/contributors
    http://psicode.org/psi4manual/master/introduction.html#citing-psifour

    -----------------------------------------------------------------------


    Psi4 started on: Wednesday, 24 January 2024 05:26AM

    Process ID: 1194142
    Host:       moses-razer
    PSIDATADIR: /home/kchung25/anaconda3/envs/psi4_19/share/psi4
    Memory:     55.9 GiB
    Threads:    6
    
  ==> Input QCSchema <==

--------------------------------------------------------------------------
{'driver': 'energy',
 'extras': {'psiapi': True, 'wfn_qcvars_only': True},
 'id': None,
 'keywords': {'SCF_TYPE': 'DF', 'function_kwargs': {}},
 'model': {'basis': 'aug-cc-pvtz', 'method': 'mp2'},
 'molecule': {'atom_labels': ['', '', ''],
              'atomic_numbers': [19, 9, 9],
              'extras': {},
              'fix_com': True,
              'fix_orientation': True,
              'fix_symmetry': 'c1',
              'fragment_charges': [1.0, -1.0, 0.0],
              'fragment_multiplicities': [1, 1, 1],
              'fragments': [[0], [1], [2]],
              'geometry': [0.0, 0.0, 0.0, 0.0, 4.110494473573358, 0.0, 6.165741710360038, 0.0, 0.0],
              'mass_numbers': [39, 19, 19],
              'masses': [38.9637064864, 18.99840316273, 18.99840316273],
              'molecular_charge': 0.0,
              'molecular_multiplicity': 1,
              'name': 'dimer',
              'provenance': {'creator': 'QCElemental',
                             'routine': 'qcelemental.molparse.from_string',
                             'version': '0.27.1'},
              'real': [True, True, False],
              'schema_name': 'qcschema_molecule',
              'schema_version': 2,
              'symbols': ['K', 'F', 'F'],
              'validated': True},
 'protocols': {'stdout': True},
 'provenance': {'creator': 'QCElemental', 'routine': 'qcelemental.models.results', 'version': '0.27.1'},
 'schema_name': 'qcschema_input',
 'schema_version': 1}
--------------------------------------------------------------------------

Scratch directory: /scratch/
   => Libint2 <=

    Primary   basis highest AM E, G, H:  5, 4, 3
    Auxiliary basis highest AM E, G, H:  6, 5, 4
    Onebody   basis highest AM E, G, H:  6, 5, 4
    Solid Harmonics ordering:            gaussian

*** tstart() called on moses-razer
*** at Wed Jan 24 05:27:06 2024

   => Loading Basis Set <=

    Name: AUG-CC-PVTZ
    Role: ORBITAL
    Keyword: BASIS
    atoms 1   entry K          line  1152 file /home/kchung25/anaconda3/envs/p415env/share/psi4/basis/aug-cc-pvtz.gbs 
    atoms 2-3 entry F          line   377 file /home/kchung25/anaconda3/envs/p415env/share/psi4/basis/aug-cc-pvtz.gbs 


         ---------------------------------------------------------
                                   SCF
               by Justin Turney, Rob Parrish, Andy Simmonett
                          and Daniel G. A. Smith
                              RHF Reference
                        6 Threads,  57220 MiB Core
         ---------------------------------------------------------

  ==> Geometry <==

    Molecular point group: c1
    Full point group: Cs

    Geometry (in Bohr), charge = 0, multiplicity = 1:

       Center              X                  Y                   Z               Mass       
    ------------   -----------------  -----------------  -----------------  -----------------
         K            0.000000000000     0.000000000000     0.000000000000    38.963706486400
         F            0.000000000000     4.110494473573     0.000000000000    18.998403162730
      Gh(F)           6.165741710360     0.000000000000     0.000000000000    18.998403162730

  Running in c1 symmetry.

  Rotational constants: A =      0.18754  B =      0.08335  C =      0.05770 [cm^-1]
  Rotational constants: A =   5622.24409  B =   2498.77515  C =   1729.92126 [MHz]
  Nuclear repulsion =   41.600834424999313

  Charge       = 0
  Multiplicity = 1
  Electrons    = 28
  Nalpha       = 14
  Nbeta        = 14

  ==> Algorithm <==

  SCF Algorithm Type is DF.
  DIIS enabled.
  MOM disabled.
  Fractional occupation disabled.
  Guess Type is SAD.
  Energy threshold   = 1.00e-08
  Density threshold  = 1.00e-08
  Integral threshold = 1.00e-12

  ==> Primary Basis <==

  Basis Set: AUG-CC-PVTZ
    Blend: AUG-CC-PVTZ
    Number of shells: 47
    Number of basis functions: 151
    Number of Cartesian functions: 179
    Spherical Harmonics?: true
    Max angular momentum: 3

   => Loading Basis Set <=

    Name: (AUG-CC-PVTZ AUX)
    Role: JKFIT
    Keyword: DF_BASIS_SCF
    atoms 1   entry K          line  1152 file /home/kchung25/anaconda3/envs/p415env/share/psi4/basis/def2-universal-jkfit.gbs 
    atoms 2-3 entry F          line   348 file /home/kchung25/anaconda3/envs/p415env/share/psi4/basis/aug-cc-pvtz-jkfit.gbs 

  ==> Integral Setup <==

  DFHelper Memory: AOs need 0.066 GiB; user supplied 41.910 GiB. 
  Using in-core AOs.

  ==> MemDFJK: Density-Fitted J/K Matrices <==

    J tasked:                   Yes
    K tasked:                   Yes
    wK tasked:                   No
    OpenMP threads:               6
    Memory [MiB]:             42915
    Algorithm:                 Core
    Schwarz Cutoff:           1E-12
    Mask sparsity (%):       4.5700
    Fitting Condition:        1E-10

   => Auxiliary Basis Set <=

  Basis Set: (AUG-CC-PVTZ AUX)
    Blend: AUG-CC-PVTZ-JKFIT + DEF2-UNIVERSAL-JKFIT
    Number of shells: 104
    Number of basis functions: 368
    Number of Cartesian functions: 465
    Spherical Harmonics?: true
    Max angular momentum: 4

  Minimum eigenvalue in the overlap matrix is 4.5380950802E-04.
  Reciprocal condition number of the overlap matrix is 9.1626630067E-05.
    Using symmetric orthogonalization.

  ==> Pre-Iterations <==

  SCF Guess: Superposition of Atomic Densities via on-the-fly atomic UHF (no occupation information).

   -------------------------
    Irrep   Nso     Nmo    
   -------------------------
     A        151     151 
   -------------------------
    Total     151     151
   -------------------------

  ==> Iterations <==

                           Total Energy        Delta E     RMS |[F,P]|

   @DF-RHF iter SAD:  -697.93921594708877   -6.97939e+02   0.00000e+00 
   @DF-RHF iter   1:  -698.56764765369769   -6.28432e-01   3.72544e-03 DIIS/ADIIS
   @DF-RHF iter   2:  -698.61812128724750   -5.04736e-02   3.28711e-03 DIIS/ADIIS
   @DF-RHF iter   3:  -698.68403751088238   -6.59162e-02   1.03065e-04 DIIS/ADIIS
   @DF-RHF iter   4:  -698.68414370157723   -1.06191e-04   2.68509e-05 DIIS
   @DF-RHF iter   5:  -698.68415155082243   -7.84925e-06   4.84273e-06 DIIS
   @DF-RHF iter   6:  -698.68415208387114   -5.33049e-07   1.40803e-06 DIIS
   @DF-RHF iter   7:  -698.68415214343293   -5.95618e-08   3.20310e-07 DIIS
   @DF-RHF iter   8:  -698.68415214659524   -3.16231e-09   3.83742e-08 DIIS
   @DF-RHF iter   9:  -698.68415214663105   -3.58114e-11   9.16059e-09 DIIS
  Energy and wave function converged.


  ==> Post-Iterations <==

    Orbital Energies [Eh]
    ---------------------

    Doubly Occupied:                                                      

       1A   -133.490032     2A    -26.057293     3A    -14.447498  
       4A    -11.477353     5A    -11.477353     6A    -11.477072  
       7A     -1.711659     8A     -1.320575     9A     -0.922905  
      10A     -0.922810    11A     -0.912077    12A     -0.421000  
      13A     -0.416777    14A     -0.416775  

    Virtual:                                                              

      15A     -0.008614    16A      0.005628    17A      0.005648  
      18A      0.009597    19A      0.017899    20A      0.017949  
[...]
	   PAIRS       0       5       5     146     146       0
	 --------------------------------------------------------

	-----------------------------------------------------------
	 ==================> DF-MP2 Energies <==================== 
	-----------------------------------------------------------
	 Reference Energy          =     -99.4508266060582287 [Eh]
	 Singles Energy            =      -0.0000000000000000 [Eh]
	 Same-Spin Energy          =      -0.0816146533077938 [Eh]
	 Opposite-Spin Energy      =      -0.2265890646369125 [Eh]
	 Correlation Energy        =      -0.3082037179447063 [Eh]
	 Total Energy              =     -99.7590303240029357 [Eh]
	-----------------------------------------------------------
	 ================> DF-SCS-MP2 Energies <================== 
	-----------------------------------------------------------
	 SCS Same-Spin Scale       =       0.3333333333333333 [-]
	 SCS Opposite-Spin Scale   =       1.2000000000000000 [-]
	 SCS Same-Spin Energy      =      -0.0272048844359313 [Eh]
	 SCS Opposite-Spin Energy  =      -0.2719068775642949 [Eh]
	 SCS Correlation Energy    =      -0.2991117620002262 [Eh]
	 SCS Total Energy          =     -99.7499383680584515 [Eh]
	-----------------------------------------------------------


*** tstop() called on moses-razer at Wed Jan 24 05:27:25 2024
Module time:
	user time   =       6.13 seconds =       0.10 minutes
	system time =       0.78 seconds =       0.01 minutes
	total time  =          4 seconds =       0.07 minutes
Total time:
	user time   =     101.35 seconds =       1.69 minutes
	system time =      16.84 seconds =       0.28 minutes
	total time  =         58 seconds =       0.97 minutes

    Psi4 stopped on: Wednesday, 24 January 2024 05:27AM
    Psi4 wall time for execution: 0:00:08.49


    -----------------------------------------------------------------------
          Psi4: An Open-Source Ab Initio Electronic Structure Package
                               Psi4 1.9 release

                         Git: Rev {} zzzzzzz 


    D. G. A. Smith, L. A. Burns, A. C. Simmonett, R. M. Parrish,
    M. C. Schieber, R. Galvelis, P. Kraus, H. Kruse, R. Di Remigio,
    A. Alenaizan, A. M. James, S. Lehtola, J. P. Misiewicz, M. Scheurer,
    R. A. Shaw, J. B. Schriber, Y. Xie, Z. L. Glick, D. A. Sirianni,
    J. S. O'Brien, J. M. Waldrop, A. Kumar, E. G. Hohenstein,
    B. P. Pritchard, B. R. Brooks, H. F. Schaefer III, A. Yu. Sokolov,
    K. Patkowski, A. E. DePrince III, U. Bozkaya, R. A. King,
    F. A. Evangelista, J. M. Turney, T. D. Crawford, C. D. Sherrill,
    J. Chem. Phys. 152(18) 184108 (2020). https://doi.org/10.1063/5.0006002

                            Additional Code Authors
    E. T. Seidl, C. L. Janssen, E. F. Valeev, M. L. Leininger,
    J. F. Gonthier, R. M. Richard, H. R. McAlexander, M. Saitow, X. Wang,
    P. Verma, M. H. Lechner, A. Jiang, S. Behnle, A. G. Heide,
    M. F. Herbst, and D. L. Poole

             Previous Authors, Complete List of Code Contributors,
                       and Citations for Specific Modules
    https://github.com/psi4/psi4/blob/master/codemeta.json
    https://github.com/psi4/psi4/graphs/contributors
    http://psicode.org/psi4manual/master/introduction.html#citing-psifour

    -----------------------------------------------------------------------


    Psi4 started on: Wednesday, 24 January 2024 05:26AM

    Process ID: 1194142
    Host:       moses-razer
    PSIDATADIR: /home/kchung25/anaconda3/envs/psi4_19/share/psi4
    Memory:     55.9 GiB
    Threads:    6
    
  ==> Input QCSchema <==

--------------------------------------------------------------------------
{'driver': 'energy',
 'extras': {'psiapi': True, 'wfn_qcvars_only': True},
 'id': None,
 'keywords': {'SCF_TYPE': 'DF', 'function_kwargs': {}},
 'model': {'basis': 'aug-cc-pvtz', 'method': 'mp2'},
 'molecule': {'atom_labels': ['', '', ''],
              'atomic_numbers': [19, 9, 9],
              'extras': {},
              'fix_com': True,
              'fix_orientation': True,
              'fix_symmetry': 'c1',
              'fragment_charges': [1.0, -1.0, -1.0],
              'fragment_multiplicities': [1, 1, 1],
              'fragments': [[0], [1], [2]],
              'geometry': [0.0, 0.0, 0.0, 0.0, 4.110494473573358, 0.0, 6.165741710360038, 0.0, 0.0],
              'mass_numbers': [39, 19, 19],
              'masses': [38.9637064864, 18.99840316273, 18.99840316273],
              'molecular_charge': -1.0,
              'molecular_multiplicity': 1,
              'name': 'dimer',
              'provenance': {'creator': 'QCElemental',
                             'routine': 'qcelemental.molparse.from_string',
                             'version': '0.27.1'},
              'real': [True, True, True],
              'schema_name': 'qcschema_molecule',
              'schema_version': 2,
              'symbols': ['K', 'F', 'F'],
              'validated': True},
 'protocols': {'stdout': True},
 'provenance': {'creator': 'QCElemental', 'routine': 'qcelemental.models.results', 'version': '0.27.1'},
 'schema_name': 'qcschema_input',
 'schema_version': 1}
--------------------------------------------------------------------------

Scratch directory: /scratch/
   => Libint2 <=

    Primary   basis highest AM E, G, H:  5, 4, 3
    Auxiliary basis highest AM E, G, H:  6, 5, 4
    Onebody   basis highest AM E, G, H:  6, 5, 4
    Solid Harmonics ordering:            gaussian

*** tstart() called on moses-razer
*** at Wed Jan 24 05:27:25 2024

   => Loading Basis Set <=

    Name: AUG-CC-PVTZ
    Role: ORBITAL
    Keyword: BASIS
    atoms 1   entry K          line  1152 file /home/kchung25/anaconda3/envs/p415env/share/psi4/basis/aug-cc-pvtz.gbs 
    atoms 2-3 entry F          line   377 file /home/kchung25/anaconda3/envs/p415env/share/psi4/basis/aug-cc-pvtz.gbs 


         ---------------------------------------------------------
                                   SCF
               by Justin Turney, Rob Parrish, Andy Simmonett
                          and Daniel G. A. Smith
                              RHF Reference
                        6 Threads,  57220 MiB Core
         ---------------------------------------------------------

  ==> Geometry <==

    Molecular point group: c1
    Full point group: Cs

    Geometry (in Bohr), charge = -1, multiplicity = 1:

       Center              X                  Y                   Z               Mass       
    ------------   -----------------  -----------------  -----------------  -----------------
         K            0.000000000000     0.000000000000     0.000000000000    38.963706486400
         F            0.000000000000     4.110494473573     0.000000000000    18.998403162730
         F            6.165741710360     0.000000000000     0.000000000000    18.998403162730

  Running in c1 symmetry.

  Rotational constants: A =      0.18754  B =      0.08335  C =      0.05770 [cm^-1]
  Rotational constants: A =   5622.24409  B =   2498.77515  C =   1729.92126 [MHz]
  Nuclear repulsion =   80.265456629461497

  Charge       = -1
  Multiplicity = 1
  Electrons    = 38
  Nalpha       = 19
  Nbeta        = 19

  ==> Algorithm <==

  SCF Algorithm Type is DF.
  DIIS enabled.
  MOM disabled.
  Fractional occupation disabled.
  Guess Type is SAD.
  Energy threshold   = 1.00e-08
  Density threshold  = 1.00e-08
  Integral threshold = 1.00e-12

  ==> Primary Basis <==

  Basis Set: AUG-CC-PVTZ
    Blend: AUG-CC-PVTZ
    Number of shells: 47
    Number of basis functions: 151
    Number of Cartesian functions: 179
    Spherical Harmonics?: true
    Max angular momentum: 3

   => Loading Basis Set <=

    Name: (AUG-CC-PVTZ AUX)
    Role: JKFIT
    Keyword: DF_BASIS_SCF
    atoms 1   entry K          line  1152 file /home/kchung25/anaconda3/envs/p415env/share/psi4/basis/def2-universal-jkfit.gbs 
    atoms 2-3 entry F          line   348 file /home/kchung25/anaconda3/envs/p415env/share/psi4/basis/aug-cc-pvtz-jkfit.gbs 

  ==> Integral Setup <==

  DFHelper Memory: AOs need 0.066 GiB; user supplied 41.910 GiB. 
  Using in-core AOs.

  ==> MemDFJK: Density-Fitted J/K Matrices <==

    J tasked:                   Yes
    K tasked:                   Yes
    wK tasked:                   No
    OpenMP threads:               6
    Memory [MiB]:             42915
    Algorithm:                 Core
    Schwarz Cutoff:           1E-12
    Mask sparsity (%):       4.5700
    Fitting Condition:        1E-10

   => Auxiliary Basis Set <=

  Basis Set: (AUG-CC-PVTZ AUX)
    Blend: AUG-CC-PVTZ-JKFIT + DEF2-UNIVERSAL-JKFIT
    Number of shells: 104
    Number of basis functions: 368
    Number of Cartesian functions: 465
    Spherical Harmonics?: true
    Max angular momentum: 4

  Minimum eigenvalue in the overlap matrix is 4.5380950802E-04.
  Reciprocal condition number of the overlap matrix is 9.1626630067E-05.
    Using symmetric orthogonalization.

  ==> Pre-Iterations <==

  SCF Guess: Superposition of Atomic Densities via on-the-fly atomic UHF (no occupation information).

   -------------------------
    Irrep   Nso     Nmo    
   -------------------------
     A        151     151 
   -------------------------
    Total     151     151
   -------------------------

  ==> Iterations <==

                           Total Energy        Delta E     RMS |[F,P]|

   @DF-RHF iter SAD:  -796.77206028043997   -7.96772e+02   0.00000e+00 
   @DF-RHF iter   1:  -797.93351307280659   -1.16145e+00   5.18157e-03 DIIS/ADIIS
   @DF-RHF iter   2:  -798.02125786473334   -8.77448e-02   4.77592e-03 DIIS/ADIIS
   @DF-RHF iter   3:  -798.16189665006368   -1.40639e-01   1.53559e-04 DIIS/ADIIS
   @DF-RHF iter   4:  -798.16207492300100   -1.78273e-04   8.58527e-05 DIIS
   @DF-RHF iter   5:  -798.16211898933739   -4.40663e-05   2.19178e-05 DIIS
   @DF-RHF iter   6:  -798.16212310721482   -4.11788e-06   3.44832e-06 DIIS
   @DF-RHF iter   7:  -798.16212338830201   -2.81087e-07   1.04478e-06 DIIS
   @DF-RHF iter   8:  -798.16212342493714   -3.66351e-08   2.54717e-07 DIIS
   @DF-RHF iter   9:  -798.16212342742040   -2.48326e-09   4.16085e-08 DIIS
   @DF-RHF iter  10:  -798.16212342748679   -6.63931e-11   1.17567e-08 DIIS
   @DF-RHF iter  11:  -798.16212342749191   -5.11591e-12   3.13009e-09 DIIS
  Energy and wave function converged.


  ==> Post-Iterations <==

    Orbital Energies [Eh]
    ---------------------

    Doubly Occupied:                                                      

       1A   -133.329825     2A    -25.921515     3A    -25.862206  
       4A    -14.287250     5A    -11.317154     6A    -11.316971  
       7A    -11.316878     8A     -1.551358     9A     -1.184358  
      10A     -1.105161    11A     -0.764210    12A     -0.758688  
      13A     -0.754308    14A     -0.284753    15A     -0.281269  
      16A     -0.280807    17A     -0.211090    18A     -0.209843  
      19A     -0.209652  

    Virtual:                                                              

      20A      0.054827    21A      0.058066    22A      0.059476  
      23A      0.073634    24A      0.074639    25A      0.076531  
      26A      0.079228    27A      0.080692    28A      0.083258  
      29A      0.102750    30A      0.105241    31A      0.111357  
      32A      0.132943    33A      0.149571    34A      0.150686  
      35A      0.155597    36A      0.158896    37A      0.162304  
      38A      0.192241    39A      0.193779    40A      0.217586  
      41A      0.236827    42A      0.240754    43A      0.245798  
      44A      0.246244    45A      0.249082    46A      0.253208  
      47A      0.257063    48A      0.257778    49A      0.326290  
      50A      0.326442    51A      0.328076    52A      0.334346  
      53A      0.343983    54A      0.379245    55A      0.406194  
      56A      0.453400    57A      0.475668    58A      0.511582  
      59A      0.512707    60A      0.515115    61A      0.518605  
      62A      0.530706    63A      0.550596    64A      0.560686  
      65A      0.570748    66A      0.573694    67A      0.579077  
      68A      0.597394    69A      0.601735    70A      0.607863  
      71A      0.610250    72A      0.619985    73A      0.643823  
      74A      0.667456    75A      0.702192    76A      0.763644  
      77A      1.200370    78A      1.215961    79A      1.233096  
      80A      1.239626    81A      1.259091    82A      1.299547  
      83A      1.304897    84A      1.316680    85A      1.336588  
      86A      1.359269    87A      1.399178    88A      1.555529  
      89A      1.558002    90A      1.566524    91A      1.575644  
      92A      1.612698    93A      1.664627    94A      2.331558  
      95A      2.362922    96A      3.197723    97A      3.203681  
      98A      3.205648    99A      3.208940   100A      3.215612  
     101A      3.236108   102A      3.237676   103A      3.255521  
     104A      3.266389   105A      3.274448   106A      3.280497  
     107A      3.292537   108A      3.294750   109A      3.297196  
     110A      3.305575   111A      3.305769   112A      3.311067  
     113A      3.311498   114A      3.333687   115A      3.333886  
     116A      3.349226   117A      3.361187   118A      3.372814  
     119A      3.414119   120A      5.669786   121A      5.669904  
     122A      5.693475   123A      5.695432   124A      5.719073  
     125A      5.743720   126A      9.179586   127A      9.179897  
     128A      9.181163   129A      9.182360   130A      9.184553  
     131A      9.186380   132A      9.210261   133A      9.247781  
     134A      9.247887   135A      9.248668   136A      9.249285  
     137A      9.250211   138A      9.250310   139A      9.251958  
     140A      9.695705   141A      9.703964   142A      9.732169  
     143A      9.736180   144A      9.749451   145A      9.753764  
     146A      9.755766   147A      9.774307   148A      9.790981  
     149A      9.806539   150A     11.625773   151A     11.761942  

    Final Occupation by Irrep:
              A 
    DOCC [    19 ]
    NA   [    19 ]
    NB   [    19 ]

  @DF-RHF Final Energy:  -798.16212342749191

   => Energetics <=

    Nuclear Repulsion Energy =             80.2654566294614966
    One-Electron Energy =               -1274.9605651048689197
    Two-Electron Energy =                 396.5329850479154175
    Total Energy =                       -798.1621234274919061

Computation Completed


Properties will be evaluated at   0.000000,   0.000000,   0.000000 [a0]

Properties computed using the SCF density matrix


 Multipole Moments:

 ------------------------------------------------------------------------------------
     Multipole            Electronic (a.u.)      Nuclear  (a.u.)        Total (a.u.)
 ------------------------------------------------------------------------------------

 L = 1.  Multiply by 2.5417464519 to convert [e a0] to [Debye]
 Dipole X            :        -61.3312765           55.4916754           -5.8396011
 Dipole Y            :        -40.4876105           36.9944503           -3.4931603
 Dipole Z            :         -0.0000000            0.0000000           -0.0000000
 Magnitude           :                                                    6.8046388

 ------------------------------------------------------------------------------------

*** tstop() called on moses-razer at Wed Jan 24 05:27:32 2024
Module time:
	user time   =      12.92 seconds =       0.22 minutes
	system time =       2.59 seconds =       0.04 minutes
	total time  =          7 seconds =       0.12 minutes
Total time:
	user time   =     114.51 seconds =       1.91 minutes
	system time =      19.43 seconds =       0.32 minutes
	total time  =         65 seconds =       1.08 minutes

*** tstart() called on moses-razer
*** at Wed Jan 24 05:27:32 2024


  //>>>>>>>>>>>>>>>>>>>>>>>>>>>>>>>>>>>//
  //               DFMP2               //
  //<<<<<<<<<<<<<<<<<<<<<<<<<<<<<<<<<<<//

   => Loading Basis Set <=

    Name: (AUG-CC-PVTZ AUX)
    Role: RIFIT
    Keyword: DF_BASIS_MP2
    atoms 1   entry K          line  1282 file /home/kchung25/anaconda3/envs/p415env/share/psi4/basis/def2-qzvpp-ri.gbs 
    atoms 2-3 entry F          line   322 file /home/kchung25/anaconda3/envs/p415env/share/psi4/basis/aug-cc-pvtz-ri.gbs 

	 --------------------------------------------------------
	                          DF-MP2                         
	      2nd-Order Density-Fitted Moller-Plesset Theory     
	              RMP2 Wavefunction,   6 Threads             
	                                                         
	        Rob Parrish, Justin Turney, Andy Simmonett,      
	           Ed Hohenstein, and C. David Sherrill          
	 --------------------------------------------------------

   => Auxiliary Basis Set <=

  Basis Set: (AUG-CC-PVTZ AUX)
    Blend: AUG-CC-PVTZ-RI + DEF2-QZVPP-RI
    Number of shells: 105
    Number of basis functions: 411
    Number of Cartesian functions: 534
    Spherical Harmonics?: true
    Max angular momentum: 4

	 --------------------------------------------------------
	                 NBF =   151, NAUX =   411
	 --------------------------------------------------------
	   CLASS    FOCC     OCC    AOCC    AVIR     VIR    FVIR
	   PAIRS       0      19      19     132     132       0
	 --------------------------------------------------------

	-----------------------------------------------------------
	 ==================> DF-MP2 Energies <==================== 
	-----------------------------------------------------------
	 Reference Energy          =    -798.1621234274919061 [Eh]
	 Singles Energy            =      -0.0000000000000000 [Eh]
	 Same-Spin Energy          =      -0.1925062650984244 [Eh]
	 Opposite-Spin Energy      =      -0.5184656603990958 [Eh]
	 Correlation Energy        =      -0.7109719254975202 [Eh]
	 Total Energy              =    -798.8730953529894805 [Eh]
	-----------------------------------------------------------
	 ================> DF-SCS-MP2 Energies <================== 
	-----------------------------------------------------------
	 SCS Same-Spin Scale       =       0.3333333333333333 [-]
	 SCS Opposite-Spin Scale   =       1.2000000000000000 [-]
	 SCS Same-Spin Energy      =      -0.0641687550328081 [Eh]
	 SCS Opposite-Spin Energy  =      -0.6221587924789149 [Eh]
	 SCS Correlation Energy    =      -0.6863275475117230 [Eh]
	 SCS Total Energy          =    -798.8484509750036295 [Eh]
	-----------------------------------------------------------


*** tstop() called on moses-razer at Wed Jan 24 05:27:36 2024
Module time:
	user time   =       6.27 seconds =       0.10 minutes
	system time =       0.80 seconds =       0.01 minutes
	total time  =          4 seconds =       0.07 minutes
Total time:
	user time   =     120.78 seconds =       2.01 minutes
	system time =      20.23 seconds =       0.34 minutes
	total time  =         69 seconds =       1.15 minutes

    Psi4 stopped on: Wednesday, 24 January 2024 05:27AM
    Psi4 wall time for execution: 0:00:10.96


  //>>>>>>>>>>>>>>>>>>>>>>>>>>>>>>>>>>>//
  //          ManyBody Results         //
  //<<<<<<<<<<<<<<<<<<<<<<<<<<<<<<<<<<<//


   ==> N-Body: Counterpoise Corrected (CP) energies <==

        n-Body     Total Energy            Interaction Energy                          N-body Contribution to Interaction Energy
                   [Eh]                    [Eh]                  [kcal/mol]            [Eh]                  [kcal/mol]
             1  N/A                         0.000000000000        0.000000000000        0.000000000000        0.000000000000
             2  N/A                        -0.252612629495     -158.516818204068       -0.252612629495     -158.516818204068
  FULL/RTN   3  N/A                        -0.243242528966     -152.636991351839        0.009370100529        5.879826852229


    Psi4 stopped on: Wednesday, 24 January 2024 05:27AM
    Psi4 wall time for execution: 0:01:11.08

*** Psi4 exiting successfully. Buy a developer a beer!
