
    -----------------------------------------------------------------------
          Psi4: An Open-Source Ab Initio Electronic Structure Package
                               Psi4 1.9 release

                         Git: Rev {} zzzzzzz 


    D. G. A. Smith, L. A. Burns, A. C. Simmonett, R. M. Parrish,
    M. C. Schieber, R. Galvelis, P. Kraus, H. Kruse, R. Di Remigio,
    A. Alenaizan, A. M. James, S. Lehtola, J. P. Misiewicz, M. Scheurer,
    R. A. Shaw, J. B. Schriber, Y. Xie, Z. L. Glick, D. A. Sirianni,
    J. S. O'Brien, J. M. Waldrop, A. Kumar, E. G. Hohenstein,
    B. P. Pritchard, B. R. Brooks, H. F. Schaefer III, A. Yu. Sokolov,
    K. Patkowski, A. E. DePrince III, U. Bozkaya, R. A. King,
    F. A. Evangelista, J. M. Turney, T. D. Crawford, C. D. Sherrill,
    J. Chem. Phys. 152(18) 184108 (2020). https://doi.org/10.1063/5.0006002

                            Additional Code Authors
    E. T. Seidl, C. L. Janssen, E. F. Valeev, M. L. Leininger,
    J. F. Gonthier, R. M. Richard, H. R. McAlexander, M. Saitow, X. Wang,
    P. Verma, M. H. Lechner, A. Jiang, S. Behnle, A. G. Heide,
    M. F. Herbst, and D. L. Poole

             Previous Authors, Complete List of Code Contributors,
                       and Citations for Specific Modules
    https://github.com/psi4/psi4/blob/master/codemeta.json
    https://github.com/psi4/psi4/graphs/contributors
    http://psicode.org/psi4manual/master/introduction.html#citing-psifour

    -----------------------------------------------------------------------


    Psi4 started on: Wednesday, 03 January 2024 08:16PM

    Process ID: 436554
    Host:       moses-razer
    PSIDATADIR: /home/kchung25/anaconda3/envs/psi4_19/share/psi4
    Memory:     500.0 MiB
    Threads:    6
    
  ==> Input File <==

--------------------------------------------------------------------------
MEMORY 60 GB

molecule dimer {
0 1
K      0.000000     0.000000     0.000000
F      0.000000     2.175180     0.000000
--
-1 1
F      2.175180     0.000000     0.000000

units ang
no_reorient
no_com
symmetry c1
}

set {
basis        aug-cc-pVTZ
scf_type     df
}

energy("mp2", bsse_type="cp")
--------------------------------------------------------------------------

  Memory set to  55.879 GiB by Python driver.

Scratch directory: /scratch/

  //>>>>>>>>>>>>>>>>>>>>>>>>>>>>>>>>>>>>>//
  // ManyBody Setup: N-Body Levels [1, 2]//
  //<<<<<<<<<<<<<<<<<<<<<<<<<<<<<<<<<<<<<//

        Number of 1-body computations:     2
        Number of 2-body computations:     1

    -----------------------------------------------------------------------
          Psi4: An Open-Source Ab Initio Electronic Structure Package
                               Psi4 1.9 release

                         Git: Rev {} zzzzzzz 


    D. G. A. Smith, L. A. Burns, A. C. Simmonett, R. M. Parrish,
    M. C. Schieber, R. Galvelis, P. Kraus, H. Kruse, R. Di Remigio,
    A. Alenaizan, A. M. James, S. Lehtola, J. P. Misiewicz, M. Scheurer,
    R. A. Shaw, J. B. Schriber, Y. Xie, Z. L. Glick, D. A. Sirianni,
    J. S. O'Brien, J. M. Waldrop, A. Kumar, E. G. Hohenstein,
    B. P. Pritchard, B. R. Brooks, H. F. Schaefer III, A. Yu. Sokolov,
    K. Patkowski, A. E. DePrince III, U. Bozkaya, R. A. King,
    F. A. Evangelista, J. M. Turney, T. D. Crawford, C. D. Sherrill,
    J. Chem. Phys. 152(18) 184108 (2020). https://doi.org/10.1063/5.0006002

                            Additional Code Authors
    E. T. Seidl, C. L. Janssen, E. F. Valeev, M. L. Leininger,
    J. F. Gonthier, R. M. Richard, H. R. McAlexander, M. Saitow, X. Wang,
    P. Verma, M. H. Lechner, A. Jiang, S. Behnle, A. G. Heide,
    M. F. Herbst, and D. L. Poole

             Previous Authors, Complete List of Code Contributors,
                       and Citations for Specific Modules
    https://github.com/psi4/psi4/blob/master/codemeta.json
    https://github.com/psi4/psi4/graphs/contributors
    http://psicode.org/psi4manual/master/introduction.html#citing-psifour

    -----------------------------------------------------------------------


    Psi4 started on: Wednesday, 03 January 2024 08:16PM

    Process ID: 436554
    Host:       moses-razer
    PSIDATADIR: /home/kchung25/anaconda3/envs/psi4_19/share/psi4
    Memory:     55.9 GiB
    Threads:    6
    
  ==> Input QCSchema <==

--------------------------------------------------------------------------
{'driver': 'energy',
 'extras': {'psiapi': True, 'wfn_qcvars_only': True},
 'id': None,
 'keywords': {'SCF_TYPE': 'DF', 'function_kwargs': {}},
 'model': {'basis': 'aug-cc-pvtz', 'method': 'mp2'},
 'molecule': {'atom_labels': ['', '', ''],
              'atomic_numbers': [19, 9, 9],
              'extras': {},
              'fix_com': True,
              'fix_orientation': True,
              'fix_symmetry': 'c1',
              'fragment_charges': [0.0, -1.0],
              'fragment_multiplicities': [1, 1],
              'fragments': [[0, 1], [2]],
              'geometry': [0.0, 0.0, 0.0, 0.0, 4.110494473573358, 0.0, 4.110494473573358, 0.0, 0.0],
              'mass_numbers': [39, 19, 19],
              'masses': [38.9637064864, 18.99840316273, 18.99840316273],
              'molecular_charge': -1.0,
              'molecular_multiplicity': 1,
              'name': 'dimer',
              'provenance': {'creator': 'QCElemental',
                             'routine': 'qcelemental.molparse.from_string',
                             'version': '0.27.1'},
              'real': [False, False, True],
              'schema_name': 'qcschema_molecule',
              'schema_version': 2,
              'symbols': ['K', 'F', 'F'],
              'validated': True},
 'protocols': {'stdout': True},
 'provenance': {'creator': 'QCElemental', 'routine': 'qcelemental.models.results', 'version': '0.27.1'},
 'schema_name': 'qcschema_input',
 'schema_version': 1}
--------------------------------------------------------------------------

Scratch directory: /scratch/
   => Libint2 <=

    Primary   basis highest AM E, G, H:  5, 4, 3
    Auxiliary basis highest AM E, G, H:  6, 5, 4
    Onebody   basis highest AM E, G, H:  6, 5, 4
    Solid Harmonics ordering:            gaussian

*** tstart() called on moses-razer
*** at Wed Jan  3 20:16:07 2024

   => Loading Basis Set <=

    Name: AUG-CC-PVTZ
    Role: ORBITAL
    Keyword: BASIS
    atoms 1   entry K          line  1152 file /home/kchung25/anaconda3/envs/p415env/share/psi4/basis/aug-cc-pvtz.gbs 
    atoms 2-3 entry F          line   377 file /home/kchung25/anaconda3/envs/p415env/share/psi4/basis/aug-cc-pvtz.gbs 


         ---------------------------------------------------------
                                   SCF
               by Justin Turney, Rob Parrish, Andy Simmonett
                          and Daniel G. A. Smith
                              RHF Reference
                        6 Threads,  57220 MiB Core
         ---------------------------------------------------------

  ==> Geometry <==

    Molecular point group: c1
    Full point group: C1h

    Geometry (in Bohr), charge = -1, multiplicity = 1:

       Center              X                  Y                   Z               Mass       
    ------------   -----------------  -----------------  -----------------  -----------------
      Gh(K)           0.000000000000     0.000000000000     0.000000000000    38.963706486400
      Gh(F)           0.000000000000     4.110494473573     0.000000000000    18.998403162730
         F            4.110494473573     0.000000000000     0.000000000000    18.998403162730

  Running in c1 symmetry.

  Rotational constants: A =      0.18754  B =      0.18754  C =      0.09377 [cm^-1]
  Rotational constants: A =   5622.24409  B =   5622.24409  C =   2811.12205 [MHz]
  Nuclear repulsion =    0.000000000000000

  Charge       = -1
  Multiplicity = 1
  Electrons    = 10
  Nalpha       = 5
  Nbeta        = 5

  ==> Algorithm <==

  SCF Algorithm Type is DF.
  DIIS enabled.
  MOM disabled.
  Fractional occupation disabled.
  Guess Type is SAD.
  Energy threshold   = 1.00e-08
  Density threshold  = 1.00e-08
  Integral threshold = 1.00e-12

  ==> Primary Basis <==

  Basis Set: AUG-CC-PVTZ
    Blend: AUG-CC-PVTZ
    Number of shells: 47
    Number of basis functions: 151
    Number of Cartesian functions: 179
    Spherical Harmonics?: true
    Max angular momentum: 3

   => Loading Basis Set <=

    Name: (AUG-CC-PVTZ AUX)
    Role: JKFIT
    Keyword: DF_BASIS_SCF
    atoms 1   entry K          line  1152 file /home/kchung25/anaconda3/envs/p415env/share/psi4/basis/def2-universal-jkfit.gbs 
    atoms 2-3 entry F          line   348 file /home/kchung25/anaconda3/envs/p415env/share/psi4/basis/aug-cc-pvtz-jkfit.gbs 

  ==> Integral Setup <==

  DFHelper Memory: AOs need 0.068 GiB; user supplied 41.910 GiB. 
  Using in-core AOs.

  ==> MemDFJK: Density-Fitted J/K Matrices <==

    J tasked:                   Yes
    K tasked:                   Yes
    wK tasked:                   No
    OpenMP threads:               6
    Memory [MiB]:             42915
    Algorithm:                 Core
    Schwarz Cutoff:           1E-12
    Mask sparsity (%):       1.8157
    Fitting Condition:        1E-10

   => Auxiliary Basis Set <=

  Basis Set: (AUG-CC-PVTZ AUX)
    Blend: AUG-CC-PVTZ-JKFIT + DEF2-UNIVERSAL-JKFIT
    Number of shells: 104
    Number of basis functions: 368
    Number of Cartesian functions: 465
    Spherical Harmonics?: true
    Max angular momentum: 4

  Minimum eigenvalue in the overlap matrix is 4.0854597217E-04.
  Reciprocal condition number of the overlap matrix is 7.7875034153E-05.
    Using symmetric orthogonalization.

  ==> Pre-Iterations <==

  SCF Guess: Superposition of Atomic Densities via on-the-fly atomic UHF (no occupation information).

   -------------------------
    Irrep   Nso     Nmo    
   -------------------------
     A        151     151 
   -------------------------
    Total     151     151
   -------------------------

  ==> Iterations <==

                           Total Energy        Delta E     RMS |[F,P]|

   @DF-RHF iter SAD:   -98.82535133995387   -9.88254e+01   0.00000e+00 
   @DF-RHF iter   1:   -99.33784521255075   -5.12494e-01   3.61703e-03 ADIIS/DIIS
   @DF-RHF iter   2:   -99.37266455080982   -3.48193e-02   3.53356e-03 ADIIS/DIIS
   @DF-RHF iter   3:   -99.45077519784564   -7.81106e-02   1.08952e-04 ADIIS/DIIS
   @DF-RHF iter   4:   -99.45084172326239   -6.65254e-05   4.17053e-05 DIIS
   @DF-RHF iter   5:   -99.45085208432123   -1.03611e-05   2.82962e-06 DIIS
   @DF-RHF iter   6:   -99.45085219239110   -1.08070e-07   2.24334e-07 DIIS
   @DF-RHF iter   7:   -99.45085219317959   -7.88489e-10   2.81540e-08 DIIS
   @DF-RHF iter   8:   -99.45085219320215   -2.25668e-11   2.32107e-09 DIIS
  Energy and wave function converged.


  ==> Post-Iterations <==

    Orbital Energies [Eh]
    ---------------------

    Doubly Occupied:                                                      

       1A    -25.833891     2A     -1.076108     3A     -0.181058  
       4A     -0.181027     5A     -0.181025  

    Virtual:                                                              

       6A      0.060345     7A      0.061613     8A      0.061774  
       9A      0.074439    10A      0.075019    11A      0.077052  
      12A      0.077998    13A      0.078115    14A      0.084120  
      15A      0.115144    16A      0.117424    17A      0.118197  
      18A      0.145182    19A      0.155773    20A      0.156938  
      21A      0.164217    22A      0.164764    23A      0.168200  
      24A      0.209953    25A      0.222542    26A      0.226738  
      27A      0.250479    28A      0.250995    29A      0.251842  
      30A      0.255174    31A      0.256209    32A      0.262644  
      33A      0.265067    34A      0.265193    35A      0.333866  
      36A      0.374731    37A      0.380687    38A      0.383297  
      39A      0.386616    40A      0.389018    41A      0.422935  
      42A      0.439766    43A      0.454010    44A      0.466150  
      45A      0.477160    46A      0.506569    47A      0.557280  
      48A      0.559979    49A      0.600528    50A      0.616313  
      51A      0.629156    52A      0.633896    53A      0.634895  
      54A      0.642774    55A      0.657106    56A      0.672808  
      57A      0.759655    58A      0.806703    59A      1.046712  
      60A      1.053910    61A      1.054974    62A      1.099073  
      63A      1.182821    64A      1.214220    65A      1.223257  
      66A      1.249219    67A      1.256645    68A      1.319585  
      69A      1.323689    70A      1.334627    71A      1.340550  
      72A      1.499041    73A      1.607748    74A      1.611085  
      75A      1.645864    76A      2.051918    77A      2.053483  
      78A      2.238637    79A      2.334546    80A      2.357685  
      81A      2.405005    82A      2.413350    83A      2.552814  
      84A      2.608224    85A      2.978788    86A      3.245475  
      87A      3.253275    88A      3.260398    89A      3.261847  
      90A      3.265758    91A      3.268467    92A      3.274461  
      93A      3.311521    94A      3.316299    95A      3.328290  
      96A      3.336428    97A      3.340575    98A      3.343949  
      99A      3.356042   100A      3.365260   101A      3.380580  
     102A      3.397645   103A      3.459089   104A      3.485702  
     105A      3.529341   106A      3.569010   107A      3.655037  
     108A      3.778523   109A      3.780902   110A      3.826159  
     111A      3.909347   112A      3.945627   113A      4.040676  
     114A      5.772250   115A      5.778444   116A      5.880215  
     117A      9.277876   118A      9.279682   119A      9.284957  
     120A      9.287133   121A      9.296947   122A      9.298357  
     123A      9.336316   124A      9.794707   125A      9.800707  
     126A      9.827920   127A      9.854711   128A      9.863507  
     129A      9.917010   130A     10.328008   131A     10.329687  
     132A     10.336933   133A     10.343173   134A     10.349429  
     135A     10.357206   136A     10.395611   137A     10.480874  
     138A     11.972799   139A     13.148846   140A     13.157280  
     141A     13.204558   142A     13.207058   143A     13.229050  
     144A     14.471409   145A     14.478124   146A     14.555694  
     147A     30.467879   148A     30.941854   149A     30.978145  
     150A     68.295098   151A    197.950755  

    Final Occupation by Irrep:
              A 
    DOCC [     5 ]
    NA   [     5 ]
    NB   [     5 ]

  @DF-RHF Final Energy:   -99.45085219320215

   => Energetics <=

    Nuclear Repulsion Energy =              0.0000000000000000
    One-Electron Energy =                -143.9954850316023283
    Two-Electron Energy =                  44.5446328384001760
    Total Energy =                        -99.4508521932021523

Computation Completed


Properties will be evaluated at   0.000000,   0.000000,   0.000000 [a0]

Properties computed using the SCF density matrix


 Multipole Moments:

 ------------------------------------------------------------------------------------
     Multipole            Electronic (a.u.)      Nuclear  (a.u.)        Total (a.u.)
 ------------------------------------------------------------------------------------

 L = 1.  Multiply by 2.5417464519 to convert [e a0] to [Debye]
 Dipole X            :        -41.1048168           36.9944503           -4.1103666
 Dipole Y            :         -0.0000467            0.0000000           -0.0000467
 Dipole Z            :         -0.0000000            0.0000000           -0.0000000
 Magnitude           :                                                    4.1103666

 ------------------------------------------------------------------------------------

*** tstop() called on moses-razer at Wed Jan  3 20:16:11 2024
Module time:
	user time   =       9.00 seconds =       0.15 minutes
	system time =       1.32 seconds =       0.02 minutes
	total time  =          4 seconds =       0.07 minutes
Total time:
	user time   =       9.00 seconds =       0.15 minutes
	system time =       1.32 seconds =       0.02 minutes
	total time  =          4 seconds =       0.07 minutes

*** tstart() called on moses-razer
*** at Wed Jan  3 20:16:11 2024


  //>>>>>>>>>>>>>>>>>>>>>>>>>>>>>>>>>>>//
  //               DFMP2               //
  //<<<<<<<<<<<<<<<<<<<<<<<<<<<<<<<<<<<//

   => Loading Basis Set <=

    Name: (AUG-CC-PVTZ AUX)
    Role: RIFIT
    Keyword: DF_BASIS_MP2
    atoms 1   entry K          line  1282 file /home/kchung25/anaconda3/envs/p415env/share/psi4/basis/def2-qzvpp-ri.gbs 
    atoms 2-3 entry F          line   322 file /home/kchung25/anaconda3/envs/p415env/share/psi4/basis/aug-cc-pvtz-ri.gbs 

	 --------------------------------------------------------
	                          DF-MP2                         
	      2nd-Order Density-Fitted Moller-Plesset Theory     
	              RMP2 Wavefunction,   6 Threads             
	                                                         
	        Rob Parrish, Justin Turney, Andy Simmonett,      
	           Ed Hohenstein, and C. David Sherrill          
	 --------------------------------------------------------

   => Auxiliary Basis Set <=

  Basis Set: (AUG-CC-PVTZ AUX)
    Blend: AUG-CC-PVTZ-RI + DEF2-QZVPP-RI
    Number of shells: 105
    Number of basis functions: 411
    Number of Cartesian functions: 534
    Spherical Harmonics?: true
    Max angular momentum: 4

	 --------------------------------------------------------
	                 NBF =   151, NAUX =   411
	 --------------------------------------------------------
	   CLASS    FOCC     OCC    AOCC    AVIR     VIR    FVIR
	   PAIRS       0       5       5     146     146       0
	 --------------------------------------------------------

	-----------------------------------------------------------
	 ==================> DF-MP2 Energies <==================== 
	-----------------------------------------------------------
	 Reference Energy          =     -99.4508521932021523 [Eh]
	 Singles Energy            =      -0.0000000000000000 [Eh]
	 Same-Spin Energy          =      -0.0816527582429607 [Eh]
	 Opposite-Spin Energy      =      -0.2268537895369974 [Eh]
	 Correlation Energy        =      -0.3085065477799581 [Eh]
	 Total Energy              =     -99.7593587409821083 [Eh]
	-----------------------------------------------------------
	 ================> DF-SCS-MP2 Energies <================== 
	-----------------------------------------------------------
	 SCS Same-Spin Scale       =       0.3333333333333333 [-]
	 SCS Opposite-Spin Scale   =       1.2000000000000000 [-]
	 SCS Same-Spin Energy      =      -0.0272175860809869 [Eh]
	 SCS Opposite-Spin Energy  =      -0.2722245474443969 [Eh]
	 SCS Correlation Energy    =      -0.2994421335253838 [Eh]
	 SCS Total Energy          =     -99.7502943267275413 [Eh]
	-----------------------------------------------------------


*** tstop() called on moses-razer at Wed Jan  3 20:16:16 2024
Module time:
	user time   =       5.89 seconds =       0.10 minutes
	system time =       0.73 seconds =       0.01 minutes
	total time  =          5 seconds =       0.08 minutes
Total time:
	user time   =      14.89 seconds =       0.25 minutes
	system time =       2.05 seconds =       0.03 minutes
	total time  =          9 seconds =       0.15 minutes

    Psi4 stopped on: Wednesday, 03 January 2024 08:16PM
    Psi4 wall time for execution: 0:00:08.46


    -----------------------------------------------------------------------
          Psi4: An Open-Source Ab Initio Electronic Structure Package
                               Psi4 1.9 release

                         Git: Rev {} zzzzzzz 


    D. G. A. Smith, L. A. Burns, A. C. Simmonett, R. M. Parrish,
    M. C. Schieber, R. Galvelis, P. Kraus, H. Kruse, R. Di Remigio,
    A. Alenaizan, A. M. James, S. Lehtola, J. P. Misiewicz, M. Scheurer,
    R. A. Shaw, J. B. Schriber, Y. Xie, Z. L. Glick, D. A. Sirianni,
    J. S. O'Brien, J. M. Waldrop, A. Kumar, E. G. Hohenstein,
    B. P. Pritchard, B. R. Brooks, H. F. Schaefer III, A. Yu. Sokolov,
    K. Patkowski, A. E. DePrince III, U. Bozkaya, R. A. King,
    F. A. Evangelista, J. M. Turney, T. D. Crawford, C. D. Sherrill,
    J. Chem. Phys. 152(18) 184108 (2020). https://doi.org/10.1063/5.0006002

                            Additional Code Authors
    E. T. Seidl, C. L. Janssen, E. F. Valeev, M. L. Leininger,
    J. F. Gonthier, R. M. Richard, H. R. McAlexander, M. Saitow, X. Wang,
    P. Verma, M. H. Lechner, A. Jiang, S. Behnle, A. G. Heide,
    M. F. Herbst, and D. L. Poole

             Previous Authors, Complete List of Code Contributors,
                       and Citations for Specific Modules
    https://github.com/psi4/psi4/blob/master/codemeta.json
    https://github.com/psi4/psi4/graphs/contributors
    http://psicode.org/psi4manual/master/introduction.html#citing-psifour

    -----------------------------------------------------------------------


    Psi4 started on: Wednesday, 03 January 2024 08:16PM

    Process ID: 436554
    Host:       moses-razer
    PSIDATADIR: /home/kchung25/anaconda3/envs/psi4_19/share/psi4
    Memory:     55.9 GiB
    Threads:    6
    
  ==> Input QCSchema <==

--------------------------------------------------------------------------
{'driver': 'energy',
 'extras': {'psiapi': True, 'wfn_qcvars_only': True},
 'id': None,
 'keywords': {'SCF_TYPE': 'DF', 'function_kwargs': {}},
 'model': {'basis': 'aug-cc-pvtz', 'method': 'mp2'},
 'molecule': {'atom_labels': ['', '', ''],
              'atomic_numbers': [19, 9, 9],
              'extras': {},
              'fix_com': True,
              'fix_orientation': True,
              'fix_symmetry': 'c1',
              'fragment_charges': [0.0, 0.0],
              'fragment_multiplicities': [1, 1],
              'fragments': [[0, 1], [2]],
              'geometry': [0.0, 0.0, 0.0, 0.0, 4.110494473573358, 0.0, 4.110494473573358, 0.0, 0.0],
              'mass_numbers': [39, 19, 19],
              'masses': [38.9637064864, 18.99840316273, 18.99840316273],
              'molecular_charge': 0.0,
              'molecular_multiplicity': 1,
              'name': 'dimer',
              'provenance': {'creator': 'QCElemental',
                             'routine': 'qcelemental.molparse.from_string',
                             'version': '0.27.1'},
              'real': [True, True, False],
              'schema_name': 'qcschema_molecule',
              'schema_version': 2,
              'symbols': ['K', 'F', 'F'],
              'validated': True},
 'protocols': {'stdout': True},
 'provenance': {'creator': 'QCElemental', 'routine': 'qcelemental.models.results', 'version': '0.27.1'},
 'schema_name': 'qcschema_input',
 'schema_version': 1}
--------------------------------------------------------------------------

Scratch directory: /scratch/
   => Libint2 <=

    Primary   basis highest AM E, G, H:  5, 4, 3
    Auxiliary basis highest AM E, G, H:  6, 5, 4
    Onebody   basis highest AM E, G, H:  6, 5, 4
    Solid Harmonics ordering:            gaussian

*** tstart() called on moses-razer
*** at Wed Jan  3 20:16:16 2024

   => Loading Basis Set <=

    Name: AUG-CC-PVTZ
    Role: ORBITAL
    Keyword: BASIS
    atoms 1   entry K          line  1152 file /home/kchung25/anaconda3/envs/p415env/share/psi4/basis/aug-cc-pvtz.gbs 
    atoms 2-3 entry F          line   377 file /home/kchung25/anaconda3/envs/p415env/share/psi4/basis/aug-cc-pvtz.gbs 


         ---------------------------------------------------------
                                   SCF
               by Justin Turney, Rob Parrish, Andy Simmonett
                          and Daniel G. A. Smith
                              RHF Reference
                        6 Threads,  57220 MiB Core
         ---------------------------------------------------------

  ==> Geometry <==

    Molecular point group: c1
    Full point group: C1h

    Geometry (in Bohr), charge = 0, multiplicity = 1:

       Center              X                  Y                   Z               Mass       
    ------------   -----------------  -----------------  -----------------  -----------------
         K            0.000000000000     0.000000000000     0.000000000000    38.963706486400
         F            0.000000000000     4.110494473573     0.000000000000    18.998403162730
      Gh(F)           4.110494473573     0.000000000000     0.000000000000    18.998403162730

  Running in c1 symmetry.

  Rotational constants: A =      0.18754  B =      0.18754  C =      0.09377 [cm^-1]
  Rotational constants: A =   5622.24409  B =   5622.24409  C =   2811.12205 [MHz]
  Nuclear repulsion =   41.600834424999313

  Charge       = 0
  Multiplicity = 1
  Electrons    = 28
  Nalpha       = 14
  Nbeta        = 14

  ==> Algorithm <==

  SCF Algorithm Type is DF.
  DIIS enabled.
  MOM disabled.
  Fractional occupation disabled.
  Guess Type is SAD.
  Energy threshold   = 1.00e-08
  Density threshold  = 1.00e-08
  Integral threshold = 1.00e-12

  ==> Primary Basis <==

  Basis Set: AUG-CC-PVTZ
    Blend: AUG-CC-PVTZ
    Number of shells: 47
    Number of basis functions: 151
    Number of Cartesian functions: 179
    Spherical Harmonics?: true
    Max angular momentum: 3

   => Loading Basis Set <=

    Name: (AUG-CC-PVTZ AUX)
    Role: JKFIT
    Keyword: DF_BASIS_SCF
    atoms 1   entry K          line  1152 file /home/kchung25/anaconda3/envs/p415env/share/psi4/basis/def2-universal-jkfit.gbs 
    atoms 2-3 entry F          line   348 file /home/kchung25/anaconda3/envs/p415env/share/psi4/basis/aug-cc-pvtz-jkfit.gbs 

  ==> Integral Setup <==

  DFHelper Memory: AOs need 0.068 GiB; user supplied 41.910 GiB. 
  Using in-core AOs.

  ==> MemDFJK: Density-Fitted J/K Matrices <==

    J tasked:                   Yes
    K tasked:                   Yes
    wK tasked:                   No
    OpenMP threads:               6
    Memory [MiB]:             42915
    Algorithm:                 Core
    Schwarz Cutoff:           1E-12
    Mask sparsity (%):       1.8157
    Fitting Condition:        1E-10

   => Auxiliary Basis Set <=

  Basis Set: (AUG-CC-PVTZ AUX)
    Blend: AUG-CC-PVTZ-JKFIT + DEF2-UNIVERSAL-JKFIT
    Number of shells: 104
    Number of basis functions: 368
    Number of Cartesian functions: 465
    Spherical Harmonics?: true
    Max angular momentum: 4

  Minimum eigenvalue in the overlap matrix is 4.0854597217E-04.
  Reciprocal condition number of the overlap matrix is 7.7875034153E-05.
    Using symmetric orthogonalization.

  ==> Pre-Iterations <==

  SCF Guess: Superposition of Atomic Densities via on-the-fly atomic UHF (no occupation information).

   -------------------------
    Irrep   Nso     Nmo    
   -------------------------
     A        151     151 
   -------------------------
    Total     151     151
   -------------------------

  ==> Iterations <==

                           Total Energy        Delta E     RMS |[F,P]|

   @DF-RHF iter SAD:  -697.93922056751228   -6.97939e+02   0.00000e+00 
   @DF-RHF iter   1:  -698.56766116644542   -6.28441e-01   3.72736e-03 ADIIS/DIIS
   @DF-RHF iter   2:  -698.61824248890923   -5.05813e-02   3.28719e-03 ADIIS/DIIS
   @DF-RHF iter   3:  -698.68415519885025   -6.59127e-02   1.04346e-04 ADIIS/DIIS
   @DF-RHF iter   4:  -698.68426534596063   -1.10147e-04   2.75268e-05 DIIS
   @DF-RHF iter   5:  -698.68427368904770   -8.34309e-06   5.06765e-06 DIIS
   @DF-RHF iter   6:  -698.68427426868243   -5.79635e-07   1.45433e-06 DIIS
   @DF-RHF iter   7:  -698.68427432959288   -6.09105e-08   3.19219e-07 DIIS
   @DF-RHF iter   8:  -698.68427433273575   -3.14287e-09   4.03406e-08 DIIS
   @DF-RHF iter   9:  -698.68427433277964   -4.38831e-11   9.23062e-09 DIIS
  Energy and wave function converged.


  ==> Post-Iterations <==

    Orbital Energies [Eh]
    ---------------------

    Doubly Occupied:                                                      

       1A   -133.491123     2A    -26.057423     3A    -14.448309  
       4A    -11.478196     5A    -11.478187     6A    -11.477904  
       7A     -1.711875     8A     -1.320702     9A     -0.923172  
      10A     -0.922913    11A     -0.912332    12A     -0.421165  
      13A     -0.416900    14A     -0.416893  

    Virtual:                                                              

      15A     -0.008617    16A      0.005647    17A      0.005653  
      18A      0.009597    19A      0.017860    20A      0.017968  
      21A      0.019276    22A      0.021450    23A      0.021507  
      24A      0.026382    25A      0.026476    26A      0.026790  
      27A      0.038166    28A      0.056055    29A      0.056655  
      30A      0.064951    31A      0.065177    32A      0.067711  
      33A      0.084819    34A      0.086021    35A      0.087789  
      36A      0.112386    37A      0.130156    38A      0.130536  
      39A      0.134920    40A      0.136943    41A      0.137282  
      42A      0.141068    43A      0.141608    44A      0.167419  
      45A      0.175264    46A      0.198352    47A      0.200719  
      48A      0.206382    49A      0.241562    50A      0.251070  
      51A      0.266708    52A      0.274096    53A      0.305908  
      54A      0.310352    55A      0.338013    56A      0.389745  
      57A      0.401517    58A      0.404167    59A      0.413307  
      60A      0.416004    61A      0.421080    62A      0.421169  
      63A      0.429905    64A      0.432540    65A      0.436716  
      66A      0.444686    67A      0.457473    68A      0.465736  
      69A      0.474414    70A      0.554143    71A      0.625701  
      72A      0.873386    73A      0.877676    74A      0.886543  
      75A      0.940246    76A      0.999957    77A      1.008724  
      78A      1.071817    79A      1.097854    80A      1.107901  
      81A      1.135508    82A      1.157973    83A      1.199910  
      84A      1.207382    85A      1.284959    86A      1.320076  
      87A      1.427650    88A      1.435188    89A      1.527934  
      90A      2.253388    91A      2.988987    92A      3.017438  
      93A      3.020914    94A      3.021914    95A      3.028481  
      96A      3.031796    97A      3.032209    98A      3.038929  
      99A      3.051690   100A      3.070172   101A      3.071883  
     102A      3.075601   103A      3.079159   104A      3.092604  
     105A      3.102675   106A      3.105637   107A      3.140425  
     108A      3.151454   109A      3.164573   110A      3.204726  
     111A      3.249644   112A      3.268214   113A      3.338278  
     114A      3.552865   115A      3.572844   116A      3.632170  
     117A      3.646235   118A      3.714811   119A      5.535561  
     120A      5.541308   121A      5.603714   122A      9.044487  
     123A      9.045579   124A      9.045645   125A      9.047825  
     126A      9.049188   127A      9.051137   128A      9.081258  
     129A      9.564439   130A      9.570878   131A      9.611856  
     132A      9.616572   133A      9.626558   134A      9.693369  
     135A     10.096522   136A     10.097671   137A     10.099473  
     138A     10.103498   139A     10.103618   140A     10.113907  
     141A     10.145095   142A     11.716161   143A     12.915129  
     144A     12.923363   145A     12.964397   146A     12.967044  
     147A     12.990134   148A     14.234673   149A     14.241206  
     150A     14.311686   151A     68.055771  

    Final Occupation by Irrep:
              A 
    DOCC [    14 ]
    NA   [    14 ]
    NB   [    14 ]

  @DF-RHF Final Energy:  -698.68427433277964

   => Energetics <=

    Nuclear Repulsion Energy =             41.6008344249993129
    One-Electron Energy =               -1049.6160360017465791
    Two-Electron Energy =                 309.3309272439675510
    Total Energy =                       -698.6842743327797507

Computation Completed


Properties will be evaluated at   0.000000,   0.000000,   0.000000 [a0]

Properties computed using the SCF density matrix


 Multipole Moments:

 ------------------------------------------------------------------------------------
     Multipole            Electronic (a.u.)      Nuclear  (a.u.)        Total (a.u.)
 ------------------------------------------------------------------------------------

 L = 1.  Multiply by 2.5417464519 to convert [e a0] to [Debye]
 Dipole X            :         -0.0015784            0.0000000           -0.0015784
 Dipole Y            :        -40.4779767           36.9944503           -3.4835264
 Dipole Z            :         -0.0000000            0.0000000           -0.0000000
 Magnitude           :                                                    3.4835267

 ------------------------------------------------------------------------------------

*** tstop() called on moses-razer at Wed Jan  3 20:16:22 2024
Module time:
	user time   =      12.34 seconds =       0.21 minutes
	system time =       2.57 seconds =       0.04 minutes
	total time  =          6 seconds =       0.10 minutes
Total time:
	user time   =      27.48 seconds =       0.46 minutes
	system time =       4.63 seconds =       0.08 minutes
	total time  =         15 seconds =       0.25 minutes

*** tstart() called on moses-razer
*** at Wed Jan  3 20:16:22 2024


  //>>>>>>>>>>>>>>>>>>>>>>>>>>>>>>>>>>>//
  //               DFMP2               //
  //<<<<<<<<<<<<<<<<<<<<<<<<<<<<<<<<<<<//

   => Loading Basis Set <=

    Name: (AUG-CC-PVTZ AUX)
    Role: RIFIT
    Keyword: DF_BASIS_MP2
    atoms 1   entry K          line  1282 file /home/kchung25/anaconda3/envs/p415env/share/psi4/basis/def2-qzvpp-ri.gbs 
    atoms 2-3 entry F          line   322 file /home/kchung25/anaconda3/envs/p415env/share/psi4/basis/aug-cc-pvtz-ri.gbs 

	 --------------------------------------------------------
	                          DF-MP2                         
	      2nd-Order Density-Fitted Moller-Plesset Theory     
	              RMP2 Wavefunction,   6 Threads             
	                                                         
	        Rob Parrish, Justin Turney, Andy Simmonett,      
	           Ed Hohenstein, and C. David Sherrill          
	 --------------------------------------------------------

   => Auxiliary Basis Set <=

  Basis Set: (AUG-CC-PVTZ AUX)
    Blend: AUG-CC-PVTZ-RI + DEF2-QZVPP-RI
    Number of shells: 105
    Number of basis functions: 411
    Number of Cartesian functions: 534
    Spherical Harmonics?: true
    Max angular momentum: 4

	 --------------------------------------------------------
	                 NBF =   151, NAUX =   411
	 --------------------------------------------------------
	   CLASS    FOCC     OCC    AOCC    AVIR     VIR    FVIR
	   PAIRS       0      14      14     137     137       0
	 --------------------------------------------------------

	-----------------------------------------------------------
	 ==================> DF-MP2 Energies <==================== 
	-----------------------------------------------------------
	 Reference Energy          =    -698.6842743327796370 [Eh]
	 Singles Energy            =      -0.0000000000000000 [Eh]
	 Same-Spin Energy          =      -0.1128841026403900 [Eh]
	 Opposite-Spin Energy      =      -0.2980846064491402 [Eh]
	 Correlation Energy        =      -0.4109687090895302 [Eh]
	 Total Energy              =    -699.0952430418691392 [Eh]
	-----------------------------------------------------------
	 ================> DF-SCS-MP2 Energies <================== 
	-----------------------------------------------------------
	 SCS Same-Spin Scale       =       0.3333333333333333 [-]
	 SCS Opposite-Spin Scale   =       1.2000000000000000 [-]
	 SCS Same-Spin Energy      =      -0.0376280342134633 [Eh]
	 SCS Opposite-Spin Energy  =      -0.3577015277389682 [Eh]
	 SCS Correlation Energy    =      -0.3953295619524316 [Eh]
	 SCS Total Energy          =    -699.0796038947320312 [Eh]
	-----------------------------------------------------------


*** tstop() called on moses-razer at Wed Jan  3 20:16:26 2024
Module time:
	user time   =       5.99 seconds =       0.10 minutes
	system time =       0.70 seconds =       0.01 minutes
	total time  =          4 seconds =       0.07 minutes
Total time:
	user time   =      33.47 seconds =       0.56 minutes
	system time =       5.33 seconds =       0.09 minutes
	total time  =         19 seconds =       0.32 minutes

    Psi4 stopped on: Wednesday, 03 January 2024 08:16PM
    Psi4 wall time for execution: 0:00:10.64


    -----------------------------------------------------------------------
          Psi4: An Open-Source Ab Initio Electronic Structure Package
                               Psi4 1.9 release

                         Git: Rev {} zzzzzzz 


    D. G. A. Smith, L. A. Burns, A. C. Simmonett, R. M. Parrish,
    M. C. Schieber, R. Galvelis, P. Kraus, H. Kruse, R. Di Remigio,
    A. Alenaizan, A. M. James, S. Lehtola, J. P. Misiewicz, M. Scheurer,
    R. A. Shaw, J. B. Schriber, Y. Xie, Z. L. Glick, D. A. Sirianni,
    J. S. O'Brien, J. M. Waldrop, A. Kumar, E. G. Hohenstein,
    B. P. Pritchard, B. R. Brooks, H. F. Schaefer III, A. Yu. Sokolov,
    K. Patkowski, A. E. DePrince III, U. Bozkaya, R. A. King,
    F. A. Evangelista, J. M. Turney, T. D. Crawford, C. D. Sherrill,
    J. Chem. Phys. 152(18) 184108 (2020). https://doi.org/10.1063/5.0006002

                            Additional Code Authors
    E. T. Seidl, C. L. Janssen, E. F. Valeev, M. L. Leininger,
    J. F. Gonthier, R. M. Richard, H. R. McAlexander, M. Saitow, X. Wang,
    P. Verma, M. H. Lechner, A. Jiang, S. Behnle, A. G. Heide,
    M. F. Herbst, and D. L. Poole

             Previous Authors, Complete List of Code Contributors,
                       and Citations for Specific Modules
    https://github.com/psi4/psi4/blob/master/codemeta.json
    https://github.com/psi4/psi4/graphs/contributors
    http://psicode.org/psi4manual/master/introduction.html#citing-psifour

    -----------------------------------------------------------------------


    Psi4 started on: Wednesday, 03 January 2024 08:16PM

    Process ID: 436554
    Host:       moses-razer
    PSIDATADIR: /home/kchung25/anaconda3/envs/psi4_19/share/psi4
    Memory:     55.9 GiB
    Threads:    6
    
  ==> Input QCSchema <==

--------------------------------------------------------------------------
{'driver': 'energy',
 'extras': {'psiapi': True, 'wfn_qcvars_only': True},
 'id': None,
 'keywords': {'SCF_TYPE': 'DF', 'function_kwargs': {}},
 'model': {'basis': 'aug-cc-pvtz', 'method': 'mp2'},
 'molecule': {'atom_labels': ['', '', ''],
              'atomic_numbers': [19, 9, 9],
              'extras': {},
              'fix_com': True,
              'fix_orientation': True,
              'fix_symmetry': 'c1',
              'fragment_charges': [0.0, -1.0],
              'fragment_multiplicities': [1, 1],
              'fragments': [[0, 1], [2]],
              'geometry': [0.0, 0.0, 0.0, 0.0, 4.110494473573358, 0.0, 4.110494473573358, 0.0, 0.0],
              'mass_numbers': [39, 19, 19],
              'masses': [38.9637064864, 18.99840316273, 18.99840316273],
              'molecular_charge': -1.0,
              'molecular_multiplicity': 1,
              'name': 'dimer',
              'provenance': {'creator': 'QCElemental',
                             'routine': 'qcelemental.molparse.from_string',
                             'version': '0.27.1'},
              'real': [True, True, True],
              'schema_name': 'qcschema_molecule',
              'schema_version': 2,
              'symbols': ['K', 'F', 'F'],
              'validated': True},
 'protocols': {'stdout': True},
 'provenance': {'creator': 'QCElemental', 'routine': 'qcelemental.models.results', 'version': '0.27.1'},
 'schema_name': 'qcschema_input',
 'schema_version': 1}
--------------------------------------------------------------------------

Scratch directory: /scratch/
   => Libint2 <=

    Primary   basis highest AM E, G, H:  5, 4, 3
    Auxiliary basis highest AM E, G, H:  6, 5, 4
    Onebody   basis highest AM E, G, H:  6, 5, 4
    Solid Harmonics ordering:            gaussian

*** tstart() called on moses-razer
*** at Wed Jan  3 20:16:26 2024

   => Loading Basis Set <=

    Name: AUG-CC-PVTZ
    Role: ORBITAL
    Keyword: BASIS
    atoms 1   entry K          line  1152 file /home/kchung25/anaconda3/envs/p415env/share/psi4/basis/aug-cc-pvtz.gbs 
    atoms 2-3 entry F          line   377 file /home/kchung25/anaconda3/envs/p415env/share/psi4/basis/aug-cc-pvtz.gbs 


         ---------------------------------------------------------
                                   SCF
               by Justin Turney, Rob Parrish, Andy Simmonett
                          and Daniel G. A. Smith
                              RHF Reference
                        6 Threads,  57220 MiB Core
         ---------------------------------------------------------

  ==> Geometry <==

    Molecular point group: c1
    Full point group: D1

    Geometry (in Bohr), charge = -1, multiplicity = 1:

       Center              X                  Y                   Z               Mass       
    ------------   -----------------  -----------------  -----------------  -----------------
         K            0.000000000000     0.000000000000     0.000000000000    38.963706486400
         F            0.000000000000     4.110494473573     0.000000000000    18.998403162730
         F            4.110494473573     0.000000000000     0.000000000000    18.998403162730

  Running in c1 symmetry.

  Rotational constants: A =      0.18754  B =      0.18754  C =      0.09377 [cm^-1]
  Rotational constants: A =   5622.24409  B =   5622.24409  C =   2811.12205 [MHz]
  Nuclear repulsion =   97.135673540757679

  Charge       = -1
  Multiplicity = 1
  Electrons    = 38
  Nalpha       = 19
  Nbeta        = 19

  ==> Algorithm <==

  SCF Algorithm Type is DF.
  DIIS enabled.
  MOM disabled.
  Fractional occupation disabled.
  Guess Type is SAD.
  Energy threshold   = 1.00e-08
  Density threshold  = 1.00e-08
  Integral threshold = 1.00e-12

  ==> Primary Basis <==

  Basis Set: AUG-CC-PVTZ
    Blend: AUG-CC-PVTZ
    Number of shells: 47
    Number of basis functions: 151
    Number of Cartesian functions: 179
    Spherical Harmonics?: true
    Max angular momentum: 3

   => Loading Basis Set <=

    Name: (AUG-CC-PVTZ AUX)
    Role: JKFIT
    Keyword: DF_BASIS_SCF
    atoms 1   entry K          line  1152 file /home/kchung25/anaconda3/envs/p415env/share/psi4/basis/def2-universal-jkfit.gbs 
    atoms 2-3 entry F          line   348 file /home/kchung25/anaconda3/envs/p415env/share/psi4/basis/aug-cc-pvtz-jkfit.gbs 

  ==> Integral Setup <==

  DFHelper Memory: AOs need 0.068 GiB; user supplied 41.910 GiB. 
  Using in-core AOs.

  ==> MemDFJK: Density-Fitted J/K Matrices <==

    J tasked:                   Yes
    K tasked:                   Yes
    wK tasked:                   No
    OpenMP threads:               6
    Memory [MiB]:             42915
    Algorithm:                 Core
    Schwarz Cutoff:           1E-12
    Mask sparsity (%):       1.8157
    Fitting Condition:        1E-10

   => Auxiliary Basis Set <=

  Basis Set: (AUG-CC-PVTZ AUX)
    Blend: AUG-CC-PVTZ-JKFIT + DEF2-UNIVERSAL-JKFIT
    Number of shells: 104
    Number of basis functions: 368
    Number of Cartesian functions: 465
    Spherical Harmonics?: true
    Max angular momentum: 4

  Minimum eigenvalue in the overlap matrix is 4.0854597217E-04.
  Reciprocal condition number of the overlap matrix is 7.7875034153E-05.
    Using symmetric orthogonalization.

  ==> Pre-Iterations <==

  SCF Guess: Superposition of Atomic Densities via on-the-fly atomic UHF (no occupation information).

   -------------------------
    Irrep   Nso     Nmo    
   -------------------------
     A        151     151 
   -------------------------
    Total     151     151
   -------------------------

  ==> Iterations <==

                           Total Energy        Delta E     RMS |[F,P]|

   @DF-RHF iter SAD:  -796.82717409532620   -7.96827e+02   0.00000e+00 
   @DF-RHF iter   1:  -797.93921829448902   -1.11204e+00   5.27152e-03 ADIIS/DIIS
   @DF-RHF iter   2:  -798.03781286048684   -9.85946e-02   4.69036e-03 ADIIS/DIIS
   @DF-RHF iter   3:  -798.17304811171698   -1.35235e-01   1.31219e-04 ADIIS/DIIS
   @DF-RHF iter   4:  -798.17324466988771   -1.96558e-04   4.37070e-05 DIIS
   @DF-RHF iter   5:  -798.17326277796360   -1.81081e-05   7.27067e-06 DIIS
   @DF-RHF iter   6:  -798.17326404433641   -1.26637e-06   2.24161e-06 DIIS
   @DF-RHF iter   7:  -798.17326419168444   -1.47348e-07   5.03155e-07 DIIS
   @DF-RHF iter   8:  -798.17326420014376   -8.45932e-09   7.98383e-08 DIIS
   @DF-RHF iter   9:  -798.17326420035920   -2.15437e-10   2.66290e-08 DIIS
   @DF-RHF iter  10:  -798.17326420037125   -1.20508e-11   1.21995e-08 DIIS
   @DF-RHF iter  11:  -798.17326420037284   -1.59162e-12   2.04752e-09 DIIS
  Energy and wave function converged.


  ==> Post-Iterations <==

    Orbital Energies [Eh]
    ---------------------

    Doubly Occupied:                                                      

       1A   -133.244391     2A    -25.885875     3A    -25.885873  
       4A    -14.203636     5A    -11.233303     6A    -11.233090  
       7A    -11.232991     8A     -1.475724     9A     -1.148572  
      10A     -1.147358    11A     -0.690463    12A     -0.682188  
      13A     -0.681593    14A     -0.253516    15A     -0.247457  
      16A     -0.247293    17A     -0.246927    18A     -0.244467  
      19A     -0.236805  

    Virtual:                                                              

      20A      0.057922    21A      0.060333    22A      0.061167  
      23A      0.074971    24A      0.075479    25A      0.077872  
      26A      0.077950    27A      0.078746    28A      0.082903  
      29A      0.107912    30A      0.112509    31A      0.115578  
      32A      0.143870    33A      0.156937    34A      0.158201  
      35A      0.158974    36A      0.162693    37A      0.162967  
      38A      0.200024    39A      0.211135    40A      0.214909  
      41A      0.247299    42A      0.247438    43A      0.247681  
      44A      0.252086    45A      0.254360    46A      0.256175  
      47A      0.263401    48A      0.281850    49A      0.348360  
      50A      0.351398    51A      0.352776    52A      0.359336  
      53A      0.360609    54A      0.416754    55A      0.417015  
      56A      0.448751    57A      0.530562    58A      0.533273  
      59A      0.533690    60A      0.534246    61A      0.558019  
      62A      0.558338    63A      0.575806    64A      0.579141  
      65A      0.592032    66A      0.605454    67A      0.608476  
      68A      0.612077    69A      0.632143    70A      0.664361  
      71A      0.666085    72A      0.666695    73A      0.693642  
      74A      0.718670    75A      0.764425    76A      0.870281  
      77A      1.217051    78A      1.241498    79A      1.269171  
      80A      1.278007    81A      1.302040    82A      1.361516  
      83A      1.365320    84A      1.370828    85A      1.395355  
      86A      1.436639    87A      1.486113    88A      1.587545  
      89A      1.597633    90A      1.597883    91A      1.607606  
      92A      1.652122    93A      1.742398    94A      2.405067  
      95A      2.449527    96A      3.207931    97A      3.223170  
      98A      3.229445    99A      3.235942   100A      3.237656  
     101A      3.239913   102A      3.244291   103A      3.247253  
     104A      3.247342   105A      3.253841   106A      3.268209  
     107A      3.271452   108A      3.273831   109A      3.278452  
     110A      3.290257   111A      3.308695   112A      3.314341  
     113A      3.335818   114A      3.364842   115A      3.367569  
     116A      3.382033   117A      3.434552   118A      3.452071  
     119A      3.546882   120A      5.698735   121A      5.704085  
     122A      5.706492   123A      5.717375   124A      5.744317  
     125A      5.812016   126A      9.208683   127A      9.210251  
     128A      9.210578   129A      9.213964   130A      9.215750  
     131A      9.216553   132A      9.216984   133A      9.217822  
     134A      9.220133   135A      9.226865   136A      9.229252  
     137A      9.232143   138A      9.251019   139A      9.260083  
     140A      9.717896   141A      9.729476   142A      9.741761  
     143A      9.760427   144A      9.764181   145A      9.781437  
     146A      9.782314   147A      9.793042   148A      9.802790  
     149A      9.877254   150A     11.798361   151A     11.977328  

    Final Occupation by Irrep:
              A 
    DOCC [    19 ]
    NA   [    19 ]
    NB   [    19 ]

  @DF-RHF Final Energy:  -798.17326420037284

   => Energetics <=

    Nuclear Repulsion Energy =             97.1356735407576792
    One-Electron Energy =               -1310.1748294304179581
    Two-Electron Energy =                 414.8658916892874799
    Total Energy =                       -798.1732642003728415

Computation Completed


Properties will be evaluated at   0.000000,   0.000000,   0.000000 [a0]

Properties computed using the SCF density matrix


 Multipole Moments:

 ------------------------------------------------------------------------------------
     Multipole            Electronic (a.u.)      Nuclear  (a.u.)        Total (a.u.)
 ------------------------------------------------------------------------------------

 L = 1.  Multiply by 2.5417464519 to convert [e a0] to [Debye]
 Dipole X            :        -40.5243304           36.9944503           -3.5298802
 Dipole Y            :        -40.5243304           36.9944503           -3.5298802
 Dipole Z            :         -0.0000000            0.0000000           -0.0000000
 Magnitude           :                                                    4.9920044

 ------------------------------------------------------------------------------------

*** tstop() called on moses-razer at Wed Jan  3 20:16:33 2024
Module time:
	user time   =      12.73 seconds =       0.21 minutes
	system time =       2.46 seconds =       0.04 minutes
	total time  =          7 seconds =       0.12 minutes
Total time:
	user time   =      46.48 seconds =       0.77 minutes
	system time =       7.79 seconds =       0.13 minutes
	total time  =         26 seconds =       0.43 minutes

*** tstart() called on moses-razer
*** at Wed Jan  3 20:16:33 2024


  //>>>>>>>>>>>>>>>>>>>>>>>>>>>>>>>>>>>//
  //               DFMP2               //
  //<<<<<<<<<<<<<<<<<<<<<<<<<<<<<<<<<<<//

   => Loading Basis Set <=

    Name: (AUG-CC-PVTZ AUX)
    Role: RIFIT
    Keyword: DF_BASIS_MP2
    atoms 1   entry K          line  1282 file /home/kchung25/anaconda3/envs/p415env/share/psi4/basis/def2-qzvpp-ri.gbs 
    atoms 2-3 entry F          line   322 file /home/kchung25/anaconda3/envs/p415env/share/psi4/basis/aug-cc-pvtz-ri.gbs 

	 --------------------------------------------------------
	                          DF-MP2                         
	      2nd-Order Density-Fitted Moller-Plesset Theory     
	              RMP2 Wavefunction,   6 Threads             
	                                                         
	        Rob Parrish, Justin Turney, Andy Simmonett,      
	           Ed Hohenstein, and C. David Sherrill          
	 --------------------------------------------------------

   => Auxiliary Basis Set <=

  Basis Set: (AUG-CC-PVTZ AUX)
    Blend: AUG-CC-PVTZ-RI + DEF2-QZVPP-RI
    Number of shells: 105
    Number of basis functions: 411
    Number of Cartesian functions: 534
    Spherical Harmonics?: true
    Max angular momentum: 4

	 --------------------------------------------------------
	                 NBF =   151, NAUX =   411
	 --------------------------------------------------------
	   CLASS    FOCC     OCC    AOCC    AVIR     VIR    FVIR
	   PAIRS       0      19      19     132     132       0
	 --------------------------------------------------------

	-----------------------------------------------------------
	 ==================> DF-MP2 Energies <==================== 
	-----------------------------------------------------------
	 Reference Energy          =    -798.1732642003728415 [Eh]
	 Singles Energy            =      -0.0000000000000000 [Eh]
	 Same-Spin Energy          =      -0.1959016192073327 [Eh]
	 Opposite-Spin Energy      =      -0.5243395193524549 [Eh]
	 Correlation Energy        =      -0.7202411385597876 [Eh]
	 Total Energy              =    -798.8935053389326413 [Eh]
	-----------------------------------------------------------
	 ================> DF-SCS-MP2 Energies <================== 
	-----------------------------------------------------------
	 SCS Same-Spin Scale       =       0.3333333333333333 [-]
	 SCS Opposite-Spin Scale   =       1.2000000000000000 [-]
	 SCS Same-Spin Energy      =      -0.0653005397357776 [Eh]
	 SCS Opposite-Spin Energy  =      -0.6292074232229459 [Eh]
	 SCS Correlation Energy    =      -0.6945079629587234 [Eh]
	 SCS Total Energy          =    -798.8677721633315514 [Eh]
	-----------------------------------------------------------


*** tstop() called on moses-razer at Wed Jan  3 20:16:37 2024
Module time:
	user time   =       6.05 seconds =       0.10 minutes
	system time =       0.71 seconds =       0.01 minutes
	total time  =          4 seconds =       0.07 minutes
Total time:
	user time   =      52.53 seconds =       0.88 minutes
	system time =       8.50 seconds =       0.14 minutes
	total time  =         30 seconds =       0.50 minutes

    Psi4 stopped on: Wednesday, 03 January 2024 08:16PM
    Psi4 wall time for execution: 0:00:10.61


  //>>>>>>>>>>>>>>>>>>>>>>>>>>>>>>>>>>>//
  //          ManyBody Results         //
  //<<<<<<<<<<<<<<<<<<<<<<<<<<<<<<<<<<<//


   ==> N-Body: Counterpoise Corrected (CP) energies <==

        n-Body     Total Energy            Interaction Energy                          N-body Contribution to Interaction Energy
                   [Eh]                    [Eh]                  [kcal/mol]            [Eh]                  [kcal/mol]
             1  N/A                         0.000000000000        0.000000000000        0.000000000000        0.000000000000
  FULL/RTN   2  N/A                        -0.038903556081      -24.412350004737       -0.038903556081      -24.412350004737


    Psi4 stopped on: Wednesday, 03 January 2024 08:16PM
    Psi4 wall time for execution: 0:00:31.28

*** Psi4 exiting successfully. Buy a developer a beer!
