
    -----------------------------------------------------------------------
          Psi4: An Open-Source Ab Initio Electronic Structure Package
                               Psi4 1.9 release

                         Git: Rev {} zzzzzzz 


    D. G. A. Smith, L. A. Burns, A. C. Simmonett, R. M. Parrish,
    M. C. Schieber, R. Galvelis, P. Kraus, H. Kruse, R. Di Remigio,
    A. Alenaizan, A. M. James, S. Lehtola, J. P. Misiewicz, M. Scheurer,
    R. A. Shaw, J. B. Schriber, Y. Xie, Z. L. Glick, D. A. Sirianni,
    J. S. O'Brien, J. M. Waldrop, A. Kumar, E. G. Hohenstein,
    B. P. Pritchard, B. R. Brooks, H. F. Schaefer III, A. Yu. Sokolov,
    K. Patkowski, A. E. DePrince III, U. Bozkaya, R. A. King,
    F. A. Evangelista, J. M. Turney, T. D. Crawford, C. D. Sherrill,
    J. Chem. Phys. 152(18) 184108 (2020). https://doi.org/10.1063/5.0006002

                            Additional Code Authors
    E. T. Seidl, C. L. Janssen, E. F. Valeev, M. L. Leininger,
    J. F. Gonthier, R. M. Richard, H. R. McAlexander, M. Saitow, X. Wang,
    P. Verma, M. H. Lechner, A. Jiang, S. Behnle, A. G. Heide,
    M. F. Herbst, and D. L. Poole

             Previous Authors, Complete List of Code Contributors,
                       and Citations for Specific Modules
    https://github.com/psi4/psi4/blob/master/codemeta.json
    https://github.com/psi4/psi4/graphs/contributors
    http://psicode.org/psi4manual/master/introduction.html#citing-psifour

    -----------------------------------------------------------------------


    Psi4 started on: Wednesday, 24 January 2024 02:01PM

    Process ID: 1213134
    Host:       moses-razer
    PSIDATADIR: /home/kchung25/anaconda3/envs/psi4_19/share/psi4
    Memory:     500.0 MiB
    Threads:    6
    
  ==> Input File <==

--------------------------------------------------------------------------
MEMORY 60 GB

molecule dimer {
-1 1
Gh(K)      0.000000     0.000000     0.000000
F          0.000000     2.175180     0.000000
Gh(F)      3.262770     0.000000     0.000000

units ang
no_reorient
no_com
symmetry c1
}

set {
basis        aug-cc-pVTZ
scf_type     df
}

energy("mp2")
--------------------------------------------------------------------------

  Memory set to  55.879 GiB by Python driver.

Scratch directory: /scratch/
   => Libint2 <=

    Primary   basis highest AM E, G, H:  5, 4, 3
    Auxiliary basis highest AM E, G, H:  6, 5, 4
    Onebody   basis highest AM E, G, H:  6, 5, 4
    Solid Harmonics ordering:            gaussian

*** tstart() called on moses-razer
*** at Wed Jan 24 14:01:24 2024

   => Loading Basis Set <=

    Name: AUG-CC-PVTZ
    Role: ORBITAL
    Keyword: BASIS
    atoms 1   entry K          line  1152 file /home/kchung25/anaconda3/envs/p415env/share/psi4/basis/aug-cc-pvtz.gbs 
    atoms 2-3 entry F          line   377 file /home/kchung25/anaconda3/envs/p415env/share/psi4/basis/aug-cc-pvtz.gbs 


         ---------------------------------------------------------
                                   SCF
               by Justin Turney, Rob Parrish, Andy Simmonett
                          and Daniel G. A. Smith
                              RHF Reference
                        6 Threads,  57220 MiB Core
         ---------------------------------------------------------

  ==> Geometry <==

    Molecular point group: c1
    Full point group: Cs

    Geometry (in Angstrom), charge = -1, multiplicity = 1:

       Center              X                  Y                   Z               Mass       
    ------------   -----------------  -----------------  -----------------  -----------------
      Gh(K)           0.000000000000     0.000000000000     0.000000000000    38.963706486400
         F            0.000000000000     2.175180000000     0.000000000000    18.998403162730
      Gh(F)           3.262770000000     0.000000000000     0.000000000000    18.998403162730

  Running in c1 symmetry.

  Rotational constants: A =      0.18754  B =      0.08335  C =      0.05770 [cm^-1]
  Rotational constants: A =   5622.24409  B =   2498.77515  C =   1729.92126 [MHz]
  Nuclear repulsion =    0.000000000000000

  Charge       = -1
  Multiplicity = 1
  Electrons    = 10
  Nalpha       = 5
  Nbeta        = 5

  ==> Algorithm <==

  SCF Algorithm Type is DF.
  DIIS enabled.
  MOM disabled.
  Fractional occupation disabled.
  Guess Type is SAD.
  Energy threshold   = 1.00e-08
  Density threshold  = 1.00e-08
  Integral threshold = 1.00e-12

  ==> Primary Basis <==

  Basis Set: AUG-CC-PVTZ
    Blend: AUG-CC-PVTZ
    Number of shells: 47
    Number of basis functions: 151
    Number of Cartesian functions: 179
    Spherical Harmonics?: true
    Max angular momentum: 3

   => Loading Basis Set <=

    Name: (AUG-CC-PVTZ AUX)
    Role: JKFIT
    Keyword: DF_BASIS_SCF
    atoms 1   entry K          line  1152 file /home/kchung25/anaconda3/envs/p415env/share/psi4/basis/def2-universal-jkfit.gbs 
    atoms 2-3 entry F          line   348 file /home/kchung25/anaconda3/envs/p415env/share/psi4/basis/aug-cc-pvtz-jkfit.gbs 

  ==> Integral Setup <==

  DFHelper Memory: AOs need 0.066 GiB; user supplied 41.910 GiB. 
  Using in-core AOs.

  ==> MemDFJK: Density-Fitted J/K Matrices <==

    J tasked:                   Yes
    K tasked:                   Yes
    wK tasked:                   No
    OpenMP threads:               6
    Memory [MiB]:             42915
    Algorithm:                 Core
    Schwarz Cutoff:           1E-12
    Mask sparsity (%):       4.5700
    Fitting Condition:        1E-10

   => Auxiliary Basis Set <=

  Basis Set: (AUG-CC-PVTZ AUX)
    Blend: AUG-CC-PVTZ-JKFIT + DEF2-UNIVERSAL-JKFIT
    Number of shells: 104
    Number of basis functions: 368
    Number of Cartesian functions: 465
    Spherical Harmonics?: true
    Max angular momentum: 4

  Minimum eigenvalue in the overlap matrix is 4.5380950802E-04.
  Reciprocal condition number of the overlap matrix is 9.1626630067E-05.
    Using symmetric orthogonalization.

  ==> Pre-Iterations <==

  SCF Guess: Superposition of Atomic Densities via on-the-fly atomic UHF (no occupation information).

   -------------------------
    Irrep   Nso     Nmo    
   -------------------------
     A        151     151 
   -------------------------
    Total     151     151
   -------------------------

  ==> Iterations <==

                           Total Energy        Delta E     RMS |[F,P]|

   @DF-RHF iter SAD:   -98.82535133462075   -9.88254e+01   0.00000e+00 
   @DF-RHF iter   1:   -99.33783511542241   -5.12484e-01   3.61709e-03 DIIS/ADIIS
   @DF-RHF iter   2:   -99.37265098049212   -3.48159e-02   3.53360e-03 DIIS/ADIIS
   @DF-RHF iter   3:   -99.45076641742840   -7.81154e-02   1.08905e-04 DIIS/ADIIS
   @DF-RHF iter   4:   -99.45083296142276   -6.65440e-05   4.17103e-05 DIIS
   @DF-RHF iter   5:   -99.45084332813778   -1.03667e-05   2.83428e-06 DIIS
   @DF-RHF iter   6:   -99.45084343637349   -1.08236e-07   2.22867e-07 DIIS
   @DF-RHF iter   7:   -99.45084343715469   -7.81199e-10   2.81366e-08 DIIS
   @DF-RHF iter   8:   -99.45084343717775   -2.30642e-11   2.30912e-09 DIIS
  Energy and wave function converged.


  ==> Post-Iterations <==

    Orbital Energies [Eh]
    ---------------------

    Doubly Occupied:                                                      

       1A    -25.833886     2A     -1.076110     3A     -0.181060  
       4A     -0.181025     5A     -0.181025  

    Virtual:                                                              

       6A      0.060359     7A      0.061484     8A      0.061789  
       9A      0.074747    10A      0.074952    11A      0.077804  
      12A      0.077868    13A      0.078124    14A      0.084441  
      15A      0.115286    16A      0.116800    17A      0.118263  
      18A      0.150740    19A      0.155574    20A      0.156533  
      21A      0.163938    22A      0.164786    23A      0.168874  
      24A      0.211572    25A      0.217098    26A      0.227214  
      27A      0.249392    28A      0.254715    29A      0.254747  
      30A      0.256204    31A      0.259673    32A      0.264754  
      33A      0.265374    34A      0.280153    35A      0.319077  
      36A      0.351207    37A      0.358517    38A      0.382777  
      39A      0.385335    40A      0.389571    41A      0.391341  
      42A      0.418045    43A      0.421657    44A      0.445499  
      45A      0.452786    46A      0.526688    47A      0.557436  
      48A      0.566373    49A      0.581575    50A      0.619796  
      51A      0.621305    52A      0.633902    53A      0.634425  
      54A      0.647273    55A      0.656810    56A      0.682263  
      57A      0.738155    58A      0.807396    59A      0.986196  
      60A      0.996471    61A      0.999238    62A      1.039519  
      63A      1.108925    64A      1.118341    65A      1.202871  
      66A      1.226072    67A      1.255467    68A      1.306831  
      69A      1.318390    70A      1.329649    71A      1.336224  
      72A      1.393251    73A      1.604314    74A      1.611129  
      75A      1.624234    76A      1.923332    77A      2.053623  
      78A      2.133899    79A      2.136235    80A      2.222491  
      81A      2.300590    82A      2.401008    83A      2.408998  
      84A      2.473917    85A      2.814516    86A      3.193831  
      87A      3.195189    88A      3.215870    89A      3.216128  
      90A      3.220157    91A      3.221639    92A      3.223422  
      93A      3.227633    94A      3.230593    95A      3.236087  
      96A      3.318787    97A      3.321931    98A      3.335693  
      99A      3.337082   100A      3.350800   101A      3.356805  
     102A      3.372575   103A      3.378575   104A      3.389818  
     105A      3.399899   106A      3.525923   107A      3.535719  
     108A      3.591067   109A      3.693186   110A      3.698961  
     111A      3.753910   112A      3.779287   113A      3.851471  
     114A      5.771702   115A      5.777857   116A      5.852439  
     117A      9.277529   118A      9.277922   119A      9.284559  
     120A      9.285642   121A      9.296897   122A      9.297868  
     123A      9.324476   124A      9.673299   125A      9.793405  
     126A      9.800540   127A      9.827799   128A      9.854742  
     129A      9.865561   130A     10.288731   131A     10.288900  
     132A     10.292048   133A     10.292611   134A     10.294197  
     135A     10.294660   136A     10.296781   137A     10.330686  
     138A     11.905228   139A     13.083316   140A     13.086202  
     141A     13.118042   142A     13.131738   143A     13.154426  
     144A     14.387695   145A     14.390227   146A     14.426473  
     147A     30.459430   148A     30.584107   149A     30.911866  
     150A     67.691501   151A    197.752045  

    Final Occupation by Irrep:
              A 
    DOCC [     5 ]
    NA   [     5 ]
    NB   [     5 ]

  @DF-RHF Final Energy:   -99.45084343717775

   => Energetics <=

    Nuclear Repulsion Energy =              0.0000000000000000
    One-Electron Energy =                -143.9954758927525518
    Two-Electron Energy =                  44.5446324555748134
    Total Energy =                        -99.4508434371777383

Computation Completed


Properties will be evaluated at   0.000000,   0.000000,   0.000000 [a0]

Properties computed using the SCF density matrix


 Multipole Moments:

 ------------------------------------------------------------------------------------
     Multipole            Electronic (a.u.)      Nuclear  (a.u.)        Total (a.u.)
 ------------------------------------------------------------------------------------

 L = 1.  Multiply by 2.5417464519 to convert [e a0] to [Debye]
 Dipole X            :         -0.0001385            0.0000000           -0.0001385
 Dipole Y            :        -41.1046322           36.9944503           -4.1101819
 Dipole Z            :          0.0000000            0.0000000            0.0000000
 Magnitude           :                                                    4.1101819

 ------------------------------------------------------------------------------------

*** tstop() called on moses-razer at Wed Jan 24 14:01:28 2024
Module time:
	user time   =       8.60 seconds =       0.14 minutes
	system time =       1.48 seconds =       0.02 minutes
	total time  =          4 seconds =       0.07 minutes
Total time:
	user time   =       8.60 seconds =       0.14 minutes
	system time =       1.48 seconds =       0.02 minutes
	total time  =          4 seconds =       0.07 minutes

*** tstart() called on moses-razer
*** at Wed Jan 24 14:01:28 2024


  //>>>>>>>>>>>>>>>>>>>>>>>>>>>>>>>>>>>//
  //               DFMP2               //
  //<<<<<<<<<<<<<<<<<<<<<<<<<<<<<<<<<<<//

   => Loading Basis Set <=

    Name: (AUG-CC-PVTZ AUX)
    Role: RIFIT
    Keyword: DF_BASIS_MP2
    atoms 1   entry K          line  1282 file /home/kchung25/anaconda3/envs/p415env/share/psi4/basis/def2-qzvpp-ri.gbs 
    atoms 2-3 entry F          line   322 file /home/kchung25/anaconda3/envs/p415env/share/psi4/basis/aug-cc-pvtz-ri.gbs 

	 --------------------------------------------------------
	                          DF-MP2                         
	      2nd-Order Density-Fitted Moller-Plesset Theory     
	              RMP2 Wavefunction,   6 Threads             
	                                                         
	        Rob Parrish, Justin Turney, Andy Simmonett,      
	           Ed Hohenstein, and C. David Sherrill          
	 --------------------------------------------------------

   => Auxiliary Basis Set <=

  Basis Set: (AUG-CC-PVTZ AUX)
    Blend: AUG-CC-PVTZ-RI + DEF2-QZVPP-RI
    Number of shells: 105
    Number of basis functions: 411
    Number of Cartesian functions: 534
    Spherical Harmonics?: true
    Max angular momentum: 4

	 --------------------------------------------------------
	                 NBF =   151, NAUX =   411
	 --------------------------------------------------------
	   CLASS    FOCC     OCC    AOCC    AVIR     VIR    FVIR
	   PAIRS       0       5       5     146     146       0
	 --------------------------------------------------------

	-----------------------------------------------------------
	 ==================> DF-MP2 Energies <==================== 
	-----------------------------------------------------------
	 Reference Energy          =     -99.4508434371777525 [Eh]
	 Singles Energy            =      -0.0000000000000000 [Eh]
	 Same-Spin Energy          =      -0.0816491609986633 [Eh]
	 Opposite-Spin Energy      =      -0.2268012179702137 [Eh]
	 Correlation Energy        =      -0.3084503789688770 [Eh]
	 Total Energy              =     -99.7592938161466236 [Eh]
	-----------------------------------------------------------
	 ================> DF-SCS-MP2 Energies <================== 
	-----------------------------------------------------------
	 SCS Same-Spin Scale       =       0.3333333333333333 [-]
	 SCS Opposite-Spin Scale   =       1.2000000000000000 [-]
	 SCS Same-Spin Energy      =      -0.0272163869995544 [Eh]
	 SCS Opposite-Spin Energy  =      -0.2721614615642564 [Eh]
	 SCS Correlation Energy    =      -0.2993778485638108 [Eh]
	 SCS Total Energy          =     -99.7502212857415600 [Eh]
	-----------------------------------------------------------


*** tstop() called on moses-razer at Wed Jan 24 14:01:33 2024
Module time:
	user time   =       6.16 seconds =       0.10 minutes
	system time =       0.78 seconds =       0.01 minutes
	total time  =          5 seconds =       0.08 minutes
Total time:
	user time   =      14.76 seconds =       0.25 minutes
	system time =       2.26 seconds =       0.04 minutes
	total time  =          9 seconds =       0.15 minutes

    Psi4 stopped on: Wednesday, 24 January 2024 02:01PM
    Psi4 wall time for execution: 0:00:08.68

*** Psi4 exiting successfully. Buy a developer a beer!
