
    -----------------------------------------------------------------------
          Psi4: An Open-Source Ab Initio Electronic Structure Package
                               Psi4 1.9 release

                         Git: Rev {} zzzzzzz 


    D. G. A. Smith, L. A. Burns, A. C. Simmonett, R. M. Parrish,
    M. C. Schieber, R. Galvelis, P. Kraus, H. Kruse, R. Di Remigio,
    A. Alenaizan, A. M. James, S. Lehtola, J. P. Misiewicz, M. Scheurer,
    R. A. Shaw, J. B. Schriber, Y. Xie, Z. L. Glick, D. A. Sirianni,
    J. S. O'Brien, J. M. Waldrop, A. Kumar, E. G. Hohenstein,
    B. P. Pritchard, B. R. Brooks, H. F. Schaefer III, A. Yu. Sokolov,
    K. Patkowski, A. E. DePrince III, U. Bozkaya, R. A. King,
    F. A. Evangelista, J. M. Turney, T. D. Crawford, C. D. Sherrill,
    J. Chem. Phys. 152(18) 184108 (2020). https://doi.org/10.1063/5.0006002

                            Additional Code Authors
    E. T. Seidl, C. L. Janssen, E. F. Valeev, M. L. Leininger,
    J. F. Gonthier, R. M. Richard, H. R. McAlexander, M. Saitow, X. Wang,
    P. Verma, M. H. Lechner, A. Jiang, S. Behnle, A. G. Heide,
    M. F. Herbst, and D. L. Poole

             Previous Authors, Complete List of Code Contributors,
                       and Citations for Specific Modules
    https://github.com/psi4/psi4/blob/master/codemeta.json
    https://github.com/psi4/psi4/graphs/contributors
    http://psicode.org/psi4manual/master/introduction.html#citing-psifour

    -----------------------------------------------------------------------


    Psi4 started on: Wednesday, 24 January 2024 05:35AM

    Process ID: 1194512
    Host:       moses-razer
    PSIDATADIR: /home/kchung25/anaconda3/envs/psi4_19/share/psi4
    Memory:     500.0 MiB
    Threads:    6
    
  ==> Input File <==

--------------------------------------------------------------------------
MEMORY 60 GB

molecule dimer {
-1 1
Cl     0.000000     0.000000     0.000000
--
1 1
K      0.000000     2.633546     0.000000
--
1 1
K      3.160255     0.000000     0.000000

units ang
no_reorient
no_com
symmetry c1
}

set {
basis        aug-cc-pVTZ
scf_type     df
}

energy("mp2", bsse_type="cp")
--------------------------------------------------------------------------

  Memory set to  55.879 GiB by Python driver.

Scratch directory: /scratch/

  //>>>>>>>>>>>>>>>>>>>>>>>>>>>>>>>>>>>>>>>>//
  // ManyBody Setup: N-Body Levels [1, 2, 3]//
  //<<<<<<<<<<<<<<<<<<<<<<<<<<<<<<<<<<<<<<<<//

        Number of 1-body computations:     3
        Number of 2-body computations:     3
        Number of 3-body computations:     1

    -----------------------------------------------------------------------
          Psi4: An Open-Source Ab Initio Electronic Structure Package
                               Psi4 1.9 release

                         Git: Rev {} zzzzzzz 


    D. G. A. Smith, L. A. Burns, A. C. Simmonett, R. M. Parrish,
    M. C. Schieber, R. Galvelis, P. Kraus, H. Kruse, R. Di Remigio,
    A. Alenaizan, A. M. James, S. Lehtola, J. P. Misiewicz, M. Scheurer,
    R. A. Shaw, J. B. Schriber, Y. Xie, Z. L. Glick, D. A. Sirianni,
    J. S. O'Brien, J. M. Waldrop, A. Kumar, E. G. Hohenstein,
    B. P. Pritchard, B. R. Brooks, H. F. Schaefer III, A. Yu. Sokolov,
    K. Patkowski, A. E. DePrince III, U. Bozkaya, R. A. King,
    F. A. Evangelista, J. M. Turney, T. D. Crawford, C. D. Sherrill,
    J. Chem. Phys. 152(18) 184108 (2020). https://doi.org/10.1063/5.0006002

                            Additional Code Authors
    E. T. Seidl, C. L. Janssen, E. F. Valeev, M. L. Leininger,
    J. F. Gonthier, R. M. Richard, H. R. McAlexander, M. Saitow, X. Wang,
    P. Verma, M. H. Lechner, A. Jiang, S. Behnle, A. G. Heide,
    M. F. Herbst, and D. L. Poole

             Previous Authors, Complete List of Code Contributors,
                       and Citations for Specific Modules
    https://github.com/psi4/psi4/blob/master/codemeta.json
    https://github.com/psi4/psi4/graphs/contributors
    http://psicode.org/psi4manual/master/introduction.html#citing-psifour

    -----------------------------------------------------------------------


    Psi4 started on: Wednesday, 24 January 2024 05:35AM

    Process ID: 1194512
    Host:       moses-razer
    PSIDATADIR: /home/kchung25/anaconda3/envs/psi4_19/share/psi4
    Memory:     55.9 GiB
    Threads:    6
    
  ==> Input QCSchema <==

--------------------------------------------------------------------------
{'driver': 'energy',
 'extras': {'psiapi': True, 'wfn_qcvars_only': True},
 'id': None,
 'keywords': {'SCF_TYPE': 'DF', 'function_kwargs': {}},
 'model': {'basis': 'aug-cc-pvtz', 'method': 'mp2'},
 'molecule': {'atom_labels': ['', '', ''],
              'atomic_numbers': [17, 19, 19],
              'extras': {},
              'fix_com': True,
              'fix_orientation': True,
              'fix_symmetry': 'c1',
              'fragment_charges': [-1.0, 0.0, 0.0],
              'fragment_multiplicities': [1, 1, 1],
              'fragments': [[0], [1], [2]],
              'geometry': [0.0, 0.0, 0.0, 0.0, 4.976680678794962, 0.0, 5.972016436608729, 0.0, 0.0],
              'mass_numbers': [35, 39, 39],
              'masses': [34.968852682, 38.9637064864, 38.9637064864],
              'molecular_charge': -1.0,
              'molecular_multiplicity': 1,
              'name': 'dimer',
              'provenance': {'creator': 'QCElemental',
                             'routine': 'qcelemental.molparse.from_string',
                             'version': '0.27.1'},
              'real': [True, False, False],
              'schema_name': 'qcschema_molecule',
              'schema_version': 2,
              'symbols': ['Cl', 'K', 'K'],
              'validated': True},
 'protocols': {'stdout': True},
 'provenance': {'creator': 'QCElemental', 'routine': 'qcelemental.models.results', 'version': '0.27.1'},
 'schema_name': 'qcschema_input',
 'schema_version': 1}
--------------------------------------------------------------------------

Scratch directory: /scratch/
   => Libint2 <=

    Primary   basis highest AM E, G, H:  5, 4, 3
    Auxiliary basis highest AM E, G, H:  6, 5, 4
    Onebody   basis highest AM E, G, H:  6, 5, 4
    Solid Harmonics ordering:            gaussian

*** tstart() called on moses-razer
*** at Wed Jan 24 05:35:47 2024

   => Loading Basis Set <=

    Name: AUG-CC-PVTZ
    Role: ORBITAL
    Keyword: BASIS
    atoms 1   entry CL         line   988 file /home/kchung25/anaconda3/envs/p415env/share/psi4/basis/aug-cc-pvtz.gbs 
    atoms 2-3 entry K          line  1152 file /home/kchung25/anaconda3/envs/p415env/share/psi4/basis/aug-cc-pvtz.gbs 


         ---------------------------------------------------------
                                   SCF
               by Justin Turney, Rob Parrish, Andy Simmonett
                          and Daniel G. A. Smith
                              RHF Reference
                        6 Threads,  57220 MiB Core
         ---------------------------------------------------------

  ==> Geometry <==

    Molecular point group: c1
    Full point group: Cs

    Geometry (in Bohr), charge = -1, multiplicity = 1:

       Center              X                  Y                   Z               Mass       
    ------------   -----------------  -----------------  -----------------  -----------------
         CL           0.000000000000     0.000000000000     0.000000000000    34.968852682000
      Gh(K)           0.000000000000     4.976680678795     0.000000000000    38.963706486400
      Gh(K)           5.972016436609     0.000000000000     0.000000000000    38.963706486400

  Running in c1 symmetry.

  Rotational constants: A =      0.06238  B =      0.04332  C =      0.02557 [cm^-1]
  Rotational constants: A =   1870.14430  B =   1298.71149  C =    766.45264 [MHz]
  Nuclear repulsion =    0.000000000000000

  Charge       = -1
  Multiplicity = 1
  Electrons    = 18
  Nalpha       = 9
  Nbeta        = 9

  ==> Algorithm <==

  SCF Algorithm Type is DF.
  DIIS enabled.
  MOM disabled.
  Fractional occupation disabled.
  Guess Type is SAD.
  Energy threshold   = 1.00e-08
  Density threshold  = 1.00e-08
  Integral threshold = 1.00e-12

  ==> Primary Basis <==

  Basis Set: AUG-CC-PVTZ
    Blend: AUG-CC-PVTZ
    Number of shells: 54
    Number of basis functions: 168
    Number of Cartesian functions: 197
    Spherical Harmonics?: true
    Max angular momentum: 3

   => Loading Basis Set <=

    Name: (AUG-CC-PVTZ AUX)
    Role: JKFIT
    Keyword: DF_BASIS_SCF
    atoms 1   entry CL         line   816 file /home/kchung25/anaconda3/envs/p415env/share/psi4/basis/aug-cc-pvtz-jkfit.gbs 
    atoms 2-3 entry K          line  1152 file /home/kchung25/anaconda3/envs/p415env/share/psi4/basis/def2-universal-jkfit.gbs 

  ==> Integral Setup <==

  DFHelper Memory: AOs need 0.107 GiB; user supplied 41.910 GiB. 
  Using in-core AOs.

  ==> MemDFJK: Density-Fitted J/K Matrices <==

    J tasked:                   Yes
    K tasked:                   Yes
    wK tasked:                   No
    OpenMP threads:               6
    Memory [MiB]:             42915
    Algorithm:                 Core
    Schwarz Cutoff:           1E-12
    Mask sparsity (%):       0.0000
    Fitting Condition:        1E-10

   => Auxiliary Basis Set <=

  Basis Set: (AUG-CC-PVTZ AUX)
    Blend: AUG-CC-PVTZ-JKFIT + DEF2-UNIVERSAL-JKFIT
    Number of shells: 130
    Number of basis functions: 466
    Number of Cartesian functions: 586
    Spherical Harmonics?: true
    Max angular momentum: 4

  Minimum eigenvalue in the overlap matrix is 1.0993503667E-05.
  Reciprocal condition number of the overlap matrix is 1.3578494617E-06.
    Using symmetric orthogonalization.

  ==> Pre-Iterations <==

  SCF Guess: Superposition of Atomic Densities via on-the-fly atomic UHF (no occupation information).

   -------------------------
    Irrep   Nso     Nmo    
   -------------------------
     A        168     168 
   -------------------------
    Total     168     168
   -------------------------

  ==> Iterations <==

                           Total Energy        Delta E     RMS |[F,P]|

   @DF-RHF iter SAD:  -459.11248998184686   -4.59112e+02   0.00000e+00 
   @DF-RHF iter   1:  -459.51384159408428   -4.01352e-01   1.77561e-03 DIIS/ADIIS
   @DF-RHF iter   2:  -459.56474407600871   -5.09025e-02   9.08461e-04 DIIS/ADIIS
   @DF-RHF iter   3:  -459.57345034704775   -8.70627e-03   6.07024e-05 DIIS
   @DF-RHF iter   4:  -459.57350520411057   -5.48571e-05   1.23513e-05 DIIS
   @DF-RHF iter   5:  -459.57350883793578   -3.63383e-06   1.25511e-06 DIIS
   @DF-RHF iter   6:  -459.57350891987676   -8.19410e-08   1.09728e-07 DIIS
   @DF-RHF iter   7:  -459.57350892082673   -9.49967e-10   1.35909e-08 DIIS
   @DF-RHF iter   8:  -459.57350892084889   -2.21689e-11   1.68918e-09 DIIS
  Energy and wave function converged.


  ==> Post-Iterations <==

    Orbital Energies [Eh]
    ---------------------

    Doubly Occupied:                                                      

       1A   -104.506421     2A    -10.229854     3A     -7.695907  
       4A     -7.695893     5A     -7.695889     6A     -0.733494  
       7A     -0.150327     8A     -0.150325     9A     -0.150321  

    Virtual:                                                              

      10A      0.049553    11A      0.050612    12A      0.052975  
      13A      0.055780    14A      0.059275    15A      0.059824  
      16A      0.064997    17A      0.066703    18A      0.073011  
      19A      0.073203    20A      0.073819    21A      0.074172  
      22A      0.078796    23A      0.080221    24A      0.080818  
      25A      0.081478    26A      0.086780    27A      0.092275  
      28A      0.110356    29A      0.111388    30A      0.112909  
      31A      0.120660    32A      0.121636    33A      0.123898  
      34A      0.139776    35A      0.144071    36A      0.146706  
      37A      0.147144    38A      0.150688    39A      0.150751  
      40A      0.154243    41A      0.158888    42A      0.160750  
      43A      0.163219    44A      0.166195    45A      0.178628  
      46A      0.208713    47A      0.209713    48A      0.223411  
      49A      0.229861    50A      0.236940    51A      0.240238  
      52A      0.240291    53A      0.244861    54A      0.253510  
      55A      0.254237    56A      0.254678    57A      0.263256  
      58A      0.265835    59A      0.272998    60A      0.274198  
      61A      0.276067    62A      0.280414    63A      0.280788  
      64A      0.287755    65A      0.291857    66A      0.296884  
      67A      0.322337    68A      0.337048    69A      0.344669  
      70A      0.352733    71A      0.362415    72A      0.372759  
      73A      0.389428    74A      0.390963    75A      0.396424  
      76A      0.397081    77A      0.417227    78A      0.422018  
      79A      0.437738    80A      0.453633    81A      0.465600  
      82A      0.477401    83A      0.503246    84A      0.526930  
      85A      0.531064    86A      0.567858    87A      0.580930  
      88A      0.582486    89A      0.587427    90A      0.606012  
      91A      0.606961    92A      0.614854    93A      0.621350  
      94A      0.627825    95A      0.637229    96A      0.655031  
      97A      0.655994    98A      0.662364    99A      0.676181  
     100A      0.702116   101A      0.721361   102A      0.729636  
     103A      0.739532   104A      0.749056   105A      0.762584  
     106A      0.788751   107A      0.828413   108A      0.982251  
     109A      1.010443   110A      1.086725   111A      1.135807  
     112A      1.268582   113A      1.315808   114A      1.328013  
     115A      1.336226   116A      1.363476   117A      1.439785  
     118A      1.469051   119A      1.489527   120A      1.506312  
     121A      1.514794   122A      1.526497   123A      1.539076  
     124A      1.558901   125A      1.918340   126A      2.003459  
     127A      2.017176   128A      2.057389   129A      2.078107  
     130A      2.086426   131A      2.100765   132A      2.136255  
     133A      2.154147   134A      2.181519   135A      2.242235  
     136A      2.282894   137A      2.318023   138A      2.447703  
     139A      2.469241   140A      2.520922   141A      2.576919  
     142A      2.783525   143A      2.920749   144A      2.928053  
     145A      2.933621   146A      2.979836   147A      3.071238  
     148A      3.101005   149A      3.243330   150A      3.301704  
     151A      3.421578   152A      3.432483   153A      3.437234  
     154A      3.457291   155A      3.506175   156A      3.512369  
     157A      3.581105   158A      5.969847   159A     10.101910  
     160A     10.299406   161A     30.391976   162A     30.413774  
     163A     30.525253   164A     30.544251   165A     30.735016  
     166A     31.094254   167A    197.464611   168A    197.737775  

    Final Occupation by Irrep:
              A 
    DOCC [     9 ]
    NA   [     9 ]
    NB   [     9 ]

  @DF-RHF Final Energy:  -459.57350892084889

   => Energetics <=

    Nuclear Repulsion Energy =              0.0000000000000000
    One-Electron Energy =                -641.1301533328702362
    Two-Electron Energy =                 181.5566444120213419
    Total Energy =                       -459.5735089208488944

Computation Completed


Properties will be evaluated at   0.000000,   0.000000,   0.000000 [a0]

Properties computed using the SCF density matrix


 Multipole Moments:

 ------------------------------------------------------------------------------------
     Multipole            Electronic (a.u.)      Nuclear  (a.u.)        Total (a.u.)
 ------------------------------------------------------------------------------------

 L = 1.  Multiply by 2.5417464519 to convert [e a0] to [Debye]
 Dipole X            :          0.0002435            0.0000000            0.0002435
 Dipole Y            :          0.0004788            0.0000000            0.0004788
 Dipole Z            :          0.0000000            0.0000000            0.0000000
 Magnitude           :                                                    0.0005371

 ------------------------------------------------------------------------------------

*** tstop() called on moses-razer at Wed Jan 24 05:36:00 2024
Module time:
	user time   =      18.73 seconds =       0.31 minutes
	system time =       1.60 seconds =       0.03 minutes
	total time  =         13 seconds =       0.22 minutes
Total time:
	user time   =      18.73 seconds =       0.31 minutes
	system time =       1.60 seconds =       0.03 minutes
	total time  =         13 seconds =       0.22 minutes

*** tstart() called on moses-razer
*** at Wed Jan 24 05:36:00 2024


  //>>>>>>>>>>>>>>>>>>>>>>>>>>>>>>>>>>>//
  //               DFMP2               //
  //<<<<<<<<<<<<<<<<<<<<<<<<<<<<<<<<<<<//

   => Loading Basis Set <=

    Name: (AUG-CC-PVTZ AUX)
    Role: RIFIT
    Keyword: DF_BASIS_MP2
    atoms 1   entry CL         line   742 file /home/kchung25/anaconda3/envs/p415env/share/psi4/basis/aug-cc-pvtz-ri.gbs 
    atoms 2-3 entry K          line  1282 file /home/kchung25/anaconda3/envs/p415env/share/psi4/basis/def2-qzvpp-ri.gbs 

	 --------------------------------------------------------
	                          DF-MP2                         
	      2nd-Order Density-Fitted Moller-Plesset Theory     
	              RMP2 Wavefunction,   6 Threads             
	                                                         
	        Rob Parrish, Justin Turney, Andy Simmonett,      
	           Ed Hohenstein, and C. David Sherrill          
	 --------------------------------------------------------

   => Auxiliary Basis Set <=

  Basis Set: (AUG-CC-PVTZ AUX)
    Blend: AUG-CC-PVTZ-RI + DEF2-QZVPP-RI
    Number of shells: 135
    Number of basis functions: 545
    Number of Cartesian functions: 715
    Spherical Harmonics?: true
    Max angular momentum: 4

	 --------------------------------------------------------
	                 NBF =   168, NAUX =   545
	 --------------------------------------------------------
	   CLASS    FOCC     OCC    AOCC    AVIR     VIR    FVIR
	   PAIRS       0       9       9     159     159       0
	 --------------------------------------------------------

	-----------------------------------------------------------
	 ==================> DF-MP2 Energies <==================== 
	-----------------------------------------------------------
	 Reference Energy          =    -459.5735089208488944 [Eh]
	 Singles Energy            =      -0.0000000000000000 [Eh]
	 Same-Spin Energy          =      -0.0626372953709628 [Eh]
	 Opposite-Spin Energy      =      -0.1798273376833754 [Eh]
	 Correlation Energy        =      -0.2424646330543381 [Eh]
	 Total Energy              =    -459.8159735539032340 [Eh]
	-----------------------------------------------------------
	 ================> DF-SCS-MP2 Energies <================== 
	-----------------------------------------------------------
	 SCS Same-Spin Scale       =       0.3333333333333333 [-]
	 SCS Opposite-Spin Scale   =       1.2000000000000000 [-]
	 SCS Same-Spin Energy      =      -0.0208790984569876 [Eh]
	 SCS Opposite-Spin Energy  =      -0.2157928052200505 [Eh]
	 SCS Correlation Energy    =      -0.2366719036770381 [Eh]
	 SCS Total Energy          =    -459.8101808245259576 [Eh]
	-----------------------------------------------------------


*** tstop() called on moses-razer at Wed Jan 24 05:36:14 2024
Module time:
	user time   =      17.35 seconds =       0.29 minutes
	system time =       0.87 seconds =       0.01 minutes
	total time  =         14 seconds =       0.23 minutes
Total time:
	user time   =      36.08 seconds =       0.60 minutes
	system time =       2.47 seconds =       0.04 minutes
	total time  =         27 seconds =       0.45 minutes

    Psi4 stopped on: Wednesday, 24 January 2024 05:36AM
    Psi4 wall time for execution: 0:00:27.46


    -----------------------------------------------------------------------
          Psi4: An Open-Source Ab Initio Electronic Structure Package
                               Psi4 1.9 release

                         Git: Rev {} zzzzzzz 


    D. G. A. Smith, L. A. Burns, A. C. Simmonett, R. M. Parrish,
    M. C. Schieber, R. Galvelis, P. Kraus, H. Kruse, R. Di Remigio,
    A. Alenaizan, A. M. James, S. Lehtola, J. P. Misiewicz, M. Scheurer,
    R. A. Shaw, J. B. Schriber, Y. Xie, Z. L. Glick, D. A. Sirianni,
    J. S. O'Brien, J. M. Waldrop, A. Kumar, E. G. Hohenstein,
    B. P. Pritchard, B. R. Brooks, H. F. Schaefer III, A. Yu. Sokolov,
    K. Patkowski, A. E. DePrince III, U. Bozkaya, R. A. King,
    F. A. Evangelista, J. M. Turney, T. D. Crawford, C. D. Sherrill,
    J. Chem. Phys. 152(18) 184108 (2020). https://doi.org/10.1063/5.0006002

                            Additional Code Authors
    E. T. Seidl, C. L. Janssen, E. F. Valeev, M. L. Leininger,
    J. F. Gonthier, R. M. Richard, H. R. McAlexander, M. Saitow, X. Wang,
    P. Verma, M. H. Lechner, A. Jiang, S. Behnle, A. G. Heide,
    M. F. Herbst, and D. L. Poole

             Previous Authors, Complete List of Code Contributors,
                       and Citations for Specific Modules
    https://github.com/psi4/psi4/blob/master/codemeta.json
    https://github.com/psi4/psi4/graphs/contributors
    http://psicode.org/psi4manual/master/introduction.html#citing-psifour

    -----------------------------------------------------------------------


    Psi4 started on: Wednesday, 24 January 2024 05:35AM

    Process ID: 1194512
    Host:       moses-razer
    PSIDATADIR: /home/kchung25/anaconda3/envs/psi4_19/share/psi4
    Memory:     55.9 GiB
    Threads:    6
    
  ==> Input QCSchema <==

--------------------------------------------------------------------------
{'driver': 'energy',
 'extras': {'psiapi': True, 'wfn_qcvars_only': True},
 'id': None,
 'keywords': {'SCF_TYPE': 'DF', 'function_kwargs': {}},
 'model': {'basis': 'aug-cc-pvtz', 'method': 'mp2'},
 'molecule': {'atom_labels': ['', '', ''],
              'atomic_numbers': [17, 19, 19],
              'extras': {},
              'fix_com': True,
              'fix_orientation': True,
              'fix_symmetry': 'c1',
              'fragment_charges': [0.0, 1.0, 0.0],
              'fragment_multiplicities': [1, 1, 1],
              'fragments': [[0], [1], [2]],
              'geometry': [0.0, 0.0, 0.0, 0.0, 4.976680678794962, 0.0, 5.972016436608729, 0.0, 0.0],
              'mass_numbers': [35, 39, 39],
              'masses': [34.968852682, 38.9637064864, 38.9637064864],
              'molecular_charge': 1.0,
              'molecular_multiplicity': 1,
              'name': 'dimer',
              'provenance': {'creator': 'QCElemental',
                             'routine': 'qcelemental.molparse.from_string',
                             'version': '0.27.1'},
              'real': [False, True, False],
              'schema_name': 'qcschema_molecule',
              'schema_version': 2,
              'symbols': ['Cl', 'K', 'K'],
              'validated': True},
 'protocols': {'stdout': True},
 'provenance': {'creator': 'QCElemental', 'routine': 'qcelemental.models.results', 'version': '0.27.1'},
 'schema_name': 'qcschema_input',
 'schema_version': 1}
--------------------------------------------------------------------------

Scratch directory: /scratch/
   => Libint2 <=

    Primary   basis highest AM E, G, H:  5, 4, 3
    Auxiliary basis highest AM E, G, H:  6, 5, 4
    Onebody   basis highest AM E, G, H:  6, 5, 4
    Solid Harmonics ordering:            gaussian

*** tstart() called on moses-razer
*** at Wed Jan 24 05:36:14 2024

   => Loading Basis Set <=

    Name: AUG-CC-PVTZ
    Role: ORBITAL
    Keyword: BASIS
    atoms 1   entry CL         line   988 file /home/kchung25/anaconda3/envs/p415env/share/psi4/basis/aug-cc-pvtz.gbs 
    atoms 2-3 entry K          line  1152 file /home/kchung25/anaconda3/envs/p415env/share/psi4/basis/aug-cc-pvtz.gbs 


         ---------------------------------------------------------
                                   SCF
               by Justin Turney, Rob Parrish, Andy Simmonett
                          and Daniel G. A. Smith
                              RHF Reference
                        6 Threads,  57220 MiB Core
         ---------------------------------------------------------

  ==> Geometry <==

    Molecular point group: c1
    Full point group: Cs

    Geometry (in Bohr), charge = 1, multiplicity = 1:

       Center              X                  Y                   Z               Mass       
    ------------   -----------------  -----------------  -----------------  -----------------
      Gh(CL)          0.000000000000     0.000000000000     0.000000000000    34.968852682000
         K            0.000000000000     4.976680678795     0.000000000000    38.963706486400
      Gh(K)           5.972016436609     0.000000000000     0.000000000000    38.963706486400

  Running in c1 symmetry.

  Rotational constants: A =      0.06238  B =      0.04332  C =      0.02557 [cm^-1]
  Rotational constants: A =   1870.14430  B =   1298.71149  C =    766.45264 [MHz]
  Nuclear repulsion =    0.000000000000000

  Charge       = 1
  Multiplicity = 1
  Electrons    = 18
  Nalpha       = 9
  Nbeta        = 9

  ==> Algorithm <==

  SCF Algorithm Type is DF.
  DIIS enabled.
  MOM disabled.
  Fractional occupation disabled.
  Guess Type is SAD.
  Energy threshold   = 1.00e-08
  Density threshold  = 1.00e-08
  Integral threshold = 1.00e-12

  ==> Primary Basis <==

  Basis Set: AUG-CC-PVTZ
    Blend: AUG-CC-PVTZ
    Number of shells: 54
    Number of basis functions: 168
    Number of Cartesian functions: 197
    Spherical Harmonics?: true
    Max angular momentum: 3

   => Loading Basis Set <=

    Name: (AUG-CC-PVTZ AUX)
    Role: JKFIT
    Keyword: DF_BASIS_SCF
    atoms 1   entry CL         line   816 file /home/kchung25/anaconda3/envs/p415env/share/psi4/basis/aug-cc-pvtz-jkfit.gbs 
    atoms 2-3 entry K          line  1152 file /home/kchung25/anaconda3/envs/p415env/share/psi4/basis/def2-universal-jkfit.gbs 

  ==> Integral Setup <==

  DFHelper Memory: AOs need 0.107 GiB; user supplied 41.910 GiB. 
  Using in-core AOs.

  ==> MemDFJK: Density-Fitted J/K Matrices <==

    J tasked:                   Yes
    K tasked:                   Yes
    wK tasked:                   No
    OpenMP threads:               6
    Memory [MiB]:             42915
    Algorithm:                 Core
    Schwarz Cutoff:           1E-12
    Mask sparsity (%):       0.0000
    Fitting Condition:        1E-10

   => Auxiliary Basis Set <=

  Basis Set: (AUG-CC-PVTZ AUX)
    Blend: AUG-CC-PVTZ-JKFIT + DEF2-UNIVERSAL-JKFIT
    Number of shells: 130
    Number of basis functions: 466
    Number of Cartesian functions: 586
    Spherical Harmonics?: true
    Max angular momentum: 4

  Minimum eigenvalue in the overlap matrix is 1.0993503667E-05.
  Reciprocal condition number of the overlap matrix is 1.3578494617E-06.
    Using symmetric orthogonalization.

  ==> Pre-Iterations <==

  SCF Guess: Superposition of Atomic Densities via on-the-fly atomic UHF (no occupation information).

   -------------------------
    Irrep   Nso     Nmo    
   -------------------------
     A        168     168 
   -------------------------
    Total     168     168
   -------------------------

  ==> Iterations <==

                           Total Energy        Delta E     RMS |[F,P]|

   @DF-RHF iter SAD:  -599.05152322667129   -5.99052e+02   0.00000e+00 
   @DF-RHF iter   1:  -599.01748071536326    3.40425e-02   4.08650e-05 DIIS
   @DF-RHF iter   2:  -599.01750872004231   -2.80047e-05   5.51957e-06 DIIS
   @DF-RHF iter   3:  -599.01750940245336   -6.82411e-07   4.66724e-07 DIIS
   @DF-RHF iter   4:  -599.01750940645661   -4.00325e-09   4.55230e-08 DIIS
   @DF-RHF iter   5:  -599.01750940650061   -4.39968e-11   9.95272e-09 DIIS
  Energy and wave function converged.


  ==> Post-Iterations <==

    Orbital Energies [Eh]
    ---------------------

    Doubly Occupied:                                                      

       1A   -133.753473     2A    -14.708980     3A    -11.739048  
       4A    -11.739043     5A    -11.739041     6A     -1.964255  
       7A     -1.170907     8A     -1.170865     9A     -1.170843  

    Virtual:                                                              

      10A     -0.146970    11A     -0.095560    12A     -0.095554  
      13A     -0.095551    14A     -0.060914    15A     -0.057911  
      16A     -0.057880    17A     -0.057855    18A     -0.057803  
      19A     -0.057773    20A     -0.045544    21A     -0.045538  
      22A     -0.045536    23A     -0.032507    24A     -0.032365  
      25A     -0.032342    26A     -0.031307    27A     -0.031274  
      28A     -0.031052    29A     -0.029920    30A     -0.029911  
      31A     -0.029484    32A     -0.028442    33A     -0.028417  
      34A     -0.022764    35A     -0.018729    36A     -0.018603  
      37A     -0.016047    38A     -0.016008    39A     -0.012603  
      40A     -0.009870    41A     -0.009465    42A     -0.005578  
      43A     -0.004868    44A     -0.004719    45A     -0.000514  
      46A      0.007886    47A      0.008260    48A      0.008967  
      49A      0.013451    50A      0.014888    51A      0.015020  
      52A      0.015757    53A      0.017763    54A      0.020494  
      55A      0.021113    56A      0.025917    57A      0.032101  
      58A      0.033328    59A      0.037097    60A      0.039130  
      61A      0.058319    62A      0.061884    63A      0.063194  
      64A      0.067133    65A      0.070942    66A      0.071946  
      67A      0.076182    68A      0.090264    69A      0.092331  
      70A      0.097852    71A      0.099459    72A      0.101154  
      73A      0.112145    74A      0.112620    75A      0.114740  
      76A      0.120765    77A      0.122315    78A      0.144607  
      79A      0.147370    80A      0.156940    81A      0.157243  
      82A      0.167418    83A      0.179018    84A      0.196923  
      85A      0.205096    86A      0.230155    87A      0.231530  
      88A      0.234349    89A      0.240497    90A      0.242297  
      91A      0.256729    92A      0.258787    93A      0.265581  
      94A      0.269123    95A      0.275000    96A      0.308039  
      97A      0.315738    98A      0.322914    99A      0.332286  
     100A      0.336441   101A      0.345199   102A      0.366083  
     103A      0.367617   104A      0.386990   105A      0.391402  
     106A      0.400741   107A      0.420994   108A      0.426723  
     109A      0.464297   110A      0.484313   111A      0.485146  
     112A      0.493458   113A      0.503578   114A      0.514461  
     115A      0.547199   116A      0.642386   117A      0.988235  
     118A      1.134131   119A      1.135292   120A      1.160855  
     121A      1.171327   122A      1.189911   123A      1.202239  
     124A      1.217080   125A      1.234678   126A      1.296290  
     127A      1.321985   128A      1.356458   129A      1.419131  
     130A      1.439802   131A      1.451627   132A      1.457872  
     133A      1.480072   134A      1.660357   135A      1.737742  
     136A      1.780079   137A      1.823932   138A      1.856995  
     139A      1.917341   140A      1.956049   141A      2.072785  
     142A      2.379651   143A      3.756105   144A      3.760813  
     145A      3.772662   146A      3.783599   147A      3.799493  
     148A      3.802528   149A      3.833643   150A      3.841477  
     151A      3.904358   152A      3.975321   153A      4.067525  
     154A      4.534813   155A      4.553400   156A      4.567338  
     157A      4.595108   158A      4.605728   159A      9.811399  
     160A     14.013076   161A     27.611284   162A     27.731778  
     163A     27.774592   164A     30.148655   165A     30.190814  
     166A     30.470905   167A    160.603378   168A    197.171529  

    Final Occupation by Irrep:
              A 
    DOCC [     9 ]
    NA   [     9 ]
    NB   [     9 ]

  @DF-RHF Final Energy:  -599.01750940650061

   => Energetics <=

    Nuclear Repulsion Energy =              0.0000000000000000
    One-Electron Energy =                -819.7221137843321230
    Two-Electron Energy =                 220.7046043778314584
    Total Energy =                       -599.0175094065007215

Computation Completed


Properties will be evaluated at   0.000000,   0.000000,   0.000000 [a0]

Properties computed using the SCF density matrix


 Multipole Moments:

 ------------------------------------------------------------------------------------
     Multipole            Electronic (a.u.)      Nuclear  (a.u.)        Total (a.u.)
 ------------------------------------------------------------------------------------

 L = 1.  Multiply by 2.5417464519 to convert [e a0] to [Debye]
 Dipole X            :          0.0001318            0.0000000            0.0001318
 Dipole Y            :        -89.5807328           94.5569329            4.9762001
 Dipole Z            :          0.0000000            0.0000000            0.0000000
 Magnitude           :                                                    4.9762001

 ------------------------------------------------------------------------------------

*** tstop() called on moses-razer at Wed Jan 24 05:36:29 2024
Module time:
	user time   =      21.45 seconds =       0.36 minutes
	system time =       2.66 seconds =       0.04 minutes
	total time  =         15 seconds =       0.25 minutes
Total time:
	user time   =      57.76 seconds =       0.96 minutes
	system time =       5.13 seconds =       0.09 minutes
	total time  =         42 seconds =       0.70 minutes

*** tstart() called on moses-razer
*** at Wed Jan 24 05:36:29 2024


  //>>>>>>>>>>>>>>>>>>>>>>>>>>>>>>>>>>>//
  //               DFMP2               //
  //<<<<<<<<<<<<<<<<<<<<<<<<<<<<<<<<<<<//

   => Loading Basis Set <=

    Name: (AUG-CC-PVTZ AUX)
    Role: RIFIT
    Keyword: DF_BASIS_MP2
    atoms 1   entry CL         line   742 file /home/kchung25/anaconda3/envs/p415env/share/psi4/basis/aug-cc-pvtz-ri.gbs 
    atoms 2-3 entry K          line  1282 file /home/kchung25/anaconda3/envs/p415env/share/psi4/basis/def2-qzvpp-ri.gbs 

	 --------------------------------------------------------
	                          DF-MP2                         
	      2nd-Order Density-Fitted Moller-Plesset Theory     
	              RMP2 Wavefunction,   6 Threads             
	                                                         
	        Rob Parrish, Justin Turney, Andy Simmonett,      
	           Ed Hohenstein, and C. David Sherrill          
	 --------------------------------------------------------

   => Auxiliary Basis Set <=

  Basis Set: (AUG-CC-PVTZ AUX)
    Blend: AUG-CC-PVTZ-RI + DEF2-QZVPP-RI
    Number of shells: 135
    Number of basis functions: 545
    Number of Cartesian functions: 715
    Spherical Harmonics?: true
    Max angular momentum: 4

	 --------------------------------------------------------
	                 NBF =   168, NAUX =   545
	 --------------------------------------------------------
	   CLASS    FOCC     OCC    AOCC    AVIR     VIR    FVIR
	   PAIRS       0       9       9     159     159       0
	 --------------------------------------------------------

	-----------------------------------------------------------
	 ==================> DF-MP2 Energies <==================== 
	-----------------------------------------------------------
	 Reference Energy          =    -599.0175094065006078 [Eh]
	 Singles Energy            =      -0.0000000000000000 [Eh]
	 Same-Spin Energy          =      -0.0296402848847444 [Eh]
	 Opposite-Spin Energy      =      -0.0698993649540923 [Eh]
	 Correlation Energy        =      -0.0995396498388368 [Eh]
	 Total Energy              =    -599.1170490563393969 [Eh]
	-----------------------------------------------------------
	 ================> DF-SCS-MP2 Energies <================== 
	-----------------------------------------------------------
	 SCS Same-Spin Scale       =       0.3333333333333333 [-]
	 SCS Opposite-Spin Scale   =       1.2000000000000000 [-]
	 SCS Same-Spin Energy      =      -0.0098800949615815 [Eh]
	 SCS Opposite-Spin Energy  =      -0.0838792379449108 [Eh]
	 SCS Correlation Energy    =      -0.0937593329064923 [Eh]
	 SCS Total Energy          =    -599.1112687394071372 [Eh]
	-----------------------------------------------------------


*** tstop() called on moses-razer at Wed Jan 24 05:36:44 2024
Module time:
	user time   =      17.39 seconds =       0.29 minutes
	system time =       0.81 seconds =       0.01 minutes
	total time  =         15 seconds =       0.25 minutes
Total time:
	user time   =      75.15 seconds =       1.25 minutes
	system time =       5.94 seconds =       0.10 minutes
	total time  =         57 seconds =       0.95 minutes

    Psi4 stopped on: Wednesday, 24 January 2024 05:36AM
    Psi4 wall time for execution: 0:00:29.53


    -----------------------------------------------------------------------
          Psi4: An Open-Source Ab Initio Electronic Structure Package
                               Psi4 1.9 release

                         Git: Rev {} zzzzzzz 


    D. G. A. Smith, L. A. Burns, A. C. Simmonett, R. M. Parrish,
    M. C. Schieber, R. Galvelis, P. Kraus, H. Kruse, R. Di Remigio,
    A. Alenaizan, A. M. James, S. Lehtola, J. P. Misiewicz, M. Scheurer,
    R. A. Shaw, J. B. Schriber, Y. Xie, Z. L. Glick, D. A. Sirianni,
    J. S. O'Brien, J. M. Waldrop, A. Kumar, E. G. Hohenstein,
    B. P. Pritchard, B. R. Brooks, H. F. Schaefer III, A. Yu. Sokolov,
    K. Patkowski, A. E. DePrince III, U. Bozkaya, R. A. King,
    F. A. Evangelista, J. M. Turney, T. D. Crawford, C. D. Sherrill,
    J. Chem. Phys. 152(18) 184108 (2020). https://doi.org/10.1063/5.0006002

                            Additional Code Authors
    E. T. Seidl, C. L. Janssen, E. F. Valeev, M. L. Leininger,
    J. F. Gonthier, R. M. Richard, H. R. McAlexander, M. Saitow, X. Wang,
    P. Verma, M. H. Lechner, A. Jiang, S. Behnle, A. G. Heide,
    M. F. Herbst, and D. L. Poole

             Previous Authors, Complete List of Code Contributors,
                       and Citations for Specific Modules
    https://github.com/psi4/psi4/blob/master/codemeta.json
    https://github.com/psi4/psi4/graphs/contributors
    http://psicode.org/psi4manual/master/introduction.html#citing-psifour

    -----------------------------------------------------------------------


    Psi4 started on: Wednesday, 24 January 2024 05:35AM

    Process ID: 1194512
    Host:       moses-razer
    PSIDATADIR: /home/kchung25/anaconda3/envs/psi4_19/share/psi4
    Memory:     55.9 GiB
    Threads:    6
    
  ==> Input QCSchema <==

--------------------------------------------------------------------------
{'driver': 'energy',
 'extras': {'psiapi': True, 'wfn_qcvars_only': True},
 'id': None,
 'keywords': {'SCF_TYPE': 'DF', 'function_kwargs': {}},
 'model': {'basis': 'aug-cc-pvtz', 'method': 'mp2'},
 'molecule': {'atom_labels': ['', '', ''],
              'atomic_numbers': [17, 19, 19],
              'extras': {},
              'fix_com': True,
              'fix_orientation': True,
              'fix_symmetry': 'c1',
              'fragment_charges': [0.0, 1.0, 1.0],
              'fragment_multiplicities': [1, 1, 1],
              'fragments': [[0], [1], [2]],
              'geometry': [0.0, 0.0, 0.0, 0.0, 4.976680678794962, 0.0, 5.972016436608729, 0.0, 0.0],
              'mass_numbers': [35, 39, 39],
              'masses': [34.968852682, 38.9637064864, 38.9637064864],
              'molecular_charge': 2.0,
              'molecular_multiplicity': 1,
              'name': 'dimer',
              'provenance': {'creator': 'QCElemental',
                             'routine': 'qcelemental.molparse.from_string',
                             'version': '0.27.1'},
              'real': [False, True, True],
              'schema_name': 'qcschema_molecule',
              'schema_version': 2,
              'symbols': ['Cl', 'K', 'K'],
              'validated': True},
 'protocols': {'stdout': True},
 'provenance': {'creator': 'QCElemental', 'routine': 'qcelemental.models.results', 'version': '0.27.1'},
 'schema_name': 'qcschema_input',
 'schema_version': 1}
--------------------------------------------------------------------------

Scratch directory: /scratch/
   => Libint2 <=

    Primary   basis highest AM E, G, H:  5, 4, 3
    Auxiliary basis highest AM E, G, H:  6, 5, 4
    Onebody   basis highest AM E, G, H:  6, 5, 4
    Solid Harmonics ordering:            gaussian

*** tstart() called on moses-razer
*** at Wed Jan 24 05:36:44 2024

   => Loading Basis Set <=

    Name: AUG-CC-PVTZ
    Role: ORBITAL
    Keyword: BASIS
    atoms 1   entry CL         line   988 file /home/kchung25/anaconda3/envs/p415env/share/psi4/basis/aug-cc-pvtz.gbs 
    atoms 2-3 entry K          line  1152 file /home/kchung25/anaconda3/envs/p415env/share/psi4/basis/aug-cc-pvtz.gbs 


         ---------------------------------------------------------
                                   SCF
               by Justin Turney, Rob Parrish, Andy Simmonett
                          and Daniel G. A. Smith
                              RHF Reference
                        6 Threads,  57220 MiB Core
         ---------------------------------------------------------

  ==> Geometry <==

    Molecular point group: c1
    Full point group: Cs

    Geometry (in Bohr), charge = 2, multiplicity = 1:

       Center              X                  Y                   Z               Mass       
    ------------   -----------------  -----------------  -----------------  -----------------
      Gh(CL)          0.000000000000     0.000000000000     0.000000000000    34.968852682000
         K            0.000000000000     4.976680678795     0.000000000000    38.963706486400
         K            5.972016436609     0.000000000000     0.000000000000    38.963706486400

  Running in c1 symmetry.

  Rotational constants: A =      0.06238  B =      0.04332  C =      0.02557 [cm^-1]
  Rotational constants: A =   1870.14430  B =   1298.71149  C =    766.45264 [MHz]
  Nuclear repulsion =   46.437895421987676

  Charge       = 2
  Multiplicity = 1
  Electrons    = 36
  Nalpha       = 18
  Nbeta        = 18

  ==> Algorithm <==

  SCF Algorithm Type is DF.
  DIIS enabled.
  MOM disabled.
  Fractional occupation disabled.
  Guess Type is SAD.
  Energy threshold   = 1.00e-08
  Density threshold  = 1.00e-08
  Integral threshold = 1.00e-12

  ==> Primary Basis <==

  Basis Set: AUG-CC-PVTZ
    Blend: AUG-CC-PVTZ
    Number of shells: 54
    Number of basis functions: 168
    Number of Cartesian functions: 197
    Spherical Harmonics?: true
    Max angular momentum: 3

   => Loading Basis Set <=

    Name: (AUG-CC-PVTZ AUX)
    Role: JKFIT
    Keyword: DF_BASIS_SCF
    atoms 1   entry CL         line   816 file /home/kchung25/anaconda3/envs/p415env/share/psi4/basis/aug-cc-pvtz-jkfit.gbs 
    atoms 2-3 entry K          line  1152 file /home/kchung25/anaconda3/envs/p415env/share/psi4/basis/def2-universal-jkfit.gbs 

  ==> Integral Setup <==

  DFHelper Memory: AOs need 0.107 GiB; user supplied 41.910 GiB. 
  Using in-core AOs.

  ==> MemDFJK: Density-Fitted J/K Matrices <==

    J tasked:                   Yes
    K tasked:                   Yes
    wK tasked:                   No
    OpenMP threads:               6
    Memory [MiB]:             42915
    Algorithm:                 Core
    Schwarz Cutoff:           1E-12
    Mask sparsity (%):       0.0000
    Fitting Condition:        1E-10

   => Auxiliary Basis Set <=

  Basis Set: (AUG-CC-PVTZ AUX)
    Blend: AUG-CC-PVTZ-JKFIT + DEF2-UNIVERSAL-JKFIT
    Number of shells: 130
    Number of basis functions: 466
    Number of Cartesian functions: 586
    Spherical Harmonics?: true
    Max angular momentum: 4

  Minimum eigenvalue in the overlap matrix is 1.0993503667E-05.
  Reciprocal condition number of the overlap matrix is 1.3578494617E-06.
    Using symmetric orthogonalization.

  ==> Pre-Iterations <==

  SCF Guess: Superposition of Atomic Densities via on-the-fly atomic UHF (no occupation information).

   -------------------------
    Irrep   Nso     Nmo    
   -------------------------
     A        168     168 
   -------------------------
    Total     168     168
   -------------------------

  ==> Iterations <==

                           Total Energy        Delta E     RMS |[F,P]|

   @DF-RHF iter SAD: -1198.10282019258534   -1.19810e+03   0.00000e+00 
   @DF-RHF iter   1: -1197.90762309145066    1.95197e-01   8.72386e-05 DIIS
   @DF-RHF iter   2: -1197.90778167990970   -1.58588e-04   1.62971e-05 DIIS
   @DF-RHF iter   3: -1197.90778758843703   -5.90853e-06   2.57316e-06 DIIS
   @DF-RHF iter   4: -1197.90778770659335   -1.18156e-07   4.25148e-07 DIIS
   @DF-RHF iter   5: -1197.90778771194641   -5.35306e-09   5.71746e-08 DIIS
   @DF-RHF iter   6: -1197.90778771204918   -1.02773e-10   1.09169e-08 DIIS
   @DF-RHF iter   7: -1197.90778771205350   -4.32010e-12   1.88916e-09 DIIS
  Energy and wave function converged.


  ==> Post-Iterations <==

    Orbital Energies [Eh]
    ---------------------

    Doubly Occupied:                                                      

       1A   -133.881972     2A   -133.881899     3A    -14.837257  
       4A    -14.837206     5A    -11.867401     6A    -11.867346  
       7A    -11.867299     8A    -11.867298     9A    -11.867245  
      10A    -11.867243    11A     -2.092109    12A     -2.091943  
      13A     -1.301611    14A     -1.299065    15A     -1.297817  
      16A     -1.297803    17A     -1.297576    18A     -1.297564  

    Virtual:                                                              

      19A     -0.296926    20A     -0.229197    21A     -0.227182  
      22A     -0.227144    23A     -0.192727    24A     -0.172569  
      25A     -0.172558    26A     -0.168254    27A     -0.168204  
      28A     -0.165425    29A     -0.153908    30A     -0.153777  
      31A     -0.145041    32A     -0.130306    33A     -0.129887  
      34A     -0.122704    35A     -0.119134    36A     -0.119104  
      37A     -0.116431    38A     -0.102978    39A     -0.102923  
      40A     -0.101365    41A     -0.101343    42A     -0.097562  
      43A     -0.094113    44A     -0.094033    45A     -0.090669  
      46A     -0.090599    47A     -0.090012    48A     -0.089734  
      49A     -0.089154    50A     -0.087429    51A     -0.084010  
      52A     -0.083740    53A     -0.075499    54A     -0.075420  
      55A     -0.075360    56A     -0.073498    57A     -0.068256  
      58A     -0.068202    59A     -0.067024    60A     -0.066984  
      61A     -0.065265    62A     -0.064740    63A     -0.063303  
      64A     -0.062179    65A     -0.062087    66A     -0.061705  
      67A     -0.061646    68A     -0.056879    69A     -0.055754  
      70A     -0.055147    71A     -0.054930    72A     -0.050895  
      73A     -0.050833    74A     -0.046725    75A     -0.036672  
      76A     -0.036560    77A     -0.023826    78A     -0.021916  
      79A     -0.015028    80A     -0.013942    81A     -0.013539  
      82A     -0.006810    83A     -0.006691    84A     -0.005795  
      85A     -0.005593    86A      0.000060    87A      0.001325  
      88A      0.011039    89A      0.011571    90A      0.021200  
      91A      0.035051    92A      0.054720    93A      0.057583  
      94A      0.059965    95A      0.064854    96A      0.092940  
      97A      0.096855    98A      0.104236    99A      0.105967  
     100A      0.111850   101A      0.116023   102A      0.118565  
     103A      0.126407   104A      0.129409   105A      0.135499  
     106A      0.139270   107A      0.142895   108A      0.143777  
     109A      0.144607   110A      0.168959   111A      0.175594  
     112A      0.175690   113A      0.188489   114A      0.189610  
     115A      0.201754   116A      0.204600   117A      0.234972  
     118A      0.242274   119A      0.244022   120A      0.249580  
     121A      0.252548   122A      0.288253   123A      0.292416  
     124A      0.320862   125A      0.355380   126A      0.358350  
     127A      0.375331   128A      0.395775   129A      0.437284  
     130A      0.813684   131A      0.875271   132A      0.977371  
     133A      0.990105   134A      1.005346   135A      1.014247  
     136A      1.027103   137A      1.051910   138A      1.067213  
     139A      1.110582   140A      1.163015   141A      1.175770  
     142A      1.208812   143A      1.270580   144A      1.300181  
     145A      1.308726   146A      1.326690   147A      1.358798  
     148A      3.592824   149A      3.595022   150A      3.609746  
     151A      3.621019   152A      3.629393   153A      3.633387  
     154A      3.669722   155A      3.671941   156A      3.742688  
     157A      3.771297   158A      3.907729   159A      4.374085  
     160A      4.390809   161A      4.407512   162A      4.428186  
     163A      4.438170   164A     13.849569   165A     27.448384  
     166A     27.568988   167A     27.608695   168A    160.439962  

    Final Occupation by Irrep:
              A 
    DOCC [    18 ]
    NA   [    18 ]
    NB   [    18 ]

  @DF-RHF Final Energy: -1197.90778771205350

   => Energetics <=

    Nuclear Repulsion Energy =             46.4378954219876761
    One-Electron Energy =               -1727.4560588124268179
    Two-Electron Energy =                 483.1103756783858216
    Total Energy =                      -1197.9077877120535049

Computation Completed


Properties will be evaluated at   0.000000,   0.000000,   0.000000 [a0]

Properties computed using the SCF density matrix


 Multipole Moments:

 ------------------------------------------------------------------------------------
     Multipole            Electronic (a.u.)      Nuclear  (a.u.)        Total (a.u.)
 ------------------------------------------------------------------------------------

 L = 1.  Multiply by 2.5417464519 to convert [e a0] to [Debye]
 Dipole X            :       -107.4967803          113.4683123            5.9715320
 Dipole Y            :        -89.5795560           94.5569329            4.9773769
 Dipole Z            :          0.0000000            0.0000000            0.0000000
 Magnitude           :                                                    7.7738970

 ------------------------------------------------------------------------------------

*** tstop() called on moses-razer at Wed Jan 24 05:36:59 2024
Module time:
	user time   =      22.09 seconds =       0.37 minutes
	system time =       2.54 seconds =       0.04 minutes
	total time  =         15 seconds =       0.25 minutes
Total time:
	user time   =      97.49 seconds =       1.62 minutes
	system time =       8.48 seconds =       0.14 minutes
	total time  =         72 seconds =       1.20 minutes

*** tstart() called on moses-razer
*** at Wed Jan 24 05:36:59 2024


  //>>>>>>>>>>>>>>>>>>>>>>>>>>>>>>>>>>>//
  //               DFMP2               //
  //<<<<<<<<<<<<<<<<<<<<<<<<<<<<<<<<<<<//

   => Loading Basis Set <=

    Name: (AUG-CC-PVTZ AUX)
    Role: RIFIT
    Keyword: DF_BASIS_MP2
    atoms 1   entry CL         line   742 file /home/kchung25/anaconda3/envs/p415env/share/psi4/basis/aug-cc-pvtz-ri.gbs 
    atoms 2-3 entry K          line  1282 file /home/kchung25/anaconda3/envs/p415env/share/psi4/basis/def2-qzvpp-ri.gbs 

	 --------------------------------------------------------
	                          DF-MP2                         
	      2nd-Order Density-Fitted Moller-Plesset Theory     
	              RMP2 Wavefunction,   6 Threads             
	                                                         
	        Rob Parrish, Justin Turney, Andy Simmonett,      
	           Ed Hohenstein, and C. David Sherrill          
	 --------------------------------------------------------

   => Auxiliary Basis Set <=

  Basis Set: (AUG-CC-PVTZ AUX)
    Blend: AUG-CC-PVTZ-RI + DEF2-QZVPP-RI
    Number of shells: 135
    Number of basis functions: 545
    Number of Cartesian functions: 715
    Spherical Harmonics?: true
    Max angular momentum: 4

	 --------------------------------------------------------
	                 NBF =   168, NAUX =   545
	 --------------------------------------------------------
	   CLASS    FOCC     OCC    AOCC    AVIR     VIR    FVIR
	   PAIRS       0      18      18     150     150       0
	 --------------------------------------------------------

	-----------------------------------------------------------
	 ==================> DF-MP2 Energies <==================== 
	-----------------------------------------------------------
	 Reference Energy          =   -1197.9077877120535049 [Eh]
	 Singles Energy            =      -0.0000000000000000 [Eh]
	 Same-Spin Energy          =      -0.0578977305341501 [Eh]
	 Opposite-Spin Energy      =      -0.1357472008172923 [Eh]
	 Correlation Energy        =      -0.1936449313514424 [Eh]
	 Total Energy              =   -1198.1014326434049053 [Eh]
	-----------------------------------------------------------
	 ================> DF-SCS-MP2 Energies <================== 
	-----------------------------------------------------------
	 SCS Same-Spin Scale       =       0.3333333333333333 [-]
	 SCS Opposite-Spin Scale   =       1.2000000000000000 [-]
	 SCS Same-Spin Energy      =      -0.0192992435113834 [Eh]
	 SCS Opposite-Spin Energy  =      -0.1628966409807508 [Eh]
	 SCS Correlation Energy    =      -0.1821958844921341 [Eh]
	 SCS Total Energy          =   -1198.0899835965456077 [Eh]
	-----------------------------------------------------------


*** tstop() called on moses-razer at Wed Jan 24 05:37:13 2024
Module time:
	user time   =      17.66 seconds =       0.29 minutes
	system time =       0.82 seconds =       0.01 minutes
	total time  =         14 seconds =       0.23 minutes
Total time:
	user time   =     115.16 seconds =       1.92 minutes
	system time =       9.30 seconds =       0.15 minutes
	total time  =         86 seconds =       1.43 minutes

    Psi4 stopped on: Wednesday, 24 January 2024 05:37AM
    Psi4 wall time for execution: 0:00:29.63


    -----------------------------------------------------------------------
          Psi4: An Open-Source Ab Initio Electronic Structure Package
                               Psi4 1.9 release

                         Git: Rev {} zzzzzzz 


    D. G. A. Smith, L. A. Burns, A. C. Simmonett, R. M. Parrish,
    M. C. Schieber, R. Galvelis, P. Kraus, H. Kruse, R. Di Remigio,
    A. Alenaizan, A. M. James, S. Lehtola, J. P. Misiewicz, M. Scheurer,
    R. A. Shaw, J. B. Schriber, Y. Xie, Z. L. Glick, D. A. Sirianni,
    J. S. O'Brien, J. M. Waldrop, A. Kumar, E. G. Hohenstein,
    B. P. Pritchard, B. R. Brooks, H. F. Schaefer III, A. Yu. Sokolov,
    K. Patkowski, A. E. DePrince III, U. Bozkaya, R. A. King,
    F. A. Evangelista, J. M. Turney, T. D. Crawford, C. D. Sherrill,
    J. Chem. Phys. 152(18) 184108 (2020). https://doi.org/10.1063/5.0006002

                            Additional Code Authors
    E. T. Seidl, C. L. Janssen, E. F. Valeev, M. L. Leininger,
    J. F. Gonthier, R. M. Richard, H. R. McAlexander, M. Saitow, X. Wang,
    P. Verma, M. H. Lechner, A. Jiang, S. Behnle, A. G. Heide,
    M. F. Herbst, and D. L. Poole

             Previous Authors, Complete List of Code Contributors,
                       and Citations for Specific Modules
    https://github.com/psi4/psi4/blob/master/codemeta.json
    https://github.com/psi4/psi4/graphs/contributors
    http://psicode.org/psi4manual/master/introduction.html#citing-psifour

    -----------------------------------------------------------------------


    Psi4 started on: Wednesday, 24 January 2024 05:35AM

    Process ID: 1194512
    Host:       moses-razer
    PSIDATADIR: /home/kchung25/anaconda3/envs/psi4_19/share/psi4
    Memory:     55.9 GiB
    Threads:    6
    
  ==> Input QCSchema <==

--------------------------------------------------------------------------
{'driver': 'energy',
 'extras': {'psiapi': True, 'wfn_qcvars_only': True},
 'id': None,
 'keywords': {'SCF_TYPE': 'DF', 'function_kwargs': {}},
 'model': {'basis': 'aug-cc-pvtz', 'method': 'mp2'},
 'molecule': {'atom_labels': ['', '', ''],
              'atomic_numbers': [17, 19, 19],
              'extras': {},
              'fix_com': True,
              'fix_orientation': True,
              'fix_symmetry': 'c1',
              'fragment_charges': [-1.0, 0.0, 1.0],
              'fragment_multiplicities': [1, 1, 1],
              'fragments': [[0], [1], [2]],
              'geometry': [0.0, 0.0, 0.0, 0.0, 4.976680678794962, 0.0, 5.972016436608729, 0.0, 0.0],
              'mass_numbers': [35, 39, 39],
              'masses': [34.968852682, 38.9637064864, 38.9637064864],
              'molecular_charge': 0.0,
              'molecular_multiplicity': 1,
              'name': 'dimer',
              'provenance': {'creator': 'QCElemental',
                             'routine': 'qcelemental.molparse.from_string',
                             'version': '0.27.1'},
              'real': [True, False, True],
              'schema_name': 'qcschema_molecule',
              'schema_version': 2,
              'symbols': ['Cl', 'K', 'K'],
              'validated': True},
 'protocols': {'stdout': True},
 'provenance': {'creator': 'QCElemental', 'routine': 'qcelemental.models.results', 'version': '0.27.1'},
 'schema_name': 'qcschema_input',
 'schema_version': 1}
--------------------------------------------------------------------------

Scratch directory: /scratch/
   => Libint2 <=

    Primary   basis highest AM E, G, H:  5, 4, 3
    Auxiliary basis highest AM E, G, H:  6, 5, 4
    Onebody   basis highest AM E, G, H:  6, 5, 4
    Solid Harmonics ordering:            gaussian

*** tstart() called on moses-razer
*** at Wed Jan 24 05:37:14 2024

   => Loading Basis Set <=

    Name: AUG-CC-PVTZ
    Role: ORBITAL
    Keyword: BASIS
    atoms 1   entry CL         line   988 file /home/kchung25/anaconda3/envs/p415env/share/psi4/basis/aug-cc-pvtz.gbs 
    atoms 2-3 entry K          line  1152 file /home/kchung25/anaconda3/envs/p415env/share/psi4/basis/aug-cc-pvtz.gbs 


         ---------------------------------------------------------
                                   SCF
               by Justin Turney, Rob Parrish, Andy Simmonett
                          and Daniel G. A. Smith
                              RHF Reference
                        6 Threads,  57220 MiB Core
         ---------------------------------------------------------

  ==> Geometry <==

    Molecular point group: c1
    Full point group: Cs

    Geometry (in Bohr), charge = 0, multiplicity = 1:

       Center              X                  Y                   Z               Mass       
    ------------   -----------------  -----------------  -----------------  -----------------
         CL           0.000000000000     0.000000000000     0.000000000000    34.968852682000
      Gh(K)           0.000000000000     4.976680678795     0.000000000000    38.963706486400
         K            5.972016436609     0.000000000000     0.000000000000    38.963706486400

  Running in c1 symmetry.

  Rotational constants: A =      0.06238  B =      0.04332  C =      0.02557 [cm^-1]
  Rotational constants: A =   1870.14430  B =   1298.71149  C =    766.45264 [MHz]
  Nuclear repulsion =   54.085584564033603

  Charge       = 0
  Multiplicity = 1
  Electrons    = 36
  Nalpha       = 18
  Nbeta        = 18

  ==> Algorithm <==

  SCF Algorithm Type is DF.
  DIIS enabled.
  MOM disabled.
  Fractional occupation disabled.
  Guess Type is SAD.
  Energy threshold   = 1.00e-08
  Density threshold  = 1.00e-08
  Integral threshold = 1.00e-12

  ==> Primary Basis <==

  Basis Set: AUG-CC-PVTZ
    Blend: AUG-CC-PVTZ
    Number of shells: 54
    Number of basis functions: 168
    Number of Cartesian functions: 197
    Spherical Harmonics?: true
    Max angular momentum: 3

   => Loading Basis Set <=

    Name: (AUG-CC-PVTZ AUX)
    Role: JKFIT
    Keyword: DF_BASIS_SCF
    atoms 1   entry CL         line   816 file /home/kchung25/anaconda3/envs/p415env/share/psi4/basis/aug-cc-pvtz-jkfit.gbs 
    atoms 2-3 entry K          line  1152 file /home/kchung25/anaconda3/envs/p415env/share/psi4/basis/def2-universal-jkfit.gbs 

  ==> Integral Setup <==

  DFHelper Memory: AOs need 0.107 GiB; user supplied 41.910 GiB. 
  Using in-core AOs.

  ==> MemDFJK: Density-Fitted J/K Matrices <==

    J tasked:                   Yes
    K tasked:                   Yes
    wK tasked:                   No
    OpenMP threads:               6
    Memory [MiB]:             42915
    Algorithm:                 Core
    Schwarz Cutoff:           1E-12
    Mask sparsity (%):       0.0000
    Fitting Condition:        1E-10

   => Auxiliary Basis Set <=

  Basis Set: (AUG-CC-PVTZ AUX)
    Blend: AUG-CC-PVTZ-JKFIT + DEF2-UNIVERSAL-JKFIT
    Number of shells: 130
    Number of basis functions: 466
    Number of Cartesian functions: 586
    Spherical Harmonics?: true
    Max angular momentum: 4

  Minimum eigenvalue in the overlap matrix is 1.0993503667E-05.
  Reciprocal condition number of the overlap matrix is 1.3578494617E-06.
    Using symmetric orthogonalization.

  ==> Pre-Iterations <==

  SCF Guess: Superposition of Atomic Densities via on-the-fly atomic UHF (no occupation information).

   -------------------------
    Irrep   Nso     Nmo    
   -------------------------
     A        168     168 
   -------------------------
    Total     168     168
   -------------------------

  ==> Iterations <==

                           Total Energy        Delta E     RMS |[F,P]|

   @DF-RHF iter SAD: -1058.18921298089526   -1.05819e+03   0.00000e+00 
   @DF-RHF iter   1: -1058.70166891042140   -5.12456e-01   1.78181e-03 DIIS/ADIIS
   @DF-RHF iter   2: -1058.75243057724651   -5.07617e-02   8.76111e-04 DIIS/ADIIS
   @DF-RHF iter   3: -1058.76053652673045   -8.10595e-03   6.02916e-05 DIIS
   @DF-RHF iter   4: -1058.76061095131354   -7.44246e-05   1.40873e-05 DIIS
   @DF-RHF iter   5: -1058.76061829173864   -7.34043e-06   3.78113e-06 DIIS
   @DF-RHF iter   6: -1058.76061894898749   -6.57249e-07   1.15048e-06 DIIS
   @DF-RHF iter   7: -1058.76061906028440   -1.11297e-07   2.38407e-07 DIIS
   @DF-RHF iter   8: -1058.76061906486848   -4.58408e-09   4.68175e-08 DIIS
   @DF-RHF iter   9: -1058.76061906502014   -1.51658e-10   1.11137e-08 DIIS
   @DF-RHF iter  10: -1058.76061906502878   -8.64020e-12   1.90922e-09 DIIS
  Energy and wave function converged.


  ==> Post-Iterations <==

    Orbital Energies [Eh]
    ---------------------

    Doubly Occupied:                                                      

       1A   -133.565984     2A   -104.671691     3A    -14.521940  
       4A    -11.551950     5A    -11.551942     6A    -11.551780  
       7A    -10.395484     8A     -7.861605     9A     -7.861459  
      10A     -7.861447    11A     -1.779104    12A     -0.987946  
      13A     -0.987939    14A     -0.983635    15A     -0.900258  
      16A     -0.324216    17A     -0.315504    18A     -0.315484  

    Virtual:                                                              

      19A     -0.022956    20A      0.001085    21A      0.001104  
      22A      0.001702    23A      0.008228    24A      0.012565  
      25A      0.012582    26A      0.015116    27A      0.017153  
      28A      0.017996    29A      0.018140    30A      0.018580  
      31A      0.021519    32A      0.022790    33A      0.023599  
      34A      0.027512    35A      0.027639    36A      0.028670  
      37A      0.030241    38A      0.034533    39A      0.036961  
      40A      0.038302    41A      0.048857    42A      0.049634  
      43A      0.053484    44A      0.054064    45A      0.057773  
      46A      0.062992    47A      0.065102    48A      0.066383  
      49A      0.070244    50A      0.071237    51A      0.076348  
      52A      0.082896    53A      0.084428    54A      0.091458  
      55A      0.092013    56A      0.094577    57A      0.103009  
      58A      0.113808    59A      0.125085    60A      0.126608  
      61A      0.129250    62A      0.131804    63A      0.137423  
      64A      0.138911    65A      0.143689    66A      0.144858  
      67A      0.154151    68A      0.161887    69A      0.162062  
      70A      0.164378    71A      0.169177    72A      0.170513  
      73A      0.186771    74A      0.192674    75A      0.194579  
      76A      0.197779    77A      0.199222    78A      0.206391  
      79A      0.210435    80A      0.211052    81A      0.237473  
      82A      0.239653    83A      0.242366    84A      0.250076  
      85A      0.260904    86A      0.285022    87A      0.290485  
      88A      0.290497    89A      0.304680    90A      0.314281  
      91A      0.329394    92A      0.339629    93A      0.376149  
      94A      0.383739    95A      0.383871    96A      0.389300  
      97A      0.398510    98A      0.402033    99A      0.407374  
     100A      0.410314   101A      0.421759   102A      0.424582  
     103A      0.427958   104A      0.462284   105A      0.467315  
     106A      0.477223   107A      0.484650   108A      0.496406  
     109A      0.501945   110A      0.507150   111A      0.521690  
     112A      0.523160   113A      0.548567   114A      0.564251  
     115A      0.569948   116A      0.595399   117A      0.607879  
     118A      0.608324   119A      0.632241   120A      0.656273  
     121A      0.765165   122A      0.859439   123A      0.936348  
     124A      1.013851   125A      1.097145   126A      1.114426  
     127A      1.151736   128A      1.178393   129A      1.195567  
     130A      1.206862   131A      1.292412   132A      1.314615  
     133A      1.339463   134A      1.365062   135A      1.367882  
     136A      1.381245   137A      1.384641   138A      1.404361  
     139A      1.926241   140A      1.935605   141A      2.020752  
     142A      2.057622   143A      2.084670   144A      2.240997  
     145A      2.331263   146A      2.383025   147A      2.621536  
     148A      2.755044   149A      2.755694   150A      2.771587  
     151A      2.809675   152A      2.910760   153A      2.935628  
     154A      3.080996   155A      3.082902   156A      3.245674  
     157A      3.254128   158A      3.256253   159A      3.269505  
     160A      3.341593   161A      3.344862   162A      3.379003  
     163A      5.804988   164A     10.165260   165A     30.342043  
     166A     30.471191   167A     30.797861   168A    197.603293  

    Final Occupation by Irrep:
              A 
    DOCC [    18 ]
    NA   [    18 ]
    NB   [    18 ]

  @DF-RHF Final Energy: -1058.76061906502878

   => Energetics <=

    Nuclear Repulsion Energy =             54.0855845640336028
    One-Electron Energy =               -1569.7136703456258147
    Two-Electron Energy =                 456.8674667165634560
    Total Energy =                      -1058.7606190650287772

Computation Completed


Properties will be evaluated at   0.000000,   0.000000,   0.000000 [a0]

Properties computed using the SCF density matrix


 Multipole Moments:

 ------------------------------------------------------------------------------------
     Multipole            Electronic (a.u.)      Nuclear  (a.u.)        Total (a.u.)
 ------------------------------------------------------------------------------------

 L = 1.  Multiply by 2.5417464519 to convert [e a0] to [Debye]
 Dipole X            :       -108.3095943          113.4683123            5.1587180
 Dipole Y            :          0.0014609            0.0000000            0.0014609
 Dipole Z            :         -0.0000000            0.0000000           -0.0000000
 Magnitude           :                                                    5.1587182

 ------------------------------------------------------------------------------------

*** tstop() called on moses-razer at Wed Jan 24 05:37:29 2024
Module time:
	user time   =      23.22 seconds =       0.39 minutes
	system time =       2.78 seconds =       0.05 minutes
	total time  =         15 seconds =       0.25 minutes
Total time:
	user time   =     138.60 seconds =       2.31 minutes
	system time =      12.08 seconds =       0.20 minutes
	total time  =        102 seconds =       1.70 minutes

*** tstart() called on moses-razer
*** at Wed Jan 24 05:37:29 2024


  //>>>>>>>>>>>>>>>>>>>>>>>>>>>>>>>>>>>//
  //               DFMP2               //
  //<<<<<<<<<<<<<<<<<<<<<<<<<<<<<<<<<<<//

   => Loading Basis Set <=

    Name: (AUG-CC-PVTZ AUX)
    Role: RIFIT
    Keyword: DF_BASIS_MP2
    atoms 1   entry CL         line   742 file /home/kchung25/anaconda3/envs/p415env/share/psi4/basis/aug-cc-pvtz-ri.gbs 
    atoms 2-3 entry K          line  1282 file /home/kchung25/anaconda3/envs/p415env/share/psi4/basis/def2-qzvpp-ri.gbs 

	 --------------------------------------------------------
	                          DF-MP2                         
	      2nd-Order Density-Fitted Moller-Plesset Theory     
	              RMP2 Wavefunction,   6 Threads             
	                                                         
	        Rob Parrish, Justin Turney, Andy Simmonett,      
	           Ed Hohenstein, and C. David Sherrill          
	 --------------------------------------------------------

   => Auxiliary Basis Set <=

  Basis Set: (AUG-CC-PVTZ AUX)
    Blend: AUG-CC-PVTZ-RI + DEF2-QZVPP-RI
    Number of shells: 135
    Number of basis functions: 545
    Number of Cartesian functions: 715
    Spherical Harmonics?: true
    Max angular momentum: 4

	 --------------------------------------------------------
	                 NBF =   168, NAUX =   545
	 --------------------------------------------------------
	   CLASS    FOCC     OCC    AOCC    AVIR     VIR    FVIR
	   PAIRS       0      18      18     150     150       0
	 --------------------------------------------------------

	-----------------------------------------------------------
	 ==================> DF-MP2 Energies <==================== 
	-----------------------------------------------------------
	 Reference Energy          =   -1058.7606190650287772 [Eh]
	 Singles Energy            =      -0.0000000000000000 [Eh]
	 Same-Spin Energy          =      -0.0921243781314214 [Eh]
	 Opposite-Spin Energy      =      -0.2470114017350264 [Eh]
	 Correlation Energy        =      -0.3391357798664478 [Eh]
	 Total Energy              =   -1059.0997548448951875 [Eh]
	-----------------------------------------------------------
	 ================> DF-SCS-MP2 Energies <================== 
	-----------------------------------------------------------
	 SCS Same-Spin Scale       =       0.3333333333333333 [-]
	 SCS Opposite-Spin Scale   =       1.2000000000000000 [-]
	 SCS Same-Spin Energy      =      -0.0307081260438071 [Eh]
	 SCS Opposite-Spin Energy  =      -0.2964136820820317 [Eh]
	 SCS Correlation Energy    =      -0.3271218081258388 [Eh]
	 SCS Total Energy          =   -1059.0877408731546439 [Eh]
	-----------------------------------------------------------


*** tstop() called on moses-razer at Wed Jan 24 05:37:43 2024
Module time:
	user time   =      17.43 seconds =       0.29 minutes
	system time =       0.86 seconds =       0.01 minutes
	total time  =         14 seconds =       0.23 minutes
Total time:
	user time   =     156.04 seconds =       2.60 minutes
	system time =      12.94 seconds =       0.22 minutes
	total time  =        116 seconds =       1.93 minutes

    Psi4 stopped on: Wednesday, 24 January 2024 05:37AM
    Psi4 wall time for execution: 0:00:29.85


    -----------------------------------------------------------------------
          Psi4: An Open-Source Ab Initio Electronic Structure Package
                               Psi4 1.9 release

                         Git: Rev {} zzzzzzz 


    D. G. A. Smith, L. A. Burns, A. C. Simmonett, R. M. Parrish,
    M. C. Schieber, R. Galvelis, P. Kraus, H. Kruse, R. Di Remigio,
    A. Alenaizan, A. M. James, S. Lehtola, J. P. Misiewicz, M. Scheurer,
    R. A. Shaw, J. B. Schriber, Y. Xie, Z. L. Glick, D. A. Sirianni,
    J. S. O'Brien, J. M. Waldrop, A. Kumar, E. G. Hohenstein,
    B. P. Pritchard, B. R. Brooks, H. F. Schaefer III, A. Yu. Sokolov,
    K. Patkowski, A. E. DePrince III, U. Bozkaya, R. A. King,
    F. A. Evangelista, J. M. Turney, T. D. Crawford, C. D. Sherrill,
    J. Chem. Phys. 152(18) 184108 (2020). https://doi.org/10.1063/5.0006002

                            Additional Code Authors
    E. T. Seidl, C. L. Janssen, E. F. Valeev, M. L. Leininger,
    J. F. Gonthier, R. M. Richard, H. R. McAlexander, M. Saitow, X. Wang,
    P. Verma, M. H. Lechner, A. Jiang, S. Behnle, A. G. Heide,
    M. F. Herbst, and D. L. Poole

             Previous Authors, Complete List of Code Contributors,
                       and Citations for Specific Modules
    https://github.com/psi4/psi4/blob/master/codemeta.json
    https://github.com/psi4/psi4/graphs/contributors
    http://psicode.org/psi4manual/master/introduction.html#citing-psifour

    -----------------------------------------------------------------------


    Psi4 started on: Wednesday, 24 January 2024 05:35AM

    Process ID: 1194512
    Host:       moses-razer
    PSIDATADIR: /home/kchung25/anaconda3/envs/psi4_19/share/psi4
    Memory:     55.9 GiB
    Threads:    6
    
  ==> Input QCSchema <==

--------------------------------------------------------------------------
{'driver': 'energy',
 'extras': {'psiapi': True, 'wfn_qcvars_only': True},
 'id': None,
 'keywords': {'SCF_TYPE': 'DF', 'function_kwargs': {}},
 'model': {'basis': 'aug-cc-pvtz', 'method': 'mp2'},
 'molecule': {'atom_labels': ['', '', ''],
              'atomic_numbers': [17, 19, 19],
              'extras': {},
              'fix_com': True,
              'fix_orientation': True,
              'fix_symmetry': 'c1',
              'fragment_charges': [-1.0, 1.0, 0.0],
              'fragment_multiplicities': [1, 1, 1],
              'fragments': [[0], [1], [2]],
              'geometry': [0.0, 0.0, 0.0, 0.0, 4.976680678794962, 0.0, 5.972016436608729, 0.0, 0.0],
              'mass_numbers': [35, 39, 39],
              'masses': [34.968852682, 38.9637064864, 38.9637064864],
              'molecular_charge': 0.0,
              'molecular_multiplicity': 1,
              'name': 'dimer',
              'provenance': {'creator': 'QCElemental',
                             'routine': 'qcelemental.molparse.from_string',
                             'version': '0.27.1'},
              'real': [True, True, False],
              'schema_name': 'qcschema_molecule',
              'schema_version': 2,
              'symbols': ['Cl', 'K', 'K'],
              'validated': True},
 'protocols': {'stdout': True},
 'provenance': {'creator': 'QCElemental', 'routine': 'qcelemental.models.results', 'version': '0.27.1'},
 'schema_name': 'qcschema_input',
 'schema_version': 1}
--------------------------------------------------------------------------

Scratch directory: /scratch/
   => Libint2 <=

    Primary   basis highest AM E, G, H:  5, 4, 3
    Auxiliary basis highest AM E, G, H:  6, 5, 4
    Onebody   basis highest AM E, G, H:  6, 5, 4
    Solid Harmonics ordering:            gaussian

*** tstart() called on moses-razer
*** at Wed Jan 24 05:37:43 2024

   => Loading Basis Set <=

    Name: AUG-CC-PVTZ
    Role: ORBITAL
    Keyword: BASIS
    atoms 1   entry CL         line   988 file /home/kchung25/anaconda3/envs/p415env/share/psi4/basis/aug-cc-pvtz.gbs 
    atoms 2-3 entry K          line  1152 file /home/kchung25/anaconda3/envs/p415env/share/psi4/basis/aug-cc-pvtz.gbs 


         ---------------------------------------------------------
                                   SCF
               by Justin Turney, Rob Parrish, Andy Simmonett
                          and Daniel G. A. Smith
                              RHF Reference
                        6 Threads,  57220 MiB Core
         ---------------------------------------------------------

  ==> Geometry <==

    Molecular point group: c1
    Full point group: Cs

    Geometry (in Bohr), charge = 0, multiplicity = 1:

       Center              X                  Y                   Z               Mass       
    ------------   -----------------  -----------------  -----------------  -----------------
         CL           0.000000000000     0.000000000000     0.000000000000    34.968852682000
         K            0.000000000000     4.976680678795     0.000000000000    38.963706486400
      Gh(K)           5.972016436609     0.000000000000     0.000000000000    38.963706486400

  Running in c1 symmetry.

  Rotational constants: A =      0.06238  B =      0.04332  C =      0.02557 [cm^-1]
  Rotational constants: A =   1870.14430  B =   1298.71149  C =    766.45264 [MHz]
  Nuclear repulsion =   64.902697369406113

  Charge       = 0
  Multiplicity = 1
  Electrons    = 36
  Nalpha       = 18
  Nbeta        = 18

  ==> Algorithm <==

  SCF Algorithm Type is DF.
  DIIS enabled.
  MOM disabled.
  Fractional occupation disabled.
  Guess Type is SAD.
  Energy threshold   = 1.00e-08
  Density threshold  = 1.00e-08
  Integral threshold = 1.00e-12

  ==> Primary Basis <==

  Basis Set: AUG-CC-PVTZ
    Blend: AUG-CC-PVTZ
    Number of shells: 54
    Number of basis functions: 168
    Number of Cartesian functions: 197
    Spherical Harmonics?: true
    Max angular momentum: 3

   => Loading Basis Set <=

    Name: (AUG-CC-PVTZ AUX)
    Role: JKFIT
    Keyword: DF_BASIS_SCF
    atoms 1   entry CL         line   816 file /home/kchung25/anaconda3/envs/p415env/share/psi4/basis/aug-cc-pvtz-jkfit.gbs 
    atoms 2-3 entry K          line  1152 file /home/kchung25/anaconda3/envs/p415env/share/psi4/basis/def2-universal-jkfit.gbs 

  ==> Integral Setup <==

  DFHelper Memory: AOs need 0.107 GiB; user supplied 41.910 GiB. 
  Using in-core AOs.

  ==> MemDFJK: Density-Fitted J/K Matrices <==

    J tasked:                   Yes
    K tasked:                   Yes
    wK tasked:                   No
    OpenMP threads:               6
    Memory [MiB]:             42915
    Algorithm:                 Core
    Schwarz Cutoff:           1E-12
    Mask sparsity (%):       0.0000
    Fitting Condition:        1E-10

   => Auxiliary Basis Set <=

  Basis Set: (AUG-CC-PVTZ AUX)
    Blend: AUG-CC-PVTZ-JKFIT + DEF2-UNIVERSAL-JKFIT
    Number of shells: 130
    Number of basis functions: 466
    Number of Cartesian functions: 586
    Spherical Harmonics?: true
    Max angular momentum: 4

  Minimum eigenvalue in the overlap matrix is 1.0993503667E-05.
  Reciprocal condition number of the overlap matrix is 1.3578494617E-06.
    Using symmetric orthogonalization.

  ==> Pre-Iterations <==

  SCF Guess: Superposition of Atomic Densities via on-the-fly atomic UHF (no occupation information).

   -------------------------
    Irrep   Nso     Nmo    
   -------------------------
     A        168     168 
   -------------------------
    Total     168     168
   -------------------------

  ==> Iterations <==

                           Total Energy        Delta E     RMS |[F,P]|

   @DF-RHF iter SAD: -1058.23454800547961   -1.05823e+03   0.00000e+00 
   @DF-RHF iter   1: -1058.70896316880339   -4.74415e-01   1.84708e-03 DIIS/ADIIS
   @DF-RHF iter   2: -1058.76090104756395   -5.19379e-02   8.60937e-04 DIIS/ADIIS
   @DF-RHF iter   3: -1058.76870270731729   -7.80166e-03   5.17878e-05 DIIS
   @DF-RHF iter   4: -1058.76875507424006   -5.23669e-05   9.74579e-06 DIIS
   @DF-RHF iter   5: -1058.76875839903482   -3.32479e-06   2.36189e-06 DIIS
   @DF-RHF iter   6: -1058.76875860050905   -2.01474e-07   7.11911e-07 DIIS
[...]
	 Reference Energy          =    -599.0175085516871150 [Eh]
	 Singles Energy            =      -0.0000000000000000 [Eh]
	 Same-Spin Energy          =      -0.0282176070363911 [Eh]
	 Opposite-Spin Energy      =      -0.0657995825897422 [Eh]
	 Correlation Energy        =      -0.0940171896261332 [Eh]
	 Total Energy              =    -599.1115257413132440 [Eh]
	-----------------------------------------------------------
	 ================> DF-SCS-MP2 Energies <================== 
	-----------------------------------------------------------
	 SCS Same-Spin Scale       =       0.3333333333333333 [-]
	 SCS Opposite-Spin Scale   =       1.2000000000000000 [-]
	 SCS Same-Spin Energy      =      -0.0094058690121304 [Eh]
	 SCS Opposite-Spin Energy  =      -0.0789594991076906 [Eh]
	 SCS Correlation Energy    =      -0.0883653681198210 [Eh]
	 SCS Total Energy          =    -599.1058739198069816 [Eh]
	-----------------------------------------------------------


*** tstop() called on moses-razer at Wed Jan 24 05:38:43 2024
Module time:
	user time   =      17.37 seconds =       0.29 minutes
	system time =       0.82 seconds =       0.01 minutes
	total time  =         15 seconds =       0.25 minutes
Total time:
	user time   =     236.08 seconds =       3.93 minutes
	system time =      19.91 seconds =       0.33 minutes
	total time  =        176 seconds =       2.93 minutes

    Psi4 stopped on: Wednesday, 24 January 2024 05:38AM
    Psi4 wall time for execution: 0:00:29.50


    -----------------------------------------------------------------------
          Psi4: An Open-Source Ab Initio Electronic Structure Package
                               Psi4 1.9 release

                         Git: Rev {} zzzzzzz 


    D. G. A. Smith, L. A. Burns, A. C. Simmonett, R. M. Parrish,
    M. C. Schieber, R. Galvelis, P. Kraus, H. Kruse, R. Di Remigio,
    A. Alenaizan, A. M. James, S. Lehtola, J. P. Misiewicz, M. Scheurer,
    R. A. Shaw, J. B. Schriber, Y. Xie, Z. L. Glick, D. A. Sirianni,
    J. S. O'Brien, J. M. Waldrop, A. Kumar, E. G. Hohenstein,
    B. P. Pritchard, B. R. Brooks, H. F. Schaefer III, A. Yu. Sokolov,
    K. Patkowski, A. E. DePrince III, U. Bozkaya, R. A. King,
    F. A. Evangelista, J. M. Turney, T. D. Crawford, C. D. Sherrill,
    J. Chem. Phys. 152(18) 184108 (2020). https://doi.org/10.1063/5.0006002

                            Additional Code Authors
    E. T. Seidl, C. L. Janssen, E. F. Valeev, M. L. Leininger,
    J. F. Gonthier, R. M. Richard, H. R. McAlexander, M. Saitow, X. Wang,
    P. Verma, M. H. Lechner, A. Jiang, S. Behnle, A. G. Heide,
    M. F. Herbst, and D. L. Poole

             Previous Authors, Complete List of Code Contributors,
                       and Citations for Specific Modules
    https://github.com/psi4/psi4/blob/master/codemeta.json
    https://github.com/psi4/psi4/graphs/contributors
    http://psicode.org/psi4manual/master/introduction.html#citing-psifour

    -----------------------------------------------------------------------


    Psi4 started on: Wednesday, 24 January 2024 05:35AM

    Process ID: 1194512
    Host:       moses-razer
    PSIDATADIR: /home/kchung25/anaconda3/envs/psi4_19/share/psi4
    Memory:     55.9 GiB
    Threads:    6
    
  ==> Input QCSchema <==

--------------------------------------------------------------------------
{'driver': 'energy',
 'extras': {'psiapi': True, 'wfn_qcvars_only': True},
 'id': None,
 'keywords': {'SCF_TYPE': 'DF', 'function_kwargs': {}},
 'model': {'basis': 'aug-cc-pvtz', 'method': 'mp2'},
 'molecule': {'atom_labels': ['', '', ''],
              'atomic_numbers': [17, 19, 19],
              'extras': {},
              'fix_com': True,
              'fix_orientation': True,
              'fix_symmetry': 'c1',
              'fragment_charges': [-1.0, 1.0, 1.0],
              'fragment_multiplicities': [1, 1, 1],
              'fragments': [[0], [1], [2]],
              'geometry': [0.0, 0.0, 0.0, 0.0, 4.976680678794962, 0.0, 5.972016436608729, 0.0, 0.0],
              'mass_numbers': [35, 39, 39],
              'masses': [34.968852682, 38.9637064864, 38.9637064864],
              'molecular_charge': 1.0,
              'molecular_multiplicity': 1,
              'name': 'dimer',
              'provenance': {'creator': 'QCElemental',
                             'routine': 'qcelemental.molparse.from_string',
                             'version': '0.27.1'},
              'real': [True, True, True],
              'schema_name': 'qcschema_molecule',
              'schema_version': 2,
              'symbols': ['Cl', 'K', 'K'],
              'validated': True},
 'protocols': {'stdout': True},
 'provenance': {'creator': 'QCElemental', 'routine': 'qcelemental.models.results', 'version': '0.27.1'},
 'schema_name': 'qcschema_input',
 'schema_version': 1}
--------------------------------------------------------------------------

Scratch directory: /scratch/
   => Libint2 <=

    Primary   basis highest AM E, G, H:  5, 4, 3
    Auxiliary basis highest AM E, G, H:  6, 5, 4
    Onebody   basis highest AM E, G, H:  6, 5, 4
    Solid Harmonics ordering:            gaussian

*** tstart() called on moses-razer
*** at Wed Jan 24 05:38:43 2024

   => Loading Basis Set <=

    Name: AUG-CC-PVTZ
    Role: ORBITAL
    Keyword: BASIS
    atoms 1   entry CL         line   988 file /home/kchung25/anaconda3/envs/p415env/share/psi4/basis/aug-cc-pvtz.gbs 
    atoms 2-3 entry K          line  1152 file /home/kchung25/anaconda3/envs/p415env/share/psi4/basis/aug-cc-pvtz.gbs 


         ---------------------------------------------------------
                                   SCF
               by Justin Turney, Rob Parrish, Andy Simmonett
                          and Daniel G. A. Smith
                              RHF Reference
                        6 Threads,  57220 MiB Core
         ---------------------------------------------------------

  ==> Geometry <==

    Molecular point group: c1
    Full point group: Cs

    Geometry (in Bohr), charge = 1, multiplicity = 1:

       Center              X                  Y                   Z               Mass       
    ------------   -----------------  -----------------  -----------------  -----------------
         CL           0.000000000000     0.000000000000     0.000000000000    34.968852682000
         K            0.000000000000     4.976680678795     0.000000000000    38.963706486400
         K            5.972016436609     0.000000000000     0.000000000000    38.963706486400

  Running in c1 symmetry.

  Rotational constants: A =      0.06238  B =      0.04332  C =      0.02557 [cm^-1]
  Rotational constants: A =   1870.14430  B =   1298.71149  C =    766.45264 [MHz]
  Nuclear repulsion =  165.426177355427399

  Charge       = 1
  Multiplicity = 1
  Electrons    = 54
  Nalpha       = 27
  Nbeta        = 27

  ==> Algorithm <==

  SCF Algorithm Type is DF.
  DIIS enabled.
  MOM disabled.
  Fractional occupation disabled.
  Guess Type is SAD.
  Energy threshold   = 1.00e-08
  Density threshold  = 1.00e-08
  Integral threshold = 1.00e-12

  ==> Primary Basis <==

  Basis Set: AUG-CC-PVTZ
    Blend: AUG-CC-PVTZ
    Number of shells: 54
    Number of basis functions: 168
    Number of Cartesian functions: 197
    Spherical Harmonics?: true
    Max angular momentum: 3

   => Loading Basis Set <=

    Name: (AUG-CC-PVTZ AUX)
    Role: JKFIT
    Keyword: DF_BASIS_SCF
    atoms 1   entry CL         line   816 file /home/kchung25/anaconda3/envs/p415env/share/psi4/basis/aug-cc-pvtz-jkfit.gbs 
    atoms 2-3 entry K          line  1152 file /home/kchung25/anaconda3/envs/p415env/share/psi4/basis/def2-universal-jkfit.gbs 

  ==> Integral Setup <==

  DFHelper Memory: AOs need 0.107 GiB; user supplied 41.910 GiB. 
  Using in-core AOs.

  ==> MemDFJK: Density-Fitted J/K Matrices <==

    J tasked:                   Yes
    K tasked:                   Yes
    wK tasked:                   No
    OpenMP threads:               6
    Memory [MiB]:             42915
    Algorithm:                 Core
    Schwarz Cutoff:           1E-12
    Mask sparsity (%):       0.0000
    Fitting Condition:        1E-10

   => Auxiliary Basis Set <=

  Basis Set: (AUG-CC-PVTZ AUX)
    Blend: AUG-CC-PVTZ-JKFIT + DEF2-UNIVERSAL-JKFIT
    Number of shells: 130
    Number of basis functions: 466
    Number of Cartesian functions: 586
    Spherical Harmonics?: true
    Max angular momentum: 4

  Minimum eigenvalue in the overlap matrix is 1.0993503667E-05.
  Reciprocal condition number of the overlap matrix is 1.3578494617E-06.
    Using symmetric orthogonalization.

  ==> Pre-Iterations <==

  SCF Guess: Superposition of Atomic Densities via on-the-fly atomic UHF (no occupation information).

   -------------------------
    Irrep   Nso     Nmo    
   -------------------------
     A        168     168 
   -------------------------
    Total     168     168
   -------------------------

  ==> Iterations <==

                           Total Energy        Delta E     RMS |[F,P]|

   @DF-RHF iter SAD: -1657.30991839827902   -1.65731e+03   0.00000e+00 
   @DF-RHF iter   1: -1657.76436500135492   -4.54447e-01   1.84772e-03 DIIS/ADIIS
   @DF-RHF iter   2: -1657.81587909595623   -5.15141e-02   8.37390e-04 DIIS/ADIIS
   @DF-RHF iter   3: -1657.82325858958302   -7.37949e-03   5.31638e-05 DIIS
   @DF-RHF iter   4: -1657.82332677901377   -6.81894e-05   1.28969e-05 DIIS
   @DF-RHF iter   5: -1657.82333341160256   -6.63259e-06   3.87080e-06 DIIS
   @DF-RHF iter   6: -1657.82333403490065   -6.23298e-07   1.12783e-06 DIIS
   @DF-RHF iter   7: -1657.82333412103731   -8.61367e-08   2.23409e-07 DIIS
   @DF-RHF iter   8: -1657.82333412420326   -3.16595e-09   4.91014e-08 DIIS
   @DF-RHF iter   9: -1657.82333412432718   -1.23919e-10   1.22355e-08 DIIS
   @DF-RHF iter  10: -1657.82333412433763   -1.04592e-11   2.87737e-09 DIIS
  Energy and wave function converged.


  ==> Post-Iterations <==

    Orbital Energies [Eh]
    ---------------------

    Doubly Occupied:                                                      

       1A   -133.698171     2A   -133.654127     3A   -104.848880  
       4A    -14.654236     5A    -14.611982     6A    -11.684283  
       7A    -11.684231     8A    -11.684096     9A    -11.641769  
      10A    -11.641694    11A    -11.641647    12A    -10.574920  
      13A     -8.040986    14A     -8.040901    15A     -8.040759  
      16A     -1.911413    17A     -1.875092    18A     -1.124866  
      19A     -1.120189    20A     -1.119314    21A     -1.109545  
      22A     -1.085062    23A     -1.083662    24A     -1.055238  
      25A     -0.510254    26A     -0.508818    27A     -0.501195  

    Virtual:                                                              

      28A     -0.129213    29A     -0.098501    30A     -0.084948  
      31A     -0.076581    32A     -0.065760    33A     -0.060928  
      34A     -0.056354    35A     -0.054794    36A     -0.045868  
      37A     -0.045177    38A     -0.042939    39A     -0.042451  
      40A     -0.037773    41A     -0.035481    42A     -0.035303  
      43A     -0.034190    44A     -0.031919    45A     -0.030632  
      46A     -0.030313    47A     -0.029706    48A     -0.029598  
      49A     -0.027537    50A     -0.023303    51A     -0.022682  
      52A     -0.020782    53A     -0.017140    54A     -0.016846  
      55A     -0.016522    56A     -0.015209    57A     -0.012455  
      58A     -0.008501    59A     -0.006638    60A     -0.005705  
      61A     -0.004985    62A     -0.002996    63A     -0.001732  
      64A     -0.000639    65A      0.004213    66A      0.011914  
      67A      0.019201    68A      0.020489    69A      0.021385  
      70A      0.026936    71A      0.028067    72A      0.031464  
      73A      0.034114    74A      0.038095    75A      0.045878  
      76A      0.046140    77A      0.049387    78A      0.053064  
      79A      0.054080    80A      0.058045    81A      0.061103  
      82A      0.062654    83A      0.066350    84A      0.076214  
      85A      0.076402    86A      0.081988    87A      0.084150  
      88A      0.087834    89A      0.093427    90A      0.095440  
      91A      0.101326    92A      0.106556    93A      0.129558  
      94A      0.135509    95A      0.136702    96A      0.142354  
      97A      0.148537    98A      0.150762    99A      0.160770  
     100A      0.172468   101A      0.176234   102A      0.203424  
     103A      0.243482   104A      0.253287   105A      0.254358  
     106A      0.258825   107A      0.262995   108A      0.267858  
     109A      0.277611   110A      0.279831   111A      0.282611  
     112A      0.284056   113A      0.290817   114A      0.295241  
     115A      0.300372   116A      0.307104   117A      0.307695  
     118A      0.311264   119A      0.325839   120A      0.328786  
     121A      0.335803   122A      0.349983   123A      0.355004  
     124A      0.362840   125A      0.378661   126A      0.387883  
     127A      0.401102   128A      0.417873   129A      0.430326  
     130A      0.435214   131A      0.440152   132A      0.465285  
     133A      0.500882   134A      0.523085   135A      0.706091  
     136A      0.778166   137A      0.853289   138A      0.926415  
     139A      0.974498   140A      0.975332   141A      0.992368  
     142A      1.015371   143A      1.039955   144A      1.134339  
     145A      1.176874   146A      1.181597   147A      1.184747  
     148A      1.192249   149A      1.216892   150A      1.234801  
     151A      1.263936   152A      1.292196   153A      2.551655  
     154A      2.574661   155A      2.588337   156A      2.612090  
     157A      2.621704   158A      2.741271   159A      2.843525  
     160A      2.890066   161A      3.059734   162A      3.065055  
     163A      3.068869   164A      3.078556   165A      3.094464  
     166A      3.098081   167A      3.130528   168A      5.592395  

    Final Occupation by Irrep:
              A 
    DOCC [    27 ]
    NA   [    27 ]
    NB   [    27 ]

  @DF-RHF Final Energy: -1657.82333412433763

   => Energetics <=

    Nuclear Repulsion Energy =            165.4261773554273987
    One-Electron Energy =               -2608.2043651512590259
    Two-Electron Energy =                 784.9548536714936517
    Total Energy =                      -1657.8233341243376344

Computation Completed


Properties will be evaluated at   0.000000,   0.000000,   0.000000 [a0]

Properties computed using the SCF density matrix


 Multipole Moments:

 ------------------------------------------------------------------------------------
     Multipole            Electronic (a.u.)      Nuclear  (a.u.)        Total (a.u.)
 ------------------------------------------------------------------------------------

 L = 1.  Multiply by 2.5417464519 to convert [e a0] to [Debye]
 Dipole X            :       -108.1967616          113.4683123            5.2715507
 Dipole Y            :        -90.3882066           94.5569329            4.1687263
 Dipole Z            :         -0.0000000            0.0000000           -0.0000000
 Magnitude           :                                                    6.7206790

 ------------------------------------------------------------------------------------

*** tstop() called on moses-razer at Wed Jan 24 05:38:58 2024
Module time:
	user time   =      22.93 seconds =       0.38 minutes
	system time =       2.73 seconds =       0.05 minutes
	total time  =         15 seconds =       0.25 minutes
Total time:
	user time   =     259.24 seconds =       4.32 minutes
	system time =      22.64 seconds =       0.38 minutes
	total time  =        191 seconds =       3.18 minutes

*** tstart() called on moses-razer
*** at Wed Jan 24 05:38:58 2024


  //>>>>>>>>>>>>>>>>>>>>>>>>>>>>>>>>>>>//
  //               DFMP2               //
  //<<<<<<<<<<<<<<<<<<<<<<<<<<<<<<<<<<<//

   => Loading Basis Set <=

    Name: (AUG-CC-PVTZ AUX)
    Role: RIFIT
    Keyword: DF_BASIS_MP2
    atoms 1   entry CL         line   742 file /home/kchung25/anaconda3/envs/p415env/share/psi4/basis/aug-cc-pvtz-ri.gbs 
    atoms 2-3 entry K          line  1282 file /home/kchung25/anaconda3/envs/p415env/share/psi4/basis/def2-qzvpp-ri.gbs 

	 --------------------------------------------------------
	                          DF-MP2                         
	      2nd-Order Density-Fitted Moller-Plesset Theory     
	              RMP2 Wavefunction,   6 Threads             
	                                                         
	        Rob Parrish, Justin Turney, Andy Simmonett,      
	           Ed Hohenstein, and C. David Sherrill          
	 --------------------------------------------------------

   => Auxiliary Basis Set <=

  Basis Set: (AUG-CC-PVTZ AUX)
    Blend: AUG-CC-PVTZ-RI + DEF2-QZVPP-RI
    Number of shells: 135
    Number of basis functions: 545
    Number of Cartesian functions: 715
    Spherical Harmonics?: true
    Max angular momentum: 4

	 --------------------------------------------------------
	                 NBF =   168, NAUX =   545
	 --------------------------------------------------------
	   CLASS    FOCC     OCC    AOCC    AVIR     VIR    FVIR
	   PAIRS       0      27      27     141     141       0
	 --------------------------------------------------------

	-----------------------------------------------------------
	 ==================> DF-MP2 Energies <==================== 
	-----------------------------------------------------------
	 Reference Energy          =   -1657.8233341243376344 [Eh]
	 Singles Energy            =      -0.0000000000000000 [Eh]
	 Same-Spin Energy          =      -0.1244006875656052 [Eh]
	 Opposite-Spin Energy      =      -0.3190296213291099 [Eh]
	 Correlation Energy        =      -0.4434303088947151 [Eh]
	 Total Energy              =   -1658.2667644332323107 [Eh]
	-----------------------------------------------------------
	 ================> DF-SCS-MP2 Energies <================== 
	-----------------------------------------------------------
	 SCS Same-Spin Scale       =       0.3333333333333333 [-]
	 SCS Opposite-Spin Scale   =       1.2000000000000000 [-]
	 SCS Same-Spin Energy      =      -0.0414668958552017 [Eh]
	 SCS Opposite-Spin Energy  =      -0.3828355455949319 [Eh]
	 SCS Correlation Energy    =      -0.4243024414501337 [Eh]
	 SCS Total Energy          =   -1658.2476365657878432 [Eh]
	-----------------------------------------------------------


*** tstop() called on moses-razer at Wed Jan 24 05:39:12 2024
Module time:
	user time   =      17.71 seconds =       0.30 minutes
	system time =       0.81 seconds =       0.01 minutes
	total time  =         14 seconds =       0.23 minutes
Total time:
	user time   =     276.95 seconds =       4.62 minutes
	system time =      23.45 seconds =       0.39 minutes
	total time  =        205 seconds =       3.42 minutes

    Psi4 stopped on: Wednesday, 24 January 2024 05:39AM
    Psi4 wall time for execution: 0:00:29.79


  //>>>>>>>>>>>>>>>>>>>>>>>>>>>>>>>>>>>//
  //          ManyBody Results         //
  //<<<<<<<<<<<<<<<<<<<<<<<<<<<<<<<<<<<//


   ==> N-Body: Counterpoise Corrected (CP) energies <==

        n-Body     Total Energy            Interaction Energy                          N-body Contribution to Interaction Energy
                   [Eh]                    [Eh]                  [kcal/mol]            [Eh]                  [kcal/mol]
             1  N/A                         0.000000000000        0.000000000000        0.000000000000        0.000000000000
             2  N/A                        -0.227833082948     -142.967417989597       -0.227833082948     -142.967417989597
  FULL/RTN   3  N/A                        -0.222216081676     -139.442696477651        0.005617001271        3.524721511946


    Psi4 stopped on: Wednesday, 24 January 2024 05:39AM
    Psi4 wall time for execution: 0:03:27.22

*** Psi4 exiting successfully. Buy a developer a beer!
