
    -----------------------------------------------------------------------
          Psi4: An Open-Source Ab Initio Electronic Structure Package
                               Psi4 1.9 release

                         Git: Rev {} zzzzzzz 


    D. G. A. Smith, L. A. Burns, A. C. Simmonett, R. M. Parrish,
    M. C. Schieber, R. Galvelis, P. Kraus, H. Kruse, R. Di Remigio,
    A. Alenaizan, A. M. James, S. Lehtola, J. P. Misiewicz, M. Scheurer,
    R. A. Shaw, J. B. Schriber, Y. Xie, Z. L. Glick, D. A. Sirianni,
    J. S. O'Brien, J. M. Waldrop, A. Kumar, E. G. Hohenstein,
    B. P. Pritchard, B. R. Brooks, H. F. Schaefer III, A. Yu. Sokolov,
    K. Patkowski, A. E. DePrince III, U. Bozkaya, R. A. King,
    F. A. Evangelista, J. M. Turney, T. D. Crawford, C. D. Sherrill,
    J. Chem. Phys. 152(18) 184108 (2020). https://doi.org/10.1063/5.0006002

                            Additional Code Authors
    E. T. Seidl, C. L. Janssen, E. F. Valeev, M. L. Leininger,
    J. F. Gonthier, R. M. Richard, H. R. McAlexander, M. Saitow, X. Wang,
    P. Verma, M. H. Lechner, A. Jiang, S. Behnle, A. G. Heide,
    M. F. Herbst, and D. L. Poole

             Previous Authors, Complete List of Code Contributors,
                       and Citations for Specific Modules
    https://github.com/psi4/psi4/blob/master/codemeta.json
    https://github.com/psi4/psi4/graphs/contributors
    http://psicode.org/psi4manual/master/introduction.html#citing-psifour

    -----------------------------------------------------------------------


    Psi4 started on: Wednesday, 24 January 2024 02:05PM

    Process ID: 1213364
    Host:       moses-razer
    PSIDATADIR: /home/kchung25/anaconda3/envs/psi4_19/share/psi4
    Memory:     500.0 MiB
    Threads:    6
    
  ==> Input File <==

--------------------------------------------------------------------------
MEMORY 60 GB

molecule dimer {
1 1
Gh(Cl)     0.000000     0.000000     0.000000
Gh(K)      0.000000     2.633546     0.000000
K          2.896901     0.000000     0.000000

units ang
no_reorient
no_com
symmetry c1
}

set {
basis        aug-cc-pVTZ
scf_type     df
}

energy("mp2")
--------------------------------------------------------------------------

  Memory set to  55.879 GiB by Python driver.

Scratch directory: /scratch/
   => Libint2 <=

    Primary   basis highest AM E, G, H:  5, 4, 3
    Auxiliary basis highest AM E, G, H:  6, 5, 4
    Onebody   basis highest AM E, G, H:  6, 5, 4
    Solid Harmonics ordering:            gaussian

*** tstart() called on moses-razer
*** at Wed Jan 24 14:05:29 2024

   => Loading Basis Set <=

    Name: AUG-CC-PVTZ
    Role: ORBITAL
    Keyword: BASIS
    atoms 1   entry CL         line   988 file /home/kchung25/anaconda3/envs/p415env/share/psi4/basis/aug-cc-pvtz.gbs 
    atoms 2-3 entry K          line  1152 file /home/kchung25/anaconda3/envs/p415env/share/psi4/basis/aug-cc-pvtz.gbs 


         ---------------------------------------------------------
                                   SCF
               by Justin Turney, Rob Parrish, Andy Simmonett
                          and Daniel G. A. Smith
                              RHF Reference
                        6 Threads,  57220 MiB Core
         ---------------------------------------------------------

  ==> Geometry <==

    Molecular point group: c1
    Full point group: Cs

    Geometry (in Angstrom), charge = 1, multiplicity = 1:

       Center              X                  Y                   Z               Mass       
    ------------   -----------------  -----------------  -----------------  -----------------
      Gh(CL)          0.000000000000     0.000000000000     0.000000000000    34.968852682000
      Gh(K)           0.000000000000     2.633546000000     0.000000000000    38.963706486400
         K            2.896901000000     0.000000000000     0.000000000000    38.963706486400

  Running in c1 symmetry.

  Rotational constants: A =      0.06238  B =      0.05155  C =      0.02823 [cm^-1]
  Rotational constants: A =   1870.14430  B =   1545.57338  C =    846.21901 [MHz]
  Nuclear repulsion =    0.000000000000000

  Charge       = 1
  Multiplicity = 1
  Electrons    = 18
  Nalpha       = 9
  Nbeta        = 9

  ==> Algorithm <==

  SCF Algorithm Type is DF.
  DIIS enabled.
  MOM disabled.
  Fractional occupation disabled.
  Guess Type is SAD.
  Energy threshold   = 1.00e-08
  Density threshold  = 1.00e-08
  Integral threshold = 1.00e-12

  ==> Primary Basis <==

  Basis Set: AUG-CC-PVTZ
    Blend: AUG-CC-PVTZ
    Number of shells: 54
    Number of basis functions: 168
    Number of Cartesian functions: 197
    Spherical Harmonics?: true
    Max angular momentum: 3

   => Loading Basis Set <=

    Name: (AUG-CC-PVTZ AUX)
    Role: JKFIT
    Keyword: DF_BASIS_SCF
    atoms 1   entry CL         line   816 file /home/kchung25/anaconda3/envs/p415env/share/psi4/basis/aug-cc-pvtz-jkfit.gbs 
    atoms 2-3 entry K          line  1152 file /home/kchung25/anaconda3/envs/p415env/share/psi4/basis/def2-universal-jkfit.gbs 

  ==> Integral Setup <==

  DFHelper Memory: AOs need 0.107 GiB; user supplied 41.910 GiB. 
  Using in-core AOs.

  ==> MemDFJK: Density-Fitted J/K Matrices <==

    J tasked:                   Yes
    K tasked:                   Yes
    wK tasked:                   No
    OpenMP threads:               6
    Memory [MiB]:             42915
    Algorithm:                 Core
    Schwarz Cutoff:           1E-12
    Mask sparsity (%):       0.0000
    Fitting Condition:        1E-10

   => Auxiliary Basis Set <=

  Basis Set: (AUG-CC-PVTZ AUX)
    Blend: AUG-CC-PVTZ-JKFIT + DEF2-UNIVERSAL-JKFIT
    Number of shells: 130
    Number of basis functions: 466
    Number of Cartesian functions: 586
    Spherical Harmonics?: true
    Max angular momentum: 4

  Minimum eigenvalue in the overlap matrix is 8.7741044443E-06.
  Reciprocal condition number of the overlap matrix is 1.0753965249E-06.
    Using symmetric orthogonalization.

  ==> Pre-Iterations <==

  SCF Guess: Superposition of Atomic Densities via on-the-fly atomic UHF (no occupation information).

   -------------------------
    Irrep   Nso     Nmo    
   -------------------------
     A        168     168 
   -------------------------
    Total     168     168
   -------------------------

  ==> Iterations <==

                           Total Energy        Delta E     RMS |[F,P]|

   @DF-RHF iter SAD:  -599.05151511928398   -5.99052e+02   0.00000e+00 
   @DF-RHF iter   1:  -599.01748199433132    3.40331e-02   3.89344e-05 DIIS
   @DF-RHF iter   2:  -599.01750847289486   -2.64786e-05   5.23889e-06 DIIS
   @DF-RHF iter   3:  -599.01750909666680   -6.23772e-07   4.21987e-07 DIIS
   @DF-RHF iter   4:  -599.01750909990176   -3.23496e-09   4.53108e-08 DIIS
   @DF-RHF iter   5:  -599.01750909993984   -3.80851e-11   8.87594e-09 DIIS
  Energy and wave function converged.


  ==> Post-Iterations <==

    Orbital Energies [Eh]
    ---------------------

    Doubly Occupied:                                                      

       1A   -133.753505     2A    -14.709008     3A    -11.739074  
       4A    -11.739069     5A    -11.739067     6A     -1.964272  
       7A     -1.170913     8A     -1.170870     9A     -1.170856  

    Virtual:                                                              

      10A     -0.146971    11A     -0.095560    12A     -0.095554  
      13A     -0.095552    14A     -0.060913    15A     -0.057908  
      16A     -0.057879    17A     -0.057848    18A     -0.057783  
      19A     -0.057768    20A     -0.045545    21A     -0.045537  
      22A     -0.045537    23A     -0.032530    24A     -0.032386  
      25A     -0.032366    26A     -0.031299    27A     -0.031267  
      28A     -0.031040    29A     -0.029963    30A     -0.029954  
      31A     -0.029625    32A     -0.028663    33A     -0.028644  
      34A     -0.022808    35A     -0.018622    36A     -0.018518  
      37A     -0.016073    38A     -0.016024    39A     -0.012698  
      40A     -0.009514    41A     -0.009225    42A     -0.005422  
      43A     -0.005200    44A     -0.005139    45A     -0.000619  
      46A      0.006804    47A      0.007732    48A      0.008084  
      49A      0.014180    50A      0.015041    51A      0.015824  
      52A      0.016402    53A      0.017337    54A      0.021134  
      55A      0.021707    56A      0.026041    57A      0.033168  
      58A      0.034704    59A      0.038461    60A      0.040402  
      61A      0.057819    62A      0.062624    63A      0.063284  
      64A      0.067812    65A      0.072136    66A      0.073152  
      67A      0.077520    68A      0.084771    69A      0.089225  
      70A      0.099958    71A      0.100590    72A      0.105178  
      73A      0.108760    74A      0.111886    75A      0.113852  
      76A      0.122005    77A      0.127605    78A      0.150200  
      79A      0.153167    80A      0.159103    81A      0.162072  
      82A      0.171662    83A      0.190419    84A      0.201643  
      85A      0.208884    86A      0.231641    87A      0.239827  
      88A      0.240101    89A      0.243234    90A      0.244768  
      91A      0.251859    92A      0.261811    93A      0.270982  
      94A      0.271995    95A      0.281428    96A      0.314395  
      97A      0.329526    98A      0.333833    99A      0.334133  
     100A      0.339099   101A      0.347571   102A      0.369454  
     103A      0.378934   104A      0.399018   105A      0.405924  
     106A      0.410254   107A      0.431051   108A      0.432712  
     109A      0.458543   110A      0.471225   111A      0.484134  
     112A      0.496504   113A      0.504093   114A      0.521945  
     115A      0.557339   116A      0.607265   117A      1.037571  
     118A      1.120908   119A      1.144413   120A      1.158628  
     121A      1.158853   122A      1.193917   123A      1.208138  
     124A      1.223329   125A      1.224976   126A      1.272644  
     127A      1.344145   128A      1.362563   129A      1.381008  
     130A      1.444593   131A      1.452208   132A      1.454625  
     133A      1.483036   134A      1.743780   135A      1.820316  
     136A      1.880286   137A      1.881809   138A      1.952261  
     139A      2.099843   140A      2.194927   141A      2.249298  
     142A      2.563106   143A      3.775709   144A      3.781137  
     145A      3.796910   146A      3.808003   147A      3.826163  
     148A      3.848729   149A      3.882196   150A      3.883422  
     151A      3.935658   152A      3.962407   153A      4.127790  
     154A      4.552988   155A      4.578547   156A      4.591583  
     157A      4.611751   158A      4.624396   159A      9.992328  
     160A     14.051982   161A     27.637304   162A     27.749856  
     163A     27.802204   164A     30.149841   165A     30.281841  
     166A     30.636562   167A    160.624645   168A    197.457541  

    Final Occupation by Irrep:
              A 
    DOCC [     9 ]
    NA   [     9 ]
    NB   [     9 ]

  @DF-RHF Final Energy:  -599.01750909993984

   => Energetics <=

    Nuclear Repulsion Energy =              0.0000000000000000
    One-Electron Energy =                -819.7217540266148035
    Two-Electron Energy =                 220.7042449266749884
    Total Energy =                       -599.0175090999398435

Computation Completed


Properties will be evaluated at   0.000000,   0.000000,   0.000000 [a0]

Properties computed using the SCF density matrix


 Multipole Moments:

 ------------------------------------------------------------------------------------
     Multipole            Electronic (a.u.)      Nuclear  (a.u.)        Total (a.u.)
 ------------------------------------------------------------------------------------

 L = 1.  Multiply by 2.5417464519 to convert [e a0] to [Debye]
 Dipole X            :        -98.5386943          104.0126405            5.4739463
 Dipole Y            :          0.0001414            0.0000000            0.0001414
 Dipole Z            :          0.0000000            0.0000000            0.0000000
 Magnitude           :                                                    5.4739463

 ------------------------------------------------------------------------------------

*** tstop() called on moses-razer at Wed Jan 24 14:05:44 2024
Module time:
	user time   =      21.23 seconds =       0.35 minutes
	system time =       2.80 seconds =       0.05 minutes
	total time  =         15 seconds =       0.25 minutes
Total time:
	user time   =      21.23 seconds =       0.35 minutes
	system time =       2.80 seconds =       0.05 minutes
	total time  =         15 seconds =       0.25 minutes

*** tstart() called on moses-razer
*** at Wed Jan 24 14:05:44 2024


  //>>>>>>>>>>>>>>>>>>>>>>>>>>>>>>>>>>>//
  //               DFMP2               //
  //<<<<<<<<<<<<<<<<<<<<<<<<<<<<<<<<<<<//

   => Loading Basis Set <=

    Name: (AUG-CC-PVTZ AUX)
    Role: RIFIT
    Keyword: DF_BASIS_MP2
    atoms 1   entry CL         line   742 file /home/kchung25/anaconda3/envs/p415env/share/psi4/basis/aug-cc-pvtz-ri.gbs 
    atoms 2-3 entry K          line  1282 file /home/kchung25/anaconda3/envs/p415env/share/psi4/basis/def2-qzvpp-ri.gbs 

	 --------------------------------------------------------
	                          DF-MP2                         
	      2nd-Order Density-Fitted Moller-Plesset Theory     
	              RMP2 Wavefunction,   6 Threads             
	                                                         
	        Rob Parrish, Justin Turney, Andy Simmonett,      
	           Ed Hohenstein, and C. David Sherrill          
	 --------------------------------------------------------

   => Auxiliary Basis Set <=

  Basis Set: (AUG-CC-PVTZ AUX)
    Blend: AUG-CC-PVTZ-RI + DEF2-QZVPP-RI
    Number of shells: 135
    Number of basis functions: 545
    Number of Cartesian functions: 715
    Spherical Harmonics?: true
    Max angular momentum: 4

	 --------------------------------------------------------
	                 NBF =   168, NAUX =   545
	 --------------------------------------------------------
	   CLASS    FOCC     OCC    AOCC    AVIR     VIR    FVIR
	   PAIRS       0       9       9     159     159       0
	 --------------------------------------------------------

	-----------------------------------------------------------
	 ==================> DF-MP2 Energies <==================== 
	-----------------------------------------------------------
	 Reference Energy          =    -599.0175090999398435 [Eh]
	 Singles Energy            =      -0.0000000000000000 [Eh]
	 Same-Spin Energy          =      -0.0289436416715322 [Eh]
	 Opposite-Spin Energy      =      -0.0678254909366885 [Eh]
	 Correlation Energy        =      -0.0967691326082207 [Eh]
	 Total Energy              =    -599.1142782325480312 [Eh]
	-----------------------------------------------------------
	 ================> DF-SCS-MP2 Energies <================== 
	-----------------------------------------------------------
	 SCS Same-Spin Scale       =       0.3333333333333333 [-]
	 SCS Opposite-Spin Scale   =       1.2000000000000000 [-]
	 SCS Same-Spin Energy      =      -0.0096478805571774 [Eh]
	 SCS Opposite-Spin Energy  =      -0.0813905891240262 [Eh]
	 SCS Correlation Energy    =      -0.0910384696812036 [Eh]
	 SCS Total Energy          =    -599.1085475696210096 [Eh]
	-----------------------------------------------------------


*** tstop() called on moses-razer at Wed Jan 24 14:05:58 2024
Module time:
	user time   =      17.02 seconds =       0.28 minutes
	system time =       0.87 seconds =       0.01 minutes
	total time  =         14 seconds =       0.23 minutes
Total time:
	user time   =      38.25 seconds =       0.64 minutes
	system time =       3.68 seconds =       0.06 minutes
	total time  =         29 seconds =       0.48 minutes

    Psi4 stopped on: Wednesday, 24 January 2024 02:05PM
    Psi4 wall time for execution: 0:00:29.26

*** Psi4 exiting successfully. Buy a developer a beer!
