
    -----------------------------------------------------------------------
          Psi4: An Open-Source Ab Initio Electronic Structure Package
                               Psi4 1.9 release

                         Git: Rev {} zzzzzzz 


    D. G. A. Smith, L. A. Burns, A. C. Simmonett, R. M. Parrish,
    M. C. Schieber, R. Galvelis, P. Kraus, H. Kruse, R. Di Remigio,
    A. Alenaizan, A. M. James, S. Lehtola, J. P. Misiewicz, M. Scheurer,
    R. A. Shaw, J. B. Schriber, Y. Xie, Z. L. Glick, D. A. Sirianni,
    J. S. O'Brien, J. M. Waldrop, A. Kumar, E. G. Hohenstein,
    B. P. Pritchard, B. R. Brooks, H. F. Schaefer III, A. Yu. Sokolov,
    K. Patkowski, A. E. DePrince III, U. Bozkaya, R. A. King,
    F. A. Evangelista, J. M. Turney, T. D. Crawford, C. D. Sherrill,
    J. Chem. Phys. 152(18) 184108 (2020). https://doi.org/10.1063/5.0006002

                            Additional Code Authors
    E. T. Seidl, C. L. Janssen, E. F. Valeev, M. L. Leininger,
    J. F. Gonthier, R. M. Richard, H. R. McAlexander, M. Saitow, X. Wang,
    P. Verma, M. H. Lechner, A. Jiang, S. Behnle, A. G. Heide,
    M. F. Herbst, and D. L. Poole

             Previous Authors, Complete List of Code Contributors,
                       and Citations for Specific Modules
    https://github.com/psi4/psi4/blob/master/codemeta.json
    https://github.com/psi4/psi4/graphs/contributors
    http://psicode.org/psi4manual/master/introduction.html#citing-psifour

    -----------------------------------------------------------------------


    Psi4 started on: Wednesday, 24 January 2024 02:02PM

    Process ID: 1213224
    Host:       moses-razer
    PSIDATADIR: /home/kchung25/anaconda3/envs/psi4_19/share/psi4
    Memory:     500.0 MiB
    Threads:    6
    
  ==> Input File <==

--------------------------------------------------------------------------
MEMORY 60 GB

molecule dimer {
-1 1
Cl         0.000000     0.000000     0.000000
Gh(K)      0.000000     2.633546     0.000000
Gh(K)      2.633546     0.000000     0.000000

units ang
no_reorient
no_com
symmetry c1
}

set {
basis        aug-cc-pVTZ
scf_type     df
}

energy("mp2")
--------------------------------------------------------------------------

  Memory set to  55.879 GiB by Python driver.

Scratch directory: /scratch/
   => Libint2 <=

    Primary   basis highest AM E, G, H:  5, 4, 3
    Auxiliary basis highest AM E, G, H:  6, 5, 4
    Onebody   basis highest AM E, G, H:  6, 5, 4
    Solid Harmonics ordering:            gaussian

*** tstart() called on moses-razer
*** at Wed Jan 24 14:02:35 2024

   => Loading Basis Set <=

    Name: AUG-CC-PVTZ
    Role: ORBITAL
    Keyword: BASIS
    atoms 1   entry CL         line   988 file /home/kchung25/anaconda3/envs/p415env/share/psi4/basis/aug-cc-pvtz.gbs 
    atoms 2-3 entry K          line  1152 file /home/kchung25/anaconda3/envs/p415env/share/psi4/basis/aug-cc-pvtz.gbs 


         ---------------------------------------------------------
                                   SCF
               by Justin Turney, Rob Parrish, Andy Simmonett
                          and Daniel G. A. Smith
                              RHF Reference
                        6 Threads,  57220 MiB Core
         ---------------------------------------------------------

  ==> Geometry <==

    Molecular point group: c1
    Full point group: D1

    Geometry (in Angstrom), charge = -1, multiplicity = 1:

       Center              X                  Y                   Z               Mass       
    ------------   -----------------  -----------------  -----------------  -----------------
         CL           0.000000000000     0.000000000000     0.000000000000    34.968852682000
      Gh(K)           0.000000000000     2.633546000000     0.000000000000    38.963706486400
      Gh(K)           2.633546000000     0.000000000000     0.000000000000    38.963706486400

  Running in c1 symmetry.

  Rotational constants: A =      0.06238  B =      0.06238  C =      0.03119 [cm^-1]
  Rotational constants: A =   1870.14430  B =   1870.14430  C =    935.07215 [MHz]
  Nuclear repulsion =    0.000000000000000

  Charge       = -1
  Multiplicity = 1
  Electrons    = 18
  Nalpha       = 9
  Nbeta        = 9

  ==> Algorithm <==

  SCF Algorithm Type is DF.
  DIIS enabled.
  MOM disabled.
  Fractional occupation disabled.
  Guess Type is SAD.
  Energy threshold   = 1.00e-08
  Density threshold  = 1.00e-08
  Integral threshold = 1.00e-12

  ==> Primary Basis <==

  Basis Set: AUG-CC-PVTZ
    Blend: AUG-CC-PVTZ
    Number of shells: 54
    Number of basis functions: 168
    Number of Cartesian functions: 197
    Spherical Harmonics?: true
    Max angular momentum: 3

   => Loading Basis Set <=

    Name: (AUG-CC-PVTZ AUX)
    Role: JKFIT
    Keyword: DF_BASIS_SCF
    atoms 1   entry CL         line   816 file /home/kchung25/anaconda3/envs/p415env/share/psi4/basis/aug-cc-pvtz-jkfit.gbs 
    atoms 2-3 entry K          line  1152 file /home/kchung25/anaconda3/envs/p415env/share/psi4/basis/def2-universal-jkfit.gbs 

  ==> Integral Setup <==

  DFHelper Memory: AOs need 0.107 GiB; user supplied 41.910 GiB. 
  Using in-core AOs.

  ==> MemDFJK: Density-Fitted J/K Matrices <==

    J tasked:                   Yes
    K tasked:                   Yes
    wK tasked:                   No
    OpenMP threads:               6
    Memory [MiB]:             42915
    Algorithm:                 Core
    Schwarz Cutoff:           1E-12
    Mask sparsity (%):       0.0000
    Fitting Condition:        1E-10

   => Auxiliary Basis Set <=

  Basis Set: (AUG-CC-PVTZ AUX)
    Blend: AUG-CC-PVTZ-JKFIT + DEF2-UNIVERSAL-JKFIT
    Number of shells: 130
    Number of basis functions: 466
    Number of Cartesian functions: 586
    Spherical Harmonics?: true
    Max angular momentum: 4

  Minimum eigenvalue in the overlap matrix is 7.2994934510E-06.
  Reciprocal condition number of the overlap matrix is 8.8877529509E-07.
    Using symmetric orthogonalization.

  ==> Pre-Iterations <==

  SCF Guess: Superposition of Atomic Densities via on-the-fly atomic UHF (no occupation information).

   -------------------------
    Irrep   Nso     Nmo    
   -------------------------
     A        168     168 
   -------------------------
    Total     168     168
   -------------------------

  ==> Iterations <==

                           Total Energy        Delta E     RMS |[F,P]|

   @DF-RHF iter SAD:  -459.11248998423252   -4.59112e+02   0.00000e+00 
   @DF-RHF iter   1:  -459.51384053659444   -4.01351e-01   1.77568e-03 DIIS/ADIIS
   @DF-RHF iter   2:  -459.56474499903265   -5.09045e-02   9.08566e-04 DIIS/ADIIS
   @DF-RHF iter   3:  -459.57345123892554   -8.70624e-03   6.07483e-05 DIIS
   @DF-RHF iter   4:  -459.57350614375355   -5.49048e-05   1.23600e-05 DIIS
   @DF-RHF iter   5:  -459.57350977441570   -3.63066e-06   1.25376e-06 DIIS
   @DF-RHF iter   6:  -459.57350985623282   -8.18171e-08   1.10719e-07 DIIS
   @DF-RHF iter   7:  -459.57350985720171   -9.68896e-10   1.36029e-08 DIIS
   @DF-RHF iter   8:  -459.57350985722417   -2.24532e-11   1.67635e-09 DIIS
  Energy and wave function converged.


  ==> Post-Iterations <==

    Orbital Energies [Eh]
    ---------------------

    Doubly Occupied:                                                      

       1A   -104.506441     2A    -10.229858     3A     -7.695911  
       4A     -7.695898     5A     -7.695894     6A     -0.733493  
       7A     -0.150326     8A     -0.150323     9A     -0.150320  

    Virtual:                                                              

      10A      0.049898    11A      0.049946    12A      0.052430  
      13A      0.055337    14A      0.059704    15A      0.060059  
      16A      0.065911    17A      0.066674    18A      0.073504  
      19A      0.073547    20A      0.073889    21A      0.074054  
      22A      0.078508    23A      0.080042    24A      0.081233  
      25A      0.082645    26A      0.087089    27A      0.092072  
      28A      0.112518    29A      0.112867    30A      0.113581  
      31A      0.121294    32A      0.121576    33A      0.123077  
      34A      0.140509    35A      0.144754    36A      0.148351  
      37A      0.149702    38A      0.152417    39A      0.152779  
      40A      0.153212    41A      0.158157    42A      0.162794  
      43A      0.164950    44A      0.165153    45A      0.181100  
      46A      0.210441    47A      0.211512    48A      0.224572  
      49A      0.232857    50A      0.239370    51A      0.239467  
      52A      0.247088    53A      0.248188    54A      0.254127  
      55A      0.258405    56A      0.260230    57A      0.266441  
      58A      0.268546    59A      0.274979    60A      0.277798  
      61A      0.281566    62A      0.284687    63A      0.285398  
      64A      0.287962    65A      0.290030    66A      0.303533  
      67A      0.326863    68A      0.345876    69A      0.352454  
      70A      0.360613    71A      0.372506    72A      0.383690  
      73A      0.397019    74A      0.403226    75A      0.403833  
      76A      0.411639    77A      0.430242    78A      0.442430  
      79A      0.444034    80A      0.446776    81A      0.483867  
      82A      0.497405    83A      0.523081    84A      0.543204  
      85A      0.546353    86A      0.562458    87A      0.588834  
      88A      0.590467    89A      0.606326    90A      0.614583  
      91A      0.616214    92A      0.619357    93A      0.625909  
      94A      0.633752    95A      0.655209    96A      0.662659  
      97A      0.663367    98A      0.669625    99A      0.680107  
     100A      0.703900   101A      0.725380   102A      0.727493  
     103A      0.733855   104A      0.745097   105A      0.767830  
     106A      0.769765   107A      0.837641   108A      0.935995  
     109A      1.018381   110A      1.129742   111A      1.144650  
     112A      1.275517   113A      1.301644   114A      1.338950  
     115A      1.341069   116A      1.366258   117A      1.421170  
     118A      1.469546   119A      1.474600   120A      1.487339  
     121A      1.527905   122A      1.528641   123A      1.543811  
     124A      1.546731   125A      2.019605   126A      2.051578  
     127A      2.064902   128A      2.104451   129A      2.123175  
     130A      2.154420   131A      2.202536   132A      2.254782  
     133A      2.259029   134A      2.335125   135A      2.341510  
     136A      2.427372   137A      2.461915   138A      2.492726  
     139A      2.554132   140A      2.624606   141A      2.781444  
     142A      2.781685   143A      2.933298   144A      2.946672  
     145A      2.986401   146A      3.006296   147A      3.126691  
     148A      3.138029   149A      3.229869   150A      3.274344  
     151A      3.433755   152A      3.456661   153A      3.472696  
     154A      3.482430   155A      3.525831   156A      3.552854  
     157A      3.560103   158A      6.046867   159A     10.356624  
     160A     10.407808   161A     30.409123   162A     30.465032  
     163A     30.570557   164A     30.715102   165A     30.750858  
     166A     31.285675   167A    197.816638   168A    197.985216  

    Final Occupation by Irrep:
              A 
    DOCC [     9 ]
    NA   [     9 ]
    NB   [     9 ]

  @DF-RHF Final Energy:  -459.57350985722417

   => Energetics <=

    Nuclear Repulsion Energy =              0.0000000000000000
    One-Electron Energy =                -641.1300896895975256
    Two-Electron Energy =                 181.5565798323733304
    Total Energy =                       -459.5735098572241668

Computation Completed


Properties will be evaluated at   0.000000,   0.000000,   0.000000 [a0]

Properties computed using the SCF density matrix


 Multipole Moments:

 ------------------------------------------------------------------------------------
     Multipole            Electronic (a.u.)      Nuclear  (a.u.)        Total (a.u.)
 ------------------------------------------------------------------------------------

 L = 1.  Multiply by 2.5417464519 to convert [e a0] to [Debye]
 Dipole X            :          0.0004249            0.0000000            0.0004249
 Dipole Y            :          0.0004249            0.0000000            0.0004249
 Dipole Z            :         -0.0000000            0.0000000           -0.0000000
 Magnitude           :                                                    0.0006009

 ------------------------------------------------------------------------------------

*** tstop() called on moses-razer at Wed Jan 24 14:02:47 2024
Module time:
	user time   =      19.21 seconds =       0.32 minutes
	system time =       1.51 seconds =       0.03 minutes
	total time  =         12 seconds =       0.20 minutes
Total time:
	user time   =      19.21 seconds =       0.32 minutes
	system time =       1.51 seconds =       0.03 minutes
	total time  =         12 seconds =       0.20 minutes

*** tstart() called on moses-razer
*** at Wed Jan 24 14:02:47 2024


  //>>>>>>>>>>>>>>>>>>>>>>>>>>>>>>>>>>>//
  //               DFMP2               //
  //<<<<<<<<<<<<<<<<<<<<<<<<<<<<<<<<<<<//

   => Loading Basis Set <=

    Name: (AUG-CC-PVTZ AUX)
    Role: RIFIT
    Keyword: DF_BASIS_MP2
    atoms 1   entry CL         line   742 file /home/kchung25/anaconda3/envs/p415env/share/psi4/basis/aug-cc-pvtz-ri.gbs 
    atoms 2-3 entry K          line  1282 file /home/kchung25/anaconda3/envs/p415env/share/psi4/basis/def2-qzvpp-ri.gbs 

	 --------------------------------------------------------
	                          DF-MP2                         
	      2nd-Order Density-Fitted Moller-Plesset Theory     
	              RMP2 Wavefunction,   6 Threads             
	                                                         
	        Rob Parrish, Justin Turney, Andy Simmonett,      
	           Ed Hohenstein, and C. David Sherrill          
	 --------------------------------------------------------

   => Auxiliary Basis Set <=

  Basis Set: (AUG-CC-PVTZ AUX)
    Blend: AUG-CC-PVTZ-RI + DEF2-QZVPP-RI
    Number of shells: 135
    Number of basis functions: 545
    Number of Cartesian functions: 715
    Spherical Harmonics?: true
    Max angular momentum: 4

	 --------------------------------------------------------
	                 NBF =   168, NAUX =   545
	 --------------------------------------------------------
	   CLASS    FOCC     OCC    AOCC    AVIR     VIR    FVIR
	   PAIRS       0       9       9     159     159       0
	 --------------------------------------------------------

	-----------------------------------------------------------
	 ==================> DF-MP2 Energies <==================== 
	-----------------------------------------------------------
	 Reference Energy          =    -459.5735098572241668 [Eh]
	 Singles Energy            =      -0.0000000000000000 [Eh]
	 Same-Spin Energy          =      -0.0626586402811483 [Eh]
	 Opposite-Spin Energy      =      -0.1799244712818699 [Eh]
	 Correlation Energy        =      -0.2425831115630182 [Eh]
	 Total Energy              =    -459.8160929687871885 [Eh]
	-----------------------------------------------------------
	 ================> DF-SCS-MP2 Energies <================== 
	-----------------------------------------------------------
	 SCS Same-Spin Scale       =       0.3333333333333333 [-]
	 SCS Opposite-Spin Scale   =       1.2000000000000000 [-]
	 SCS Same-Spin Energy      =      -0.0208862134270494 [Eh]
	 SCS Opposite-Spin Energy  =      -0.2159093655382438 [Eh]
	 SCS Correlation Energy    =      -0.2367955789652933 [Eh]
	 SCS Total Energy          =    -459.8103054361894806 [Eh]
	-----------------------------------------------------------


*** tstop() called on moses-razer at Wed Jan 24 14:03:02 2024
Module time:
	user time   =      17.21 seconds =       0.29 minutes
	system time =       0.83 seconds =       0.01 minutes
	total time  =         15 seconds =       0.25 minutes
Total time:
	user time   =      36.42 seconds =       0.61 minutes
	system time =       2.34 seconds =       0.04 minutes
	total time  =         27 seconds =       0.45 minutes

    Psi4 stopped on: Wednesday, 24 January 2024 02:03PM
    Psi4 wall time for execution: 0:00:27.34

*** Psi4 exiting successfully. Buy a developer a beer!
