
    -----------------------------------------------------------------------
          Psi4: An Open-Source Ab Initio Electronic Structure Package
                               Psi4 1.9 release

                         Git: Rev {} zzzzzzz 


    D. G. A. Smith, L. A. Burns, A. C. Simmonett, R. M. Parrish,
    M. C. Schieber, R. Galvelis, P. Kraus, H. Kruse, R. Di Remigio,
    A. Alenaizan, A. M. James, S. Lehtola, J. P. Misiewicz, M. Scheurer,
    R. A. Shaw, J. B. Schriber, Y. Xie, Z. L. Glick, D. A. Sirianni,
    J. S. O'Brien, J. M. Waldrop, A. Kumar, E. G. Hohenstein,
    B. P. Pritchard, B. R. Brooks, H. F. Schaefer III, A. Yu. Sokolov,
    K. Patkowski, A. E. DePrince III, U. Bozkaya, R. A. King,
    F. A. Evangelista, J. M. Turney, T. D. Crawford, C. D. Sherrill,
    J. Chem. Phys. 152(18) 184108 (2020). https://doi.org/10.1063/5.0006002

                            Additional Code Authors
    E. T. Seidl, C. L. Janssen, E. F. Valeev, M. L. Leininger,
    J. F. Gonthier, R. M. Richard, H. R. McAlexander, M. Saitow, X. Wang,
    P. Verma, M. H. Lechner, A. Jiang, S. Behnle, A. G. Heide,
    M. F. Herbst, and D. L. Poole

             Previous Authors, Complete List of Code Contributors,
                       and Citations for Specific Modules
    https://github.com/psi4/psi4/blob/master/codemeta.json
    https://github.com/psi4/psi4/graphs/contributors
    http://psicode.org/psi4manual/master/introduction.html#citing-psifour

    -----------------------------------------------------------------------


    Psi4 started on: Wednesday, 24 January 2024 02:04PM

    Process ID: 1213317
    Host:       moses-razer
    PSIDATADIR: /home/kchung25/anaconda3/envs/psi4_19/share/psi4
    Memory:     500.0 MiB
    Threads:    6
    
  ==> Input File <==

--------------------------------------------------------------------------
MEMORY 60 GB

molecule dimer {
-1 1
Cl         0.000000     0.000000     0.000000
Gh(K)      0.000000     2.633546     0.000000
Gh(K)      2.896901     0.000000     0.000000

units ang
no_reorient
no_com
symmetry c1
}

set {
basis        aug-cc-pVTZ
scf_type     df
}

energy("mp2")
--------------------------------------------------------------------------

  Memory set to  55.879 GiB by Python driver.

Scratch directory: /scratch/
   => Libint2 <=

    Primary   basis highest AM E, G, H:  5, 4, 3
    Auxiliary basis highest AM E, G, H:  6, 5, 4
    Onebody   basis highest AM E, G, H:  6, 5, 4
    Solid Harmonics ordering:            gaussian

*** tstart() called on moses-razer
*** at Wed Jan 24 14:04:32 2024

   => Loading Basis Set <=

    Name: AUG-CC-PVTZ
    Role: ORBITAL
    Keyword: BASIS
    atoms 1   entry CL         line   988 file /home/kchung25/anaconda3/envs/p415env/share/psi4/basis/aug-cc-pvtz.gbs 
    atoms 2-3 entry K          line  1152 file /home/kchung25/anaconda3/envs/p415env/share/psi4/basis/aug-cc-pvtz.gbs 


         ---------------------------------------------------------
                                   SCF
               by Justin Turney, Rob Parrish, Andy Simmonett
                          and Daniel G. A. Smith
                              RHF Reference
                        6 Threads,  57220 MiB Core
         ---------------------------------------------------------

  ==> Geometry <==

    Molecular point group: c1
    Full point group: Cs

    Geometry (in Angstrom), charge = -1, multiplicity = 1:

       Center              X                  Y                   Z               Mass       
    ------------   -----------------  -----------------  -----------------  -----------------
         CL           0.000000000000     0.000000000000     0.000000000000    34.968852682000
      Gh(K)           0.000000000000     2.633546000000     0.000000000000    38.963706486400
      Gh(K)           2.896901000000     0.000000000000     0.000000000000    38.963706486400

  Running in c1 symmetry.

  Rotational constants: A =      0.06238  B =      0.05155  C =      0.02823 [cm^-1]
  Rotational constants: A =   1870.14430  B =   1545.57338  C =    846.21901 [MHz]
  Nuclear repulsion =    0.000000000000000

  Charge       = -1
  Multiplicity = 1
  Electrons    = 18
  Nalpha       = 9
  Nbeta        = 9

  ==> Algorithm <==

  SCF Algorithm Type is DF.
  DIIS enabled.
  MOM disabled.
  Fractional occupation disabled.
  Guess Type is SAD.
  Energy threshold   = 1.00e-08
  Density threshold  = 1.00e-08
  Integral threshold = 1.00e-12

  ==> Primary Basis <==

  Basis Set: AUG-CC-PVTZ
    Blend: AUG-CC-PVTZ
    Number of shells: 54
    Number of basis functions: 168
    Number of Cartesian functions: 197
    Spherical Harmonics?: true
    Max angular momentum: 3

   => Loading Basis Set <=

    Name: (AUG-CC-PVTZ AUX)
    Role: JKFIT
    Keyword: DF_BASIS_SCF
    atoms 1   entry CL         line   816 file /home/kchung25/anaconda3/envs/p415env/share/psi4/basis/aug-cc-pvtz-jkfit.gbs 
    atoms 2-3 entry K          line  1152 file /home/kchung25/anaconda3/envs/p415env/share/psi4/basis/def2-universal-jkfit.gbs 

  ==> Integral Setup <==

  DFHelper Memory: AOs need 0.107 GiB; user supplied 41.910 GiB. 
  Using in-core AOs.

  ==> MemDFJK: Density-Fitted J/K Matrices <==

    J tasked:                   Yes
    K tasked:                   Yes
    wK tasked:                   No
    OpenMP threads:               6
    Memory [MiB]:             42915
    Algorithm:                 Core
    Schwarz Cutoff:           1E-12
    Mask sparsity (%):       0.0000
    Fitting Condition:        1E-10

   => Auxiliary Basis Set <=

  Basis Set: (AUG-CC-PVTZ AUX)
    Blend: AUG-CC-PVTZ-JKFIT + DEF2-UNIVERSAL-JKFIT
    Number of shells: 130
    Number of basis functions: 466
    Number of Cartesian functions: 586
    Spherical Harmonics?: true
    Max angular momentum: 4

  Minimum eigenvalue in the overlap matrix is 8.7741044443E-06.
  Reciprocal condition number of the overlap matrix is 1.0753965249E-06.
    Using symmetric orthogonalization.

  ==> Pre-Iterations <==

  SCF Guess: Superposition of Atomic Densities via on-the-fly atomic UHF (no occupation information).

   -------------------------
    Irrep   Nso     Nmo    
   -------------------------
     A        168     168 
   -------------------------
    Total     168     168
   -------------------------

  ==> Iterations <==

                           Total Energy        Delta E     RMS |[F,P]|

   @DF-RHF iter SAD:  -459.11248998287186   -4.59112e+02   0.00000e+00 
   @DF-RHF iter   1:  -459.51384099859263   -4.01351e-01   1.77566e-03 ADIIS/DIIS
   @DF-RHF iter   2:  -459.56474489237553   -5.09039e-02   9.08541e-04 ADIIS/DIIS
   @DF-RHF iter   3:  -459.57345111595708   -8.70622e-03   6.07357e-05 DIIS
   @DF-RHF iter   4:  -459.57350600930369   -5.48933e-05   1.23581e-05 DIIS
   @DF-RHF iter   5:  -459.57350964134110   -3.63204e-06   1.25382e-06 DIIS
   @DF-RHF iter   6:  -459.57350972316078   -8.18197e-08   1.10339e-07 DIIS
   @DF-RHF iter   7:  -459.57350972412195   -9.61165e-10   1.35840e-08 DIIS
   @DF-RHF iter   8:  -459.57350972414423   -2.22826e-11   1.68477e-09 DIIS
  Energy and wave function converged.


  ==> Post-Iterations <==

    Orbital Energies [Eh]
    ---------------------

    Doubly Occupied:                                                      

       1A   -104.506438     2A    -10.229858     3A     -7.695912  
       4A     -7.695897     5A     -7.695892     6A     -0.733494  
       7A     -0.150326     8A     -0.150323     9A     -0.150320  

    Virtual:                                                              

      10A      0.049767    11A      0.050258    12A      0.052673  
      13A      0.055638    14A      0.059485    15A      0.059920  
      16A      0.065486    17A      0.066634    18A      0.073335  
      19A      0.073417    20A      0.073834    21A      0.074116  
      22A      0.078672    23A      0.080256    24A      0.081007  
      25A      0.082066    26A      0.087040    27A      0.092334  
      28A      0.111522    29A      0.112188    30A      0.113233  
      31A      0.120989    32A      0.121800    33A      0.123513  
      34A      0.139927    35A      0.144685    36A      0.147743  
      37A      0.148357    38A      0.151777    39A      0.151905  
      40A      0.153556    41A      0.158498    42A      0.162950  
      43A      0.163078    44A      0.165862    45A      0.180037  
      46A      0.210341    47A      0.210733    48A      0.223949  
      49A      0.232722    50A      0.238542    51A      0.240460  
      52A      0.243152    53A      0.246807    54A      0.254511  
      55A      0.256442    56A      0.257570    57A      0.265922  
      58A      0.266293    59A      0.274303    60A      0.276019  
      61A      0.279526    62A      0.282545    63A      0.282611  
      64A      0.289118    65A      0.289959    66A      0.299861  
      67A      0.323268    68A      0.345033    69A      0.345664  
      70A      0.356573    71A      0.367551    72A      0.377533  
      73A      0.394043    74A      0.398213    75A      0.399988  
      76A      0.403521    77A      0.423833    78A      0.431862  
      79A      0.440166    80A      0.453580    81A      0.474837  
      82A      0.488418    83A      0.513481    84A      0.538061  
      85A      0.549990    86A      0.574606    87A      0.586081  
      88A      0.586498    89A      0.604942    90A      0.612212  
      91A      0.612957    92A      0.617970    93A      0.623380  
      94A      0.632531    95A      0.650664    96A      0.657865  
      97A      0.659778    98A      0.665020    99A      0.675759  
     100A      0.703675   101A      0.726132   102A      0.726224  
     103A      0.742263   104A      0.748166   105A      0.766627  
     106A      0.781274   107A      0.825946   108A      1.005877  
     109A      1.014557   110A      1.102445   111A      1.138587  
     112A      1.271325   113A      1.307084   114A      1.326866  
     115A      1.338049   116A      1.365525   117A      1.425451  
     118A      1.470847   119A      1.473533   120A      1.508554  
     121A      1.509048   122A      1.521111   123A      1.539235  
     124A      1.551932   125A      2.003628   126A      2.010425  
     127A      2.034725   128A      2.090862   129A      2.093707  
     130A      2.104302   131A      2.146008   132A      2.181588  
     133A      2.215052   134A      2.230643   135A      2.261622  
     136A      2.330859   137A      2.349340   138A      2.474283  
     139A      2.488571   140A      2.562362   141A      2.707766  
     142A      2.816690   143A      2.927033   144A      2.929575  
     145A      2.937795   146A      2.995396   147A      3.086962  
     148A      3.111307   149A      3.246862   150A      3.326306  
     151A      3.426229   152A      3.445178   153A      3.453157  
     154A      3.461260   155A      3.509851   156A      3.523225  
     157A      3.578625   158A      5.992826   159A     10.191696  
     160A     10.327573   161A     30.399574   162A     30.434119  
     163A     30.547685   164A     30.602451   165A     30.730206  
     166A     31.193148   167A    197.615890   168A    197.791131  

    Final Occupation by Irrep:
              A 
    DOCC [     9 ]
    NA   [     9 ]
    NB   [     9 ]

  @DF-RHF Final Energy:  -459.57350972414423

   => Energetics <=

    Nuclear Repulsion Energy =              0.0000000000000000
    One-Electron Energy =                -641.1300938624821129
    Two-Electron Energy =                 181.5565841383378825
    Total Energy =                       -459.5735097241442304

Computation Completed


Properties will be evaluated at   0.000000,   0.000000,   0.000000 [a0]

Properties computed using the SCF density matrix


 Multipole Moments:

 ------------------------------------------------------------------------------------
     Multipole            Electronic (a.u.)      Nuclear  (a.u.)        Total (a.u.)
 ------------------------------------------------------------------------------------

 L = 1.  Multiply by 2.5417464519 to convert [e a0] to [Debye]
 Dipole X            :          0.0003105            0.0000000            0.0003105
 Dipole Y            :          0.0004506            0.0000000            0.0004506
 Dipole Z            :         -0.0000000            0.0000000           -0.0000000
 Magnitude           :                                                    0.0005472

 ------------------------------------------------------------------------------------

*** tstop() called on moses-razer at Wed Jan 24 14:04:45 2024
Module time:
	user time   =      18.65 seconds =       0.31 minutes
	system time =       1.55 seconds =       0.03 minutes
	total time  =         13 seconds =       0.22 minutes
Total time:
	user time   =      18.65 seconds =       0.31 minutes
	system time =       1.55 seconds =       0.03 minutes
	total time  =         13 seconds =       0.22 minutes

*** tstart() called on moses-razer
*** at Wed Jan 24 14:04:45 2024


  //>>>>>>>>>>>>>>>>>>>>>>>>>>>>>>>>>>>//
  //               DFMP2               //
  //<<<<<<<<<<<<<<<<<<<<<<<<<<<<<<<<<<<//

   => Loading Basis Set <=

    Name: (AUG-CC-PVTZ AUX)
    Role: RIFIT
    Keyword: DF_BASIS_MP2
    atoms 1   entry CL         line   742 file /home/kchung25/anaconda3/envs/p415env/share/psi4/basis/aug-cc-pvtz-ri.gbs 
    atoms 2-3 entry K          line  1282 file /home/kchung25/anaconda3/envs/p415env/share/psi4/basis/def2-qzvpp-ri.gbs 

	 --------------------------------------------------------
	                          DF-MP2                         
	      2nd-Order Density-Fitted Moller-Plesset Theory     
	              RMP2 Wavefunction,   6 Threads             
	                                                         
	        Rob Parrish, Justin Turney, Andy Simmonett,      
	           Ed Hohenstein, and C. David Sherrill          
	 --------------------------------------------------------

   => Auxiliary Basis Set <=

  Basis Set: (AUG-CC-PVTZ AUX)
    Blend: AUG-CC-PVTZ-RI + DEF2-QZVPP-RI
    Number of shells: 135
    Number of basis functions: 545
    Number of Cartesian functions: 715
    Spherical Harmonics?: true
    Max angular momentum: 4

	 --------------------------------------------------------
	                 NBF =   168, NAUX =   545
	 --------------------------------------------------------
	   CLASS    FOCC     OCC    AOCC    AVIR     VIR    FVIR
	   PAIRS       0       9       9     159     159       0
	 --------------------------------------------------------

	-----------------------------------------------------------
	 ==================> DF-MP2 Energies <==================== 
	-----------------------------------------------------------
	 Reference Energy          =    -459.5735097241442304 [Eh]
	 Singles Energy            =      -0.0000000000000000 [Eh]
	 Same-Spin Energy          =      -0.0626501094306301 [Eh]
	 Opposite-Spin Energy      =      -0.1798739851975227 [Eh]
	 Correlation Energy        =      -0.2425240946281529 [Eh]
	 Total Energy              =    -459.8160338187723823 [Eh]
	-----------------------------------------------------------
	 ================> DF-SCS-MP2 Energies <================== 
	-----------------------------------------------------------
	 SCS Same-Spin Scale       =       0.3333333333333333 [-]
	 SCS Opposite-Spin Scale   =       1.2000000000000000 [-]
	 SCS Same-Spin Energy      =      -0.0208833698102100 [Eh]
	 SCS Opposite-Spin Energy  =      -0.2158487822370273 [Eh]
	 SCS Correlation Energy    =      -0.2367321520472373 [Eh]
	 SCS Total Energy          =    -459.8102418761914691 [Eh]
	-----------------------------------------------------------


*** tstop() called on moses-razer at Wed Jan 24 14:04:59 2024
Module time:
	user time   =      17.03 seconds =       0.28 minutes
	system time =       0.86 seconds =       0.01 minutes
	total time  =         14 seconds =       0.23 minutes
Total time:
	user time   =      35.69 seconds =       0.59 minutes
	system time =       2.41 seconds =       0.04 minutes
	total time  =         27 seconds =       0.45 minutes

    Psi4 stopped on: Wednesday, 24 January 2024 02:04PM
    Psi4 wall time for execution: 0:00:27.14

*** Psi4 exiting successfully. Buy a developer a beer!
