
    -----------------------------------------------------------------------
          Psi4: An Open-Source Ab Initio Electronic Structure Package
                               Psi4 1.9 release

                         Git: Rev {} zzzzzzz 


    D. G. A. Smith, L. A. Burns, A. C. Simmonett, R. M. Parrish,
    M. C. Schieber, R. Galvelis, P. Kraus, H. Kruse, R. Di Remigio,
    A. Alenaizan, A. M. James, S. Lehtola, J. P. Misiewicz, M. Scheurer,
    R. A. Shaw, J. B. Schriber, Y. Xie, Z. L. Glick, D. A. Sirianni,
    J. S. O'Brien, J. M. Waldrop, A. Kumar, E. G. Hohenstein,
    B. P. Pritchard, B. R. Brooks, H. F. Schaefer III, A. Yu. Sokolov,
    K. Patkowski, A. E. DePrince III, U. Bozkaya, R. A. King,
    F. A. Evangelista, J. M. Turney, T. D. Crawford, C. D. Sherrill,
    J. Chem. Phys. 152(18) 184108 (2020). https://doi.org/10.1063/5.0006002

                            Additional Code Authors
    E. T. Seidl, C. L. Janssen, E. F. Valeev, M. L. Leininger,
    J. F. Gonthier, R. M. Richard, H. R. McAlexander, M. Saitow, X. Wang,
    P. Verma, M. H. Lechner, A. Jiang, S. Behnle, A. G. Heide,
    M. F. Herbst, and D. L. Poole

             Previous Authors, Complete List of Code Contributors,
                       and Citations for Specific Modules
    https://github.com/psi4/psi4/blob/master/codemeta.json
    https://github.com/psi4/psi4/graphs/contributors
    http://psicode.org/psi4manual/master/introduction.html#citing-psifour

    -----------------------------------------------------------------------


    Psi4 started on: Wednesday, 24 January 2024 02:16PM

    Process ID: 1213873
    Host:       moses-razer
    PSIDATADIR: /home/kchung25/anaconda3/envs/psi4_19/share/psi4
    Memory:     500.0 MiB
    Threads:    6
    
  ==> Input File <==

--------------------------------------------------------------------------
MEMORY 60 GB

molecule dimer {
1 1
K          0.000000     0.000000     0.000000
Gh(Cl)     0.000000     2.633546     0.000000
Gh(Cl)     2.633546     0.000000     0.000000

units ang
no_reorient
no_com
symmetry c1
}

set {
basis        aug-cc-pVTZ
scf_type     df
}

energy("mp2")
--------------------------------------------------------------------------

  Memory set to  55.879 GiB by Python driver.

Scratch directory: /scratch/
   => Libint2 <=

    Primary   basis highest AM E, G, H:  5, 4, 3
    Auxiliary basis highest AM E, G, H:  6, 5, 4
    Onebody   basis highest AM E, G, H:  6, 5, 4
    Solid Harmonics ordering:            gaussian

*** tstart() called on moses-razer
*** at Wed Jan 24 14:16:22 2024

   => Loading Basis Set <=

    Name: AUG-CC-PVTZ
    Role: ORBITAL
    Keyword: BASIS
    atoms 1   entry K          line  1152 file /home/kchung25/anaconda3/envs/p415env/share/psi4/basis/aug-cc-pvtz.gbs 
    atoms 2-3 entry CL         line   988 file /home/kchung25/anaconda3/envs/p415env/share/psi4/basis/aug-cc-pvtz.gbs 


         ---------------------------------------------------------
                                   SCF
               by Justin Turney, Rob Parrish, Andy Simmonett
                          and Daniel G. A. Smith
                              RHF Reference
                        6 Threads,  57220 MiB Core
         ---------------------------------------------------------

  ==> Geometry <==

    Molecular point group: c1
    Full point group: D1

    Geometry (in Angstrom), charge = 1, multiplicity = 1:

       Center              X                  Y                   Z               Mass       
    ------------   -----------------  -----------------  -----------------  -----------------
         K            0.000000000000     0.000000000000     0.000000000000    38.963706486400
      Gh(CL)          0.000000000000     2.633546000000     0.000000000000    34.968852682000
      Gh(CL)          2.633546000000     0.000000000000     0.000000000000    34.968852682000

  Running in c1 symmetry.

  Rotational constants: A =      0.06951  B =      0.06951  C =      0.03475 [cm^-1]
  Rotational constants: A =   2083.79024  B =   2083.79024  C =   1041.89512 [MHz]
  Nuclear repulsion =    0.000000000000000

  Charge       = 1
  Multiplicity = 1
  Electrons    = 18
  Nalpha       = 9
  Nbeta        = 9

  ==> Algorithm <==

  SCF Algorithm Type is DF.
  DIIS enabled.
  MOM disabled.
  Fractional occupation disabled.
  Guess Type is SAD.
  Energy threshold   = 1.00e-08
  Density threshold  = 1.00e-08
  Integral threshold = 1.00e-12

  ==> Primary Basis <==

  Basis Set: AUG-CC-PVTZ
    Blend: AUG-CC-PVTZ
    Number of shells: 51
    Number of basis functions: 159
    Number of Cartesian functions: 187
    Spherical Harmonics?: true
    Max angular momentum: 3

   => Loading Basis Set <=

    Name: (AUG-CC-PVTZ AUX)
    Role: JKFIT
    Keyword: DF_BASIS_SCF
    atoms 1   entry K          line  1152 file /home/kchung25/anaconda3/envs/p415env/share/psi4/basis/def2-universal-jkfit.gbs 
    atoms 2-3 entry CL         line   816 file /home/kchung25/anaconda3/envs/p415env/share/psi4/basis/aug-cc-pvtz-jkfit.gbs 

  ==> Integral Setup <==

  DFHelper Memory: AOs need 0.093 GiB; user supplied 41.910 GiB. 
  Using in-core AOs.

  ==> MemDFJK: Density-Fitted J/K Matrices <==

    J tasked:                   Yes
    K tasked:                   Yes
    wK tasked:                   No
    OpenMP threads:               6
    Memory [MiB]:             42915
    Algorithm:                 Core
    Schwarz Cutoff:           1E-12
    Mask sparsity (%):       0.0000
    Fitting Condition:        1E-10

   => Auxiliary Basis Set <=

  Basis Set: (AUG-CC-PVTZ AUX)
    Blend: AUG-CC-PVTZ-JKFIT + DEF2-UNIVERSAL-JKFIT
    Number of shells: 128
    Number of basis functions: 452
    Number of Cartesian functions: 563
    Spherical Harmonics?: true
    Max angular momentum: 4

  Minimum eigenvalue in the overlap matrix is 4.0174604927E-04.
  Reciprocal condition number of the overlap matrix is 6.8054216380E-05.
    Using symmetric orthogonalization.

  ==> Pre-Iterations <==

  SCF Guess: Superposition of Atomic Densities via on-the-fly atomic UHF (no occupation information).

   -------------------------
    Irrep   Nso     Nmo    
   -------------------------
     A        159     159 
   -------------------------
    Total     159     159
   -------------------------

  ==> Iterations <==

                           Total Energy        Delta E     RMS |[F,P]|

   @DF-RHF iter SAD:  -599.05185691717543   -5.99052e+02   0.00000e+00 
   @DF-RHF iter   1:  -599.01748278340233    3.43741e-02   4.35275e-05 DIIS
   @DF-RHF iter   2:  -599.01750939326053   -2.66099e-05   6.04897e-06 DIIS
   @DF-RHF iter   3:  -599.01751009866689   -7.05406e-07   4.31494e-07 DIIS
   @DF-RHF iter   4:  -599.01751010199871   -3.33182e-09   3.42496e-08 DIIS
   @DF-RHF iter   5:  -599.01751010202508   -2.63753e-11   5.39526e-09 DIIS
  Energy and wave function converged.


  ==> Post-Iterations <==

    Orbital Energies [Eh]
    ---------------------

    Doubly Occupied:                                                      

       1A   -133.753446     2A    -14.708949     3A    -11.739017  
       4A    -11.739017     5A    -11.739010     6A     -1.964234  
       7A     -1.170886     8A     -1.170865     9A     -1.170815  

    Virtual:                                                              

      10A     -0.146969    11A     -0.095558    12A     -0.095557  
      13A     -0.095549    14A     -0.060580    15A     -0.057912  
      16A     -0.057897    17A     -0.057826    18A     -0.057819  
      19A     -0.057789    20A     -0.045539    21A     -0.045538  
      22A     -0.045534    23A     -0.031287    24A     -0.031251  
      25A     -0.031238    26A     -0.031230    27A     -0.031228  
      28A     -0.017085    29A     -0.017037    30A     -0.016212  
      31A     -0.014371    32A      0.008011    33A      0.009154  
      34A      0.009943    35A      0.012068    36A      0.013246  
      37A      0.013850    38A      0.016022    39A      0.016076  
      40A      0.016283    41A      0.016392    42A      0.016691  
      43A      0.016975    44A      0.060498    45A      0.065326  
      46A      0.069835    47A      0.081140    48A      0.083275  
      49A      0.089681    50A      0.090847    51A      0.093876  
      52A      0.103187    53A      0.140630    54A      0.150023  
      55A      0.197612    56A      0.211767    57A      0.217760  
      58A      0.221706    59A      0.222451    60A      0.227101  
      61A      0.229207    62A      0.231321    63A      0.234683  
      64A      0.240916    65A      0.243502    66A      0.280649  
      67A      0.300644    68A      0.320619    69A      0.339427  
      70A      0.341954    71A      0.344546    72A      0.359574  
      73A      0.362708    74A      0.366025    75A      0.371108  
      76A      0.385339    77A      0.410479    78A      0.463920  
      79A      0.464967    80A      0.480104    81A      0.482583  
      82A      0.484739    83A      0.529376    84A      0.586477  
      85A      0.867347    86A      1.070395    87A      1.089217  
      88A      1.106356    89A      1.116907    90A      1.120256  
      91A      1.127972    92A      1.135401    93A      1.142248  
      94A      1.147380    95A      1.162696    96A      1.163139  
      97A      1.177004    98A      1.202669    99A      1.207997  
     100A      1.210524   101A      1.212180   102A      1.217498  
     103A      1.265315   104A      1.331410   105A      1.334936  
     106A      1.343339   107A      1.345226   108A      1.358444  
     109A      1.360937   110A      1.379263   111A      1.430685  
     112A      1.438134   113A      1.451847   114A      1.457685  
     115A      1.476698   116A      1.504670   117A      1.626930  
     118A      3.701193   119A      3.712907   120A      3.726492  
     121A      3.738572   122A      3.746705   123A      3.752669  
     124A      3.755594   125A      3.755814   126A      3.762373  
     127A      3.774786   128A      3.788161   129A      3.788975  
     130A      3.799566   131A      3.821603   132A      3.826912  
     133A      3.828856   134A      3.832685   135A      3.856206  
     136A      3.916409   137A      3.991696   138A      4.042444  
     139A      4.074044   140A      4.498277   141A      4.499614  
     142A      4.500922   143A      4.523255   144A      4.545940  
     145A      4.562299   146A      4.565967   147A      4.569807  
     148A      4.583129   149A      4.605312   150A     13.883530  
     151A     13.971719   152A     27.594337   153A     27.595168  
     154A     27.600907   155A     27.655064   156A     27.656851  
     157A     27.832063   158A    160.582281   159A    160.594413  

    Final Occupation by Irrep:
              A 
    DOCC [     9 ]
    NA   [     9 ]
    NB   [     9 ]

  @DF-RHF Final Energy:  -599.01751010202508

   => Energetics <=

    Nuclear Repulsion Energy =              0.0000000000000000
    One-Electron Energy =                -819.7225438013119856
    Two-Electron Energy =                 220.7050336992869006
    Total Energy =                       -599.0175101020250850

Computation Completed


Properties will be evaluated at   0.000000,   0.000000,   0.000000 [a0]

Properties computed using the SCF density matrix


 Multipole Moments:

 ------------------------------------------------------------------------------------
     Multipole            Electronic (a.u.)      Nuclear  (a.u.)        Total (a.u.)
 ------------------------------------------------------------------------------------

 L = 1.  Multiply by 2.5417464519 to convert [e a0] to [Debye]
 Dipole X            :          0.0004666            0.0000000            0.0004666
 Dipole Y            :          0.0004666            0.0000000            0.0004666
 Dipole Z            :          0.0000000            0.0000000            0.0000000
 Magnitude           :                                                    0.0006599

 ------------------------------------------------------------------------------------

*** tstop() called on moses-razer at Wed Jan 24 14:16:29 2024
Module time:
	user time   =      14.66 seconds =       0.24 minutes
	system time =       2.76 seconds =       0.05 minutes
	total time  =          7 seconds =       0.12 minutes
Total time:
	user time   =      14.66 seconds =       0.24 minutes
	system time =       2.76 seconds =       0.05 minutes
	total time  =          7 seconds =       0.12 minutes

*** tstart() called on moses-razer
*** at Wed Jan 24 14:16:29 2024


  //>>>>>>>>>>>>>>>>>>>>>>>>>>>>>>>>>>>//
  //               DFMP2               //
  //<<<<<<<<<<<<<<<<<<<<<<<<<<<<<<<<<<<//

   => Loading Basis Set <=

    Name: (AUG-CC-PVTZ AUX)
    Role: RIFIT
    Keyword: DF_BASIS_MP2
    atoms 1   entry K          line  1282 file /home/kchung25/anaconda3/envs/p415env/share/psi4/basis/def2-qzvpp-ri.gbs 
    atoms 2-3 entry CL         line   742 file /home/kchung25/anaconda3/envs/p415env/share/psi4/basis/aug-cc-pvtz-ri.gbs 

	 --------------------------------------------------------
	                          DF-MP2                         
	      2nd-Order Density-Fitted Moller-Plesset Theory     
	              RMP2 Wavefunction,   6 Threads             
	                                                         
	        Rob Parrish, Justin Turney, Andy Simmonett,      
	           Ed Hohenstein, and C. David Sherrill          
	 --------------------------------------------------------

   => Auxiliary Basis Set <=

  Basis Set: (AUG-CC-PVTZ AUX)
    Blend: AUG-CC-PVTZ-RI + DEF2-QZVPP-RI
    Number of shells: 123
    Number of basis functions: 493
    Number of Cartesian functions: 644
    Spherical Harmonics?: true
    Max angular momentum: 4

	 --------------------------------------------------------
	                 NBF =   159, NAUX =   493
	 --------------------------------------------------------
	   CLASS    FOCC     OCC    AOCC    AVIR     VIR    FVIR
	   PAIRS       0       9       9     150     150       0
	 --------------------------------------------------------

	-----------------------------------------------------------
	 ==================> DF-MP2 Energies <==================== 
	-----------------------------------------------------------
	 Reference Energy          =    -599.0175101020250850 [Eh]
	 Singles Energy            =      -0.0000000000000000 [Eh]
	 Same-Spin Energy          =      -0.0310355543599035 [Eh]
	 Opposite-Spin Energy      =      -0.0735836818340932 [Eh]
	 Correlation Energy        =      -0.1046192361939967 [Eh]
	 Total Energy              =    -599.1221293382191107 [Eh]
	-----------------------------------------------------------
	 ================> DF-SCS-MP2 Energies <================== 
	-----------------------------------------------------------
	 SCS Same-Spin Scale       =       0.3333333333333333 [-]
	 SCS Opposite-Spin Scale   =       1.2000000000000000 [-]
	 SCS Same-Spin Energy      =      -0.0103451847866345 [Eh]
	 SCS Opposite-Spin Energy  =      -0.0883004182009118 [Eh]
	 SCS Correlation Energy    =      -0.0986456029875463 [Eh]
	 SCS Total Energy          =    -599.1161557050126021 [Eh]
	-----------------------------------------------------------


*** tstop() called on moses-razer at Wed Jan 24 14:16:36 2024
Module time:
	user time   =       8.23 seconds =       0.14 minutes
	system time =       0.82 seconds =       0.01 minutes
	total time  =          7 seconds =       0.12 minutes
Total time:
	user time   =      22.89 seconds =       0.38 minutes
	system time =       3.58 seconds =       0.06 minutes
	total time  =         14 seconds =       0.23 minutes

    Psi4 stopped on: Wednesday, 24 January 2024 02:16PM
    Psi4 wall time for execution: 0:00:14.19

*** Psi4 exiting successfully. Buy a developer a beer!
