
    -----------------------------------------------------------------------
          Psi4: An Open-Source Ab Initio Electronic Structure Package
                               Psi4 1.9 release

                         Git: Rev {} zzzzzzz 


    D. G. A. Smith, L. A. Burns, A. C. Simmonett, R. M. Parrish,
    M. C. Schieber, R. Galvelis, P. Kraus, H. Kruse, R. Di Remigio,
    A. Alenaizan, A. M. James, S. Lehtola, J. P. Misiewicz, M. Scheurer,
    R. A. Shaw, J. B. Schriber, Y. Xie, Z. L. Glick, D. A. Sirianni,
    J. S. O'Brien, J. M. Waldrop, A. Kumar, E. G. Hohenstein,
    B. P. Pritchard, B. R. Brooks, H. F. Schaefer III, A. Yu. Sokolov,
    K. Patkowski, A. E. DePrince III, U. Bozkaya, R. A. King,
    F. A. Evangelista, J. M. Turney, T. D. Crawford, C. D. Sherrill,
    J. Chem. Phys. 152(18) 184108 (2020). https://doi.org/10.1063/5.0006002

                            Additional Code Authors
    E. T. Seidl, C. L. Janssen, E. F. Valeev, M. L. Leininger,
    J. F. Gonthier, R. M. Richard, H. R. McAlexander, M. Saitow, X. Wang,
    P. Verma, M. H. Lechner, A. Jiang, S. Behnle, A. G. Heide,
    M. F. Herbst, and D. L. Poole

             Previous Authors, Complete List of Code Contributors,
                       and Citations for Specific Modules
    https://github.com/psi4/psi4/blob/master/codemeta.json
    https://github.com/psi4/psi4/graphs/contributors
    http://psicode.org/psi4manual/master/introduction.html#citing-psifour

    -----------------------------------------------------------------------


    Psi4 started on: Wednesday, 24 January 2024 02:22PM

    Process ID: 1214263
    Host:       moses-razer
    PSIDATADIR: /home/kchung25/anaconda3/envs/psi4_19/share/psi4
    Memory:     500.0 MiB
    Threads:    6
    
  ==> Input File <==

--------------------------------------------------------------------------
MEMORY 60 GB

molecule dimer {
-1 1
Gh(K)      0.000000     0.000000     0.000000
Gh(Cl)     0.000000     2.633546     0.000000
Cl         5.267092     0.000000     0.000000

units ang
no_reorient
no_com
symmetry c1
}

set {
basis        aug-cc-pVTZ
scf_type     df
}

energy("mp2")
--------------------------------------------------------------------------

  Memory set to  55.879 GiB by Python driver.

Scratch directory: /scratch/
   => Libint2 <=

    Primary   basis highest AM E, G, H:  5, 4, 3
    Auxiliary basis highest AM E, G, H:  6, 5, 4
    Onebody   basis highest AM E, G, H:  6, 5, 4
    Solid Harmonics ordering:            gaussian

*** tstart() called on moses-razer
*** at Wed Jan 24 14:22:17 2024

   => Loading Basis Set <=

    Name: AUG-CC-PVTZ
    Role: ORBITAL
    Keyword: BASIS
    atoms 1   entry K          line  1152 file /home/kchung25/anaconda3/envs/p415env/share/psi4/basis/aug-cc-pvtz.gbs 
    atoms 2-3 entry CL         line   988 file /home/kchung25/anaconda3/envs/p415env/share/psi4/basis/aug-cc-pvtz.gbs 


         ---------------------------------------------------------
                                   SCF
               by Justin Turney, Rob Parrish, Andy Simmonett
                          and Daniel G. A. Smith
                              RHF Reference
                        6 Threads,  57220 MiB Core
         ---------------------------------------------------------

  ==> Geometry <==

    Molecular point group: c1
    Full point group: Cs

    Geometry (in Angstrom), charge = -1, multiplicity = 1:

       Center              X                  Y                   Z               Mass       
    ------------   -----------------  -----------------  -----------------  -----------------
      Gh(K)           0.000000000000     0.000000000000     0.000000000000    38.963706486400
      Gh(CL)          0.000000000000     2.633546000000     0.000000000000    34.968852682000
         CL           5.267092000000     0.000000000000     0.000000000000    34.968852682000

  Running in c1 symmetry.

  Rotational constants: A =      0.06951  B =      0.01738  C =      0.01390 [cm^-1]
  Rotational constants: A =   2083.79024  B =    520.94756  C =    416.75805 [MHz]
  Nuclear repulsion =    0.000000000000000

  Charge       = -1
  Multiplicity = 1
  Electrons    = 18
  Nalpha       = 9
  Nbeta        = 9

  ==> Algorithm <==

  SCF Algorithm Type is DF.
  DIIS enabled.
  MOM disabled.
  Fractional occupation disabled.
  Guess Type is SAD.
  Energy threshold   = 1.00e-08
  Density threshold  = 1.00e-08
  Integral threshold = 1.00e-12

  ==> Primary Basis <==

  Basis Set: AUG-CC-PVTZ
    Blend: AUG-CC-PVTZ
    Number of shells: 51
    Number of basis functions: 159
    Number of Cartesian functions: 187
    Spherical Harmonics?: true
    Max angular momentum: 3

   => Loading Basis Set <=

    Name: (AUG-CC-PVTZ AUX)
    Role: JKFIT
    Keyword: DF_BASIS_SCF
    atoms 1   entry K          line  1152 file /home/kchung25/anaconda3/envs/p415env/share/psi4/basis/def2-universal-jkfit.gbs 
    atoms 2-3 entry CL         line   816 file /home/kchung25/anaconda3/envs/p415env/share/psi4/basis/aug-cc-pvtz-jkfit.gbs 

  ==> Integral Setup <==

  DFHelper Memory: AOs need 0.089 GiB; user supplied 41.910 GiB. 
  Using in-core AOs.

  ==> MemDFJK: Density-Fitted J/K Matrices <==

    J tasked:                   Yes
    K tasked:                   Yes
    wK tasked:                   No
    OpenMP threads:               6
    Memory [MiB]:             42915
    Algorithm:                 Core
    Schwarz Cutoff:           1E-12
    Mask sparsity (%):       4.8020
    Fitting Condition:        1E-10

   => Auxiliary Basis Set <=

  Basis Set: (AUG-CC-PVTZ AUX)
    Blend: AUG-CC-PVTZ-JKFIT + DEF2-UNIVERSAL-JKFIT
    Number of shells: 128
    Number of basis functions: 452
    Number of Cartesian functions: 563
    Spherical Harmonics?: true
    Max angular momentum: 4

  Minimum eigenvalue in the overlap matrix is 4.5781929542E-04.
  Reciprocal condition number of the overlap matrix is 8.8754531429E-05.
    Using symmetric orthogonalization.

  ==> Pre-Iterations <==

  SCF Guess: Superposition of Atomic Densities via on-the-fly atomic UHF (no occupation information).

   -------------------------
    Irrep   Nso     Nmo    
   -------------------------
     A        159     159 
   -------------------------
    Total     159     159
   -------------------------

  ==> Iterations <==

                           Total Energy        Delta E     RMS |[F,P]|

   @DF-RHF iter SAD:  -459.11248994942207   -4.59112e+02   0.00000e+00 
   @DF-RHF iter   1:  -459.51388379349908   -4.01394e-01   1.87506e-03 ADIIS/DIIS
   @DF-RHF iter   2:  -459.56472612583178   -5.08423e-02   9.57762e-04 ADIIS/DIIS
   @DF-RHF iter   3:  -459.57342779938404   -8.70167e-03   6.30641e-05 DIIS
   @DF-RHF iter   4:  -459.57348207211470   -5.42727e-05   1.29622e-05 DIIS
   @DF-RHF iter   5:  -459.57348580415760   -3.73204e-06   1.35096e-06 DIIS
   @DF-RHF iter   6:  -459.57348588273146   -7.85739e-08   8.65144e-08 DIIS
   @DF-RHF iter   7:  -459.57348588319115   -4.59693e-10   1.25581e-08 DIIS
   @DF-RHF iter   8:  -459.57348588320713   -1.59730e-11   1.82124e-09 DIIS
  Energy and wave function converged.


  ==> Post-Iterations <==

    Orbital Energies [Eh]
    ---------------------

    Doubly Occupied:                                                      

       1A   -104.506042     2A    -10.229766     3A     -7.695802  
       4A     -7.695802     5A     -7.695799     6A     -0.733516  
       7A     -0.150340     8A     -0.150340     9A     -0.150340  

    Virtual:                                                              

      10A      0.052937    11A      0.054556    12A      0.055040  
      13A      0.069717    14A      0.069868    15A      0.070667  
      16A      0.080340    17A      0.081702    18A      0.087952  
      19A      0.098280    20A      0.100547    21A      0.107366  
      22A      0.119814    23A      0.132210    24A      0.133481  
      25A      0.144170    26A      0.148413    27A      0.159291  
      28A      0.168497    29A      0.183591    30A      0.191470  
      31A      0.204807    32A      0.209339    33A      0.220101  
      34A      0.231938    35A      0.234322    36A      0.236743  
      37A      0.240969    38A      0.244202    39A      0.252296  
      40A      0.253079    41A      0.255021    42A      0.290047  
      43A      0.313876    44A      0.315943    45A      0.320192  
      46A      0.332491    47A      0.335261    48A      0.351338  
      49A      0.355193    50A      0.355442    51A      0.368905  
      52A      0.373189    53A      0.394720    54A      0.461396  
      55A      0.505553    56A      0.511523    57A      0.523007  
      58A      0.544898    59A      0.548752    60A      0.552689  
      61A      0.564675    62A      0.576631    63A      0.592435  
      64A      0.598872    65A      0.600336    66A      0.602992  
      67A      0.610075    68A      0.611398    69A      0.621260  
      70A      0.630347    71A      0.641539    72A      0.653897  
      73A      0.693412    74A      0.710022    75A      0.738022  
      76A      0.777661    77A      0.913868    78A      0.915865  
      79A      0.935869    80A      1.225214    81A      1.226048  
      82A      1.240972    83A      1.245874    84A      1.249235  
      85A      1.337865    86A      1.359795    87A      1.363564  
      88A      1.387682    89A      1.392634    90A      1.392923  
      91A      1.411374    92A      1.438990    93A      1.444303  
      94A      1.445239    95A      1.449099    96A      1.468182  
      97A      1.468243    98A      1.469381    99A      1.469434  
     100A      1.472056   101A      1.481142   102A      1.489921  
     103A      1.589089   104A      1.606393   105A      1.607971  
     106A      1.627640   107A      1.691773   108A      1.703570  
     109A      1.940052   110A      1.953751   111A      1.964421  
     112A      2.017678   113A      2.100549   114A      2.224892  
     115A      2.408980   116A      2.413448   117A      2.647611  
     118A      2.831886   119A      2.832831   120A      2.846737  
     121A      2.853454   122A      2.882081   123A      2.999312  
     124A      3.000838   125A      3.016036   126A      3.373593  
     127A      3.373637   128A      3.374272   129A      3.374513  
     130A      3.376078   131A      3.377971   132A      3.381676  
     133A      4.018288   134A      4.018772   135A      4.056198  
     136A      4.056483   137A      4.057815   138A      4.060797  
     139A      4.106569   140A      4.142817   141A      4.146566  
     142A      4.177772   143A      4.315213   144A      4.781249  
     145A      4.785638   146A      4.852350   147A      4.854306  
     148A      4.857453   149A      5.621949   150A     10.067068  
     151A     14.203775   152A     27.883423   153A     27.889018  
     154A     27.988647   155A     30.321122   156A     30.348976  
     157A     30.638932   158A    160.876156   159A    197.403743  

    Final Occupation by Irrep:
              A 
    DOCC [     9 ]
    NA   [     9 ]
    NB   [     9 ]

  @DF-RHF Final Energy:  -459.57348588320713

   => Energetics <=

    Nuclear Repulsion Energy =              0.0000000000000000
    One-Electron Energy =                -641.1314776469848766
    Two-Electron Energy =                 181.5579917637777214
    Total Energy =                       -459.5734858832071268

Computation Completed


Properties will be evaluated at   0.000000,   0.000000,   0.000000 [a0]

Properties computed using the SCF density matrix


 Multipole Moments:

 ------------------------------------------------------------------------------------
     Multipole            Electronic (a.u.)      Nuclear  (a.u.)        Total (a.u.)
 ------------------------------------------------------------------------------------

 L = 1.  Multiply by 2.5417464519 to convert [e a0] to [Debye]
 Dipole X            :       -179.1606821          169.2071431           -9.9535390
 Dipole Y            :         -0.0000600            0.0000000           -0.0000600
 Dipole Z            :         -0.0000000            0.0000000           -0.0000000
 Magnitude           :                                                    9.9535390

 ------------------------------------------------------------------------------------

*** tstop() called on moses-razer at Wed Jan 24 14:22:23 2024
Module time:
	user time   =      11.83 seconds =       0.20 minutes
	system time =       1.57 seconds =       0.03 minutes
	total time  =          6 seconds =       0.10 minutes
Total time:
	user time   =      11.83 seconds =       0.20 minutes
	system time =       1.57 seconds =       0.03 minutes
	total time  =          6 seconds =       0.10 minutes

*** tstart() called on moses-razer
*** at Wed Jan 24 14:22:23 2024


  //>>>>>>>>>>>>>>>>>>>>>>>>>>>>>>>>>>>//
  //               DFMP2               //
  //<<<<<<<<<<<<<<<<<<<<<<<<<<<<<<<<<<<//

   => Loading Basis Set <=

    Name: (AUG-CC-PVTZ AUX)
    Role: RIFIT
    Keyword: DF_BASIS_MP2
    atoms 1   entry K          line  1282 file /home/kchung25/anaconda3/envs/p415env/share/psi4/basis/def2-qzvpp-ri.gbs 
    atoms 2-3 entry CL         line   742 file /home/kchung25/anaconda3/envs/p415env/share/psi4/basis/aug-cc-pvtz-ri.gbs 

	 --------------------------------------------------------
	                          DF-MP2                         
	      2nd-Order Density-Fitted Moller-Plesset Theory     
	              RMP2 Wavefunction,   6 Threads             
	                                                         
	        Rob Parrish, Justin Turney, Andy Simmonett,      
	           Ed Hohenstein, and C. David Sherrill          
	 --------------------------------------------------------

   => Auxiliary Basis Set <=

  Basis Set: (AUG-CC-PVTZ AUX)
    Blend: AUG-CC-PVTZ-RI + DEF2-QZVPP-RI
    Number of shells: 123
    Number of basis functions: 493
    Number of Cartesian functions: 644
    Spherical Harmonics?: true
    Max angular momentum: 4

	 --------------------------------------------------------
	                 NBF =   159, NAUX =   493
	 --------------------------------------------------------
	   CLASS    FOCC     OCC    AOCC    AVIR     VIR    FVIR
	   PAIRS       0       9       9     150     150       0
	 --------------------------------------------------------

	-----------------------------------------------------------
	 ==================> DF-MP2 Energies <==================== 
	-----------------------------------------------------------
	 Reference Energy          =    -459.5734858832071268 [Eh]
	 Singles Energy            =      -0.0000000000000000 [Eh]
	 Same-Spin Energy          =      -0.0623250610952661 [Eh]
	 Opposite-Spin Energy      =      -0.1788341283622684 [Eh]
	 Correlation Energy        =      -0.2411591894575345 [Eh]
	 Total Energy              =    -459.8146450726646890 [Eh]
	-----------------------------------------------------------
	 ================> DF-SCS-MP2 Energies <================== 
	-----------------------------------------------------------
	 SCS Same-Spin Scale       =       0.3333333333333333 [-]
	 SCS Opposite-Spin Scale   =       1.2000000000000000 [-]
	 SCS Same-Spin Energy      =      -0.0207750203650887 [Eh]
	 SCS Opposite-Spin Energy  =      -0.2146009540347220 [Eh]
	 SCS Correlation Energy    =      -0.2353759743998107 [Eh]
	 SCS Total Energy          =    -459.8088618576069280 [Eh]
	-----------------------------------------------------------


*** tstop() called on moses-razer at Wed Jan 24 14:22:29 2024
Module time:
	user time   =       8.22 seconds =       0.14 minutes
	system time =       0.83 seconds =       0.01 minutes
	total time  =          6 seconds =       0.10 minutes
Total time:
	user time   =      20.06 seconds =       0.33 minutes
	system time =       2.40 seconds =       0.04 minutes
	total time  =         12 seconds =       0.20 minutes

    Psi4 stopped on: Wednesday, 24 January 2024 02:22PM
    Psi4 wall time for execution: 0:00:12.16

*** Psi4 exiting successfully. Buy a developer a beer!
