
    -----------------------------------------------------------------------
          Psi4: An Open-Source Ab Initio Electronic Structure Package
                               Psi4 1.9 release

                         Git: Rev {} zzzzzzz 


    D. G. A. Smith, L. A. Burns, A. C. Simmonett, R. M. Parrish,
    M. C. Schieber, R. Galvelis, P. Kraus, H. Kruse, R. Di Remigio,
    A. Alenaizan, A. M. James, S. Lehtola, J. P. Misiewicz, M. Scheurer,
    R. A. Shaw, J. B. Schriber, Y. Xie, Z. L. Glick, D. A. Sirianni,
    J. S. O'Brien, J. M. Waldrop, A. Kumar, E. G. Hohenstein,
    B. P. Pritchard, B. R. Brooks, H. F. Schaefer III, A. Yu. Sokolov,
    K. Patkowski, A. E. DePrince III, U. Bozkaya, R. A. King,
    F. A. Evangelista, J. M. Turney, T. D. Crawford, C. D. Sherrill,
    J. Chem. Phys. 152(18) 184108 (2020). https://doi.org/10.1063/5.0006002

                            Additional Code Authors
    E. T. Seidl, C. L. Janssen, E. F. Valeev, M. L. Leininger,
    J. F. Gonthier, R. M. Richard, H. R. McAlexander, M. Saitow, X. Wang,
    P. Verma, M. H. Lechner, A. Jiang, S. Behnle, A. G. Heide,
    M. F. Herbst, and D. L. Poole

             Previous Authors, Complete List of Code Contributors,
                       and Citations for Specific Modules
    https://github.com/psi4/psi4/blob/master/codemeta.json
    https://github.com/psi4/psi4/graphs/contributors
    http://psicode.org/psi4manual/master/introduction.html#citing-psifour

    -----------------------------------------------------------------------


    Psi4 started on: Wednesday, 24 January 2024 06:18AM

    Process ID: 1196146
    Host:       moses-razer
    PSIDATADIR: /home/kchung25/anaconda3/envs/psi4_19/share/psi4
    Memory:     500.0 MiB
    Threads:    6
    
  ==> Input File <==

--------------------------------------------------------------------------
MEMORY 60 GB

molecule dimer {
-1 1
Br     0.000000     0.000000     0.000000
--
1 1
K      0.000000     2.788700     0.000000
--
1 1
K      3.625310     0.000000     0.000000

units ang
no_reorient
no_com
symmetry c1
}

set {
basis        aug-cc-pVTZ
scf_type     df
}

energy("mp2", bsse_type="cp")
--------------------------------------------------------------------------

  Memory set to  55.879 GiB by Python driver.

Scratch directory: /scratch/

  //>>>>>>>>>>>>>>>>>>>>>>>>>>>>>>>>>>>>>>>>//
  // ManyBody Setup: N-Body Levels [1, 2, 3]//
  //<<<<<<<<<<<<<<<<<<<<<<<<<<<<<<<<<<<<<<<<//

        Number of 1-body computations:     3
        Number of 2-body computations:     3
        Number of 3-body computations:     1

    -----------------------------------------------------------------------
          Psi4: An Open-Source Ab Initio Electronic Structure Package
                               Psi4 1.9 release

                         Git: Rev {} zzzzzzz 


    D. G. A. Smith, L. A. Burns, A. C. Simmonett, R. M. Parrish,
    M. C. Schieber, R. Galvelis, P. Kraus, H. Kruse, R. Di Remigio,
    A. Alenaizan, A. M. James, S. Lehtola, J. P. Misiewicz, M. Scheurer,
    R. A. Shaw, J. B. Schriber, Y. Xie, Z. L. Glick, D. A. Sirianni,
    J. S. O'Brien, J. M. Waldrop, A. Kumar, E. G. Hohenstein,
    B. P. Pritchard, B. R. Brooks, H. F. Schaefer III, A. Yu. Sokolov,
    K. Patkowski, A. E. DePrince III, U. Bozkaya, R. A. King,
    F. A. Evangelista, J. M. Turney, T. D. Crawford, C. D. Sherrill,
    J. Chem. Phys. 152(18) 184108 (2020). https://doi.org/10.1063/5.0006002

                            Additional Code Authors
    E. T. Seidl, C. L. Janssen, E. F. Valeev, M. L. Leininger,
    J. F. Gonthier, R. M. Richard, H. R. McAlexander, M. Saitow, X. Wang,
    P. Verma, M. H. Lechner, A. Jiang, S. Behnle, A. G. Heide,
    M. F. Herbst, and D. L. Poole

             Previous Authors, Complete List of Code Contributors,
                       and Citations for Specific Modules
    https://github.com/psi4/psi4/blob/master/codemeta.json
    https://github.com/psi4/psi4/graphs/contributors
    http://psicode.org/psi4manual/master/introduction.html#citing-psifour

    -----------------------------------------------------------------------


    Psi4 started on: Wednesday, 24 January 2024 06:18AM

    Process ID: 1196146
    Host:       moses-razer
    PSIDATADIR: /home/kchung25/anaconda3/envs/psi4_19/share/psi4
    Memory:     55.9 GiB
    Threads:    6
    
  ==> Input QCSchema <==

--------------------------------------------------------------------------
{'driver': 'energy',
 'extras': {'psiapi': True, 'wfn_qcvars_only': True},
 'id': None,
 'keywords': {'SCF_TYPE': 'DF', 'function_kwargs': {}},
 'model': {'basis': 'aug-cc-pvtz', 'method': 'mp2'},
 'molecule': {'atom_labels': ['', '', ''],
              'atomic_numbers': [35, 19, 19],
              'extras': {},
              'fix_com': True,
              'fix_orientation': True,
              'fix_symmetry': 'c1',
              'fragment_charges': [-1.0, 0.0, 0.0],
              'fragment_multiplicities': [1, 1, 1],
              'fragments': [[0], [1], [2]],
              'geometry': [0.0, 0.0, 0.0, 0.0, 5.269879246064245, 0.0, 6.850843019883518, 0.0, 0.0],
              'mass_numbers': [79, 39, 39],
              'masses': [78.9183376, 38.9637064864, 38.9637064864],
              'molecular_charge': -1.0,
              'molecular_multiplicity': 1,
              'name': 'dimer',
              'provenance': {'creator': 'QCElemental',
                             'routine': 'qcelemental.molparse.from_string',
                             'version': '0.27.1'},
              'real': [True, False, False],
              'schema_name': 'qcschema_molecule',
              'schema_version': 2,
              'symbols': ['Br', 'K', 'K'],
              'validated': True},
 'protocols': {'stdout': True},
 'provenance': {'creator': 'QCElemental', 'routine': 'qcelemental.models.results', 'version': '0.27.1'},
 'schema_name': 'qcschema_input',
 'schema_version': 1}
--------------------------------------------------------------------------

Scratch directory: /scratch/
   => Libint2 <=

    Primary   basis highest AM E, G, H:  5, 4, 3
    Auxiliary basis highest AM E, G, H:  6, 5, 4
    Onebody   basis highest AM E, G, H:  6, 5, 4
    Solid Harmonics ordering:            gaussian

*** tstart() called on moses-razer
*** at Wed Jan 24 06:18:11 2024

   => Loading Basis Set <=

    Name: AUG-CC-PVTZ
    Role: ORBITAL
    Keyword: BASIS
    atoms 1   entry BR         line  4564 file /home/kchung25/anaconda3/envs/p415env/share/psi4/basis/aug-cc-pvtz.gbs 
    atoms 2-3 entry K          line  1152 file /home/kchung25/anaconda3/envs/p415env/share/psi4/basis/aug-cc-pvtz.gbs 


         ---------------------------------------------------------
                                   SCF
               by Justin Turney, Rob Parrish, Andy Simmonett
                          and Daniel G. A. Smith
                              RHF Reference
                        6 Threads,  57220 MiB Core
         ---------------------------------------------------------

  ==> Geometry <==

    Molecular point group: c1
    Full point group: Cs

    Geometry (in Bohr), charge = -1, multiplicity = 1:

       Center              X                  Y                   Z               Mass       
    ------------   -----------------  -----------------  -----------------  -----------------
         BR           0.000000000000     0.000000000000     0.000000000000    78.918337600000
      Gh(K)           0.000000000000     5.269879246064     0.000000000000    38.963706486400
      Gh(K)           6.850843019884     0.000000000000     0.000000000000    38.963706486400

  Running in c1 symmetry.

  Rotational constants: A =      0.05563  B =      0.03292  C =      0.02068 [cm^-1]
  Rotational constants: A =   1667.83600  B =    986.88520  C =    620.01338 [MHz]
  Nuclear repulsion =    0.000000000000000

  Charge       = -1
  Multiplicity = 1
  Electrons    = 36
  Nalpha       = 18
  Nbeta        = 18

  ==> Algorithm <==

  SCF Algorithm Type is DF.
  DIIS enabled.
  MOM disabled.
  Fractional occupation disabled.
  Guess Type is SAD.
  Energy threshold   = 1.00e-08
  Density threshold  = 1.00e-08
  Integral threshold = 1.00e-12

  ==> Primary Basis <==

  Basis Set: AUG-CC-PVTZ
    Blend: AUG-CC-PVTZ
    Number of shells: 57
    Number of basis functions: 177
    Number of Cartesian functions: 207
    Spherical Harmonics?: true
    Max angular momentum: 3

   => Loading Basis Set <=

    Name: (AUG-CC-PVTZ AUX)
    Role: JKFIT
    Keyword: DF_BASIS_SCF
    atoms 1   entry BR         line  1492 file /home/kchung25/anaconda3/envs/p415env/share/psi4/basis/aug-cc-pvtz-jkfit.gbs 
    atoms 2-3 entry K          line  1152 file /home/kchung25/anaconda3/envs/p415env/share/psi4/basis/def2-universal-jkfit.gbs 

  ==> Integral Setup <==

  DFHelper Memory: AOs need 0.143 GiB; user supplied 41.910 GiB. 
  Using in-core AOs.

  ==> MemDFJK: Density-Fitted J/K Matrices <==

    J tasked:                   Yes
    K tasked:                   Yes
    wK tasked:                   No
    OpenMP threads:               6
    Memory [MiB]:             42915
    Algorithm:                 Core
    Schwarz Cutoff:           1E-12
    Mask sparsity (%):       0.0000
    Fitting Condition:        1E-10

   => Auxiliary Basis Set <=

  Basis Set: (AUG-CC-PVTZ AUX)
    Blend: AUG-CC-PVTZ-JKFIT + DEF2-UNIVERSAL-JKFIT
    Number of shells: 146
    Number of basis functions: 568
    Number of Cartesian functions: 735
    Spherical Harmonics?: true
    Max angular momentum: 4

  Minimum eigenvalue in the overlap matrix is 1.9246978404E-05.
  Reciprocal condition number of the overlap matrix is 2.3571769351E-06.
    Using symmetric orthogonalization.

  ==> Pre-Iterations <==

  SCF Guess: Superposition of Atomic Densities via on-the-fly atomic UHF (no occupation information).

   -------------------------
    Irrep   Nso     Nmo    
   -------------------------
     A        177     177 
   -------------------------
    Total     177     177
   -------------------------

  ==> Iterations <==

                           Total Energy        Delta E     RMS |[F,P]|

   @DF-RHF iter SAD: -2570.41423539979542   -2.57041e+03   0.00000e+00 
   @DF-RHF iter   1: -2572.25466208526086   -1.84043e+00   5.98049e-03 ADIIS/DIIS
   @DF-RHF iter   2: -2572.46365957160651   -2.08997e-01   3.32883e-03 ADIIS/DIIS
   @DF-RHF iter   3: -2572.53364111243400   -6.99815e-02   5.18653e-05 DIIS
   @DF-RHF iter   4: -2572.53368390428068   -4.27918e-05   6.78882e-06 DIIS
   @DF-RHF iter   5: -2572.53368622584094   -2.32156e-06   1.90517e-06 DIIS
   @DF-RHF iter   6: -2572.53368639274095   -1.66900e-07   3.97219e-07 DIIS
   @DF-RHF iter   7: -2572.53368641422776   -2.14868e-08   2.18522e-08 DIIS
   @DF-RHF iter   8: -2572.53368641426459   -3.68345e-11   3.07500e-09 DIIS
  Energy and wave function converged.


  ==> Post-Iterations <==

    Orbital Energies [Eh]
    ---------------------

    Doubly Occupied:                                                      

       1A   -489.720945     2A    -64.860862     3A    -58.215355  
       4A    -58.215354     5A    -58.215353     6A     -9.532977  
       7A     -7.140322     8A     -7.140315     9A     -7.140314  
      10A     -2.882001    11A     -2.881999    12A     -2.881997  
      13A     -2.881995    14A     -2.881995    15A     -0.685996  
      16A     -0.139339    17A     -0.139337    18A     -0.139335  

    Virtual:                                                              

      19A      0.049170    20A      0.051110    21A      0.053887  
      22A      0.055895    23A      0.058774    24A      0.059589  
      25A      0.064426    26A      0.066643    27A      0.072368  
      28A      0.072688    29A      0.073539    30A      0.074016  
      31A      0.078623    32A      0.079066    33A      0.080079  
      34A      0.080795    35A      0.085802    36A      0.091426  
      37A      0.108409    38A      0.109336    39A      0.111984  
      40A      0.119410    41A      0.120276    42A      0.123287  
      43A      0.139014    44A      0.141652    45A      0.145270  
      46A      0.145535    47A      0.147727    48A      0.148752  
      49A      0.152867    50A      0.156291    51A      0.156753  
      52A      0.160144    53A      0.163860    54A      0.172485  
      55A      0.204249    56A      0.205104    57A      0.217186  
      58A      0.224997    59A      0.228704    60A      0.229387  
      61A      0.239471    62A      0.239929    63A      0.246307  
      64A      0.251202    65A      0.252368    66A      0.258495  
      67A      0.261170    68A      0.265958    69A      0.266958  
      70A      0.268832    71A      0.275918    72A      0.277614  
      73A      0.283518    74A      0.289754    75A      0.290507  
      76A      0.298792    77A      0.309941    78A      0.316553  
      79A      0.332611    80A      0.345454    81A      0.345594  
      82A      0.370715    83A      0.372574    84A      0.382008  
      85A      0.385941    86A      0.402643    87A      0.405052  
      88A      0.414346    89A      0.421559    90A      0.434791  
      91A      0.443621    92A      0.474192    93A      0.475179  
      94A      0.493670    95A      0.511446    96A      0.541189  
      97A      0.563249    98A      0.563706    99A      0.577836  
     100A      0.580591   101A      0.593061   102A      0.593221  
     103A      0.603540   104A      0.617543   105A      0.623683  
     106A      0.625520   107A      0.637015   108A      0.641948  
     109A      0.645868   110A      0.658135   111A      0.671513  
     112A      0.680163   113A      0.687807   114A      0.702814  
     115A      0.725361   116A      0.787937   117A      0.853556  
     118A      0.878758   119A      0.905644   120A      0.977658  
     121A      1.077050   122A      1.109610   123A      1.118753  
     124A      1.143255   125A      1.152229   126A      1.184255  
     127A      1.257567   128A      1.266694   129A      1.281184  
     130A      1.282816   131A      1.305113   132A      1.314954  
     133A      1.341748   134A      1.851474   135A      1.984550  
     136A      1.988586   137A      1.991302   138A      2.044137  
     139A      2.057015   140A      2.061390   141A      2.069328  
     142A      2.091058   143A      2.150154   144A      2.171569  
     145A      2.222402   146A      2.240957   147A      2.272931  
     148A      2.305946   149A      2.358866   150A      2.395235  
     151A      2.489871   152A      2.551756   153A      2.577743  
     154A      2.608442   155A      2.621590   156A      2.636062  
     157A      2.645424   158A      2.656543   159A      2.665880  
     160A      2.682342   161A      2.686041   162A      2.765808  
     163A      2.823882   164A      2.841130   165A      2.873855  
     166A      2.941559   167A      4.416492   168A     10.066132  
     169A     10.282529   170A     30.376372   171A     30.384821  
     172A     30.476230   173A     30.507859   174A     30.660448  
     175A     30.936635   176A    197.402235   177A    197.718073  

    Final Occupation by Irrep:
              A 
    DOCC [    18 ]
    NA   [    18 ]
    NB   [    18 ]

  @DF-RHF Final Energy: -2572.53368641426459

   => Energetics <=

    Nuclear Repulsion Energy =              0.0000000000000000
    One-Electron Energy =               -3593.6757872993212004
    Two-Electron Energy =                1021.1421008850562657
    Total Energy =                      -2572.5336864142650484

Computation Completed


Properties will be evaluated at   0.000000,   0.000000,   0.000000 [a0]

Properties computed using the SCF density matrix


 Multipole Moments:

 ------------------------------------------------------------------------------------
     Multipole            Electronic (a.u.)      Nuclear  (a.u.)        Total (a.u.)
 ------------------------------------------------------------------------------------

 L = 1.  Multiply by 2.5417464519 to convert [e a0] to [Debye]
 Dipole X            :          0.0001808            0.0000000            0.0001808
 Dipole Y            :          0.0005190            0.0000000            0.0005190
 Dipole Z            :         -0.0000000            0.0000000           -0.0000000
 Magnitude           :                                                    0.0005496

 ------------------------------------------------------------------------------------

*** tstop() called on moses-razer at Wed Jan 24 06:18:29 2024
Module time:
	user time   =      26.71 seconds =       0.45 minutes
	system time =       2.05 seconds =       0.03 minutes
	total time  =         18 seconds =       0.30 minutes
Total time:
	user time   =      26.71 seconds =       0.45 minutes
	system time =       2.05 seconds =       0.03 minutes
	total time  =         18 seconds =       0.30 minutes

*** tstart() called on moses-razer
*** at Wed Jan 24 06:18:29 2024


  //>>>>>>>>>>>>>>>>>>>>>>>>>>>>>>>>>>>//
  //               DFMP2               //
  //<<<<<<<<<<<<<<<<<<<<<<<<<<<<<<<<<<<//

   => Loading Basis Set <=

    Name: (AUG-CC-PVTZ AUX)
    Role: RIFIT
    Keyword: DF_BASIS_MP2
    atoms 1   entry BR         line  1248 file /home/kchung25/anaconda3/envs/p415env/share/psi4/basis/aug-cc-pvtz-ri.gbs 
    atoms 2-3 entry K          line  1282 file /home/kchung25/anaconda3/envs/p415env/share/psi4/basis/def2-qzvpp-ri.gbs 

	 --------------------------------------------------------
	                          DF-MP2                         
	      2nd-Order Density-Fitted Moller-Plesset Theory     
	              RMP2 Wavefunction,   6 Threads             
	                                                         
	        Rob Parrish, Justin Turney, Andy Simmonett,      
	           Ed Hohenstein, and C. David Sherrill          
	 --------------------------------------------------------

   => Auxiliary Basis Set <=

  Basis Set: (AUG-CC-PVTZ AUX)
    Blend: AUG-CC-PVTZ-RI + DEF2-QZVPP-RI
    Number of shells: 141
    Number of basis functions: 589
    Number of Cartesian functions: 785
    Spherical Harmonics?: true
    Max angular momentum: 5

	 --------------------------------------------------------
	                 NBF =   177, NAUX =   589
	 --------------------------------------------------------
	   CLASS    FOCC     OCC    AOCC    AVIR     VIR    FVIR
	   PAIRS       0      18      18     159     159       0
	 --------------------------------------------------------

	-----------------------------------------------------------
	 ==================> DF-MP2 Energies <==================== 
	-----------------------------------------------------------
	 Reference Energy          =   -2572.5336864142645936 [Eh]
	 Singles Energy            =      -0.0000000000000000 [Eh]
	 Same-Spin Energy          =      -0.0879372550425395 [Eh]
	 Opposite-Spin Energy      =      -0.2037336431350510 [Eh]
	 Correlation Energy        =      -0.2916708981775906 [Eh]
	 Total Energy              =   -2572.8253573124420654 [Eh]
	-----------------------------------------------------------
	 ================> DF-SCS-MP2 Energies <================== 
	-----------------------------------------------------------
	 SCS Same-Spin Scale       =       0.3333333333333333 [-]
	 SCS Opposite-Spin Scale   =       1.2000000000000000 [-]
	 SCS Same-Spin Energy      =      -0.0293124183475132 [Eh]
	 SCS Opposite-Spin Energy  =      -0.2444803717620612 [Eh]
	 SCS Correlation Energy    =      -0.2737927901095744 [Eh]
	 SCS Total Energy          =   -2572.8074792043739762 [Eh]
	-----------------------------------------------------------


*** tstop() called on moses-razer at Wed Jan 24 06:18:49 2024
Module time:
	user time   =      23.41 seconds =       0.39 minutes
	system time =       0.85 seconds =       0.01 minutes
	total time  =         20 seconds =       0.33 minutes
Total time:
	user time   =      50.13 seconds =       0.84 minutes
	system time =       2.90 seconds =       0.05 minutes
	total time  =         38 seconds =       0.63 minutes

    Psi4 stopped on: Wednesday, 24 January 2024 06:18AM
    Psi4 wall time for execution: 0:00:38.16


    -----------------------------------------------------------------------
          Psi4: An Open-Source Ab Initio Electronic Structure Package
                               Psi4 1.9 release

                         Git: Rev {} zzzzzzz 


    D. G. A. Smith, L. A. Burns, A. C. Simmonett, R. M. Parrish,
    M. C. Schieber, R. Galvelis, P. Kraus, H. Kruse, R. Di Remigio,
    A. Alenaizan, A. M. James, S. Lehtola, J. P. Misiewicz, M. Scheurer,
    R. A. Shaw, J. B. Schriber, Y. Xie, Z. L. Glick, D. A. Sirianni,
    J. S. O'Brien, J. M. Waldrop, A. Kumar, E. G. Hohenstein,
    B. P. Pritchard, B. R. Brooks, H. F. Schaefer III, A. Yu. Sokolov,
    K. Patkowski, A. E. DePrince III, U. Bozkaya, R. A. King,
    F. A. Evangelista, J. M. Turney, T. D. Crawford, C. D. Sherrill,
    J. Chem. Phys. 152(18) 184108 (2020). https://doi.org/10.1063/5.0006002

                            Additional Code Authors
    E. T. Seidl, C. L. Janssen, E. F. Valeev, M. L. Leininger,
    J. F. Gonthier, R. M. Richard, H. R. McAlexander, M. Saitow, X. Wang,
    P. Verma, M. H. Lechner, A. Jiang, S. Behnle, A. G. Heide,
    M. F. Herbst, and D. L. Poole

             Previous Authors, Complete List of Code Contributors,
                       and Citations for Specific Modules
    https://github.com/psi4/psi4/blob/master/codemeta.json
    https://github.com/psi4/psi4/graphs/contributors
    http://psicode.org/psi4manual/master/introduction.html#citing-psifour

    -----------------------------------------------------------------------


    Psi4 started on: Wednesday, 24 January 2024 06:18AM

    Process ID: 1196146
    Host:       moses-razer
    PSIDATADIR: /home/kchung25/anaconda3/envs/psi4_19/share/psi4
    Memory:     55.9 GiB
    Threads:    6
    
  ==> Input QCSchema <==

--------------------------------------------------------------------------
{'driver': 'energy',
 'extras': {'psiapi': True, 'wfn_qcvars_only': True},
 'id': None,
 'keywords': {'SCF_TYPE': 'DF', 'function_kwargs': {}},
 'model': {'basis': 'aug-cc-pvtz', 'method': 'mp2'},
 'molecule': {'atom_labels': ['', '', ''],
              'atomic_numbers': [35, 19, 19],
              'extras': {},
              'fix_com': True,
              'fix_orientation': True,
              'fix_symmetry': 'c1',
              'fragment_charges': [0.0, 1.0, 0.0],
              'fragment_multiplicities': [1, 1, 1],
              'fragments': [[0], [1], [2]],
              'geometry': [0.0, 0.0, 0.0, 0.0, 5.269879246064245, 0.0, 6.850843019883518, 0.0, 0.0],
              'mass_numbers': [79, 39, 39],
              'masses': [78.9183376, 38.9637064864, 38.9637064864],
              'molecular_charge': 1.0,
              'molecular_multiplicity': 1,
              'name': 'dimer',
              'provenance': {'creator': 'QCElemental',
                             'routine': 'qcelemental.molparse.from_string',
                             'version': '0.27.1'},
              'real': [False, True, False],
              'schema_name': 'qcschema_molecule',
              'schema_version': 2,
              'symbols': ['Br', 'K', 'K'],
              'validated': True},
 'protocols': {'stdout': True},
 'provenance': {'creator': 'QCElemental', 'routine': 'qcelemental.models.results', 'version': '0.27.1'},
 'schema_name': 'qcschema_input',
 'schema_version': 1}
--------------------------------------------------------------------------

Scratch directory: /scratch/
   => Libint2 <=

    Primary   basis highest AM E, G, H:  5, 4, 3
    Auxiliary basis highest AM E, G, H:  6, 5, 4
    Onebody   basis highest AM E, G, H:  6, 5, 4
    Solid Harmonics ordering:            gaussian

*** tstart() called on moses-razer
*** at Wed Jan 24 06:18:49 2024

   => Loading Basis Set <=

    Name: AUG-CC-PVTZ
    Role: ORBITAL
    Keyword: BASIS
    atoms 1   entry BR         line  4564 file /home/kchung25/anaconda3/envs/p415env/share/psi4/basis/aug-cc-pvtz.gbs 
    atoms 2-3 entry K          line  1152 file /home/kchung25/anaconda3/envs/p415env/share/psi4/basis/aug-cc-pvtz.gbs 


         ---------------------------------------------------------
                                   SCF
               by Justin Turney, Rob Parrish, Andy Simmonett
                          and Daniel G. A. Smith
                              RHF Reference
                        6 Threads,  57220 MiB Core
         ---------------------------------------------------------

  ==> Geometry <==

    Molecular point group: c1
    Full point group: Cs

    Geometry (in Bohr), charge = 1, multiplicity = 1:

       Center              X                  Y                   Z               Mass       
    ------------   -----------------  -----------------  -----------------  -----------------
      Gh(BR)          0.000000000000     0.000000000000     0.000000000000    78.918337600000
         K            0.000000000000     5.269879246064     0.000000000000    38.963706486400
      Gh(K)           6.850843019884     0.000000000000     0.000000000000    38.963706486400

  Running in c1 symmetry.

  Rotational constants: A =      0.05563  B =      0.03292  C =      0.02068 [cm^-1]
  Rotational constants: A =   1667.83600  B =    986.88520  C =    620.01338 [MHz]
  Nuclear repulsion =    0.000000000000000

  Charge       = 1
  Multiplicity = 1
  Electrons    = 18
  Nalpha       = 9
  Nbeta        = 9

  ==> Algorithm <==

  SCF Algorithm Type is DF.
  DIIS enabled.
  MOM disabled.
  Fractional occupation disabled.
  Guess Type is SAD.
  Energy threshold   = 1.00e-08
  Density threshold  = 1.00e-08
  Integral threshold = 1.00e-12

  ==> Primary Basis <==

  Basis Set: AUG-CC-PVTZ
    Blend: AUG-CC-PVTZ
    Number of shells: 57
    Number of basis functions: 177
    Number of Cartesian functions: 207
    Spherical Harmonics?: true
    Max angular momentum: 3

   => Loading Basis Set <=

    Name: (AUG-CC-PVTZ AUX)
    Role: JKFIT
    Keyword: DF_BASIS_SCF
    atoms 1   entry BR         line  1492 file /home/kchung25/anaconda3/envs/p415env/share/psi4/basis/aug-cc-pvtz-jkfit.gbs 
    atoms 2-3 entry K          line  1152 file /home/kchung25/anaconda3/envs/p415env/share/psi4/basis/def2-universal-jkfit.gbs 

  ==> Integral Setup <==

  DFHelper Memory: AOs need 0.143 GiB; user supplied 41.910 GiB. 
  Using in-core AOs.

  ==> MemDFJK: Density-Fitted J/K Matrices <==

    J tasked:                   Yes
    K tasked:                   Yes
    wK tasked:                   No
    OpenMP threads:               6
    Memory [MiB]:             42915
    Algorithm:                 Core
    Schwarz Cutoff:           1E-12
    Mask sparsity (%):       0.0000
    Fitting Condition:        1E-10

   => Auxiliary Basis Set <=

  Basis Set: (AUG-CC-PVTZ AUX)
    Blend: AUG-CC-PVTZ-JKFIT + DEF2-UNIVERSAL-JKFIT
    Number of shells: 146
    Number of basis functions: 568
    Number of Cartesian functions: 735
    Spherical Harmonics?: true
    Max angular momentum: 4

  Minimum eigenvalue in the overlap matrix is 1.9246978404E-05.
  Reciprocal condition number of the overlap matrix is 2.3571769351E-06.
    Using symmetric orthogonalization.

  ==> Pre-Iterations <==

  SCF Guess: Superposition of Atomic Densities via on-the-fly atomic UHF (no occupation information).

   -------------------------
    Irrep   Nso     Nmo    
   -------------------------
     A        177     177 
   -------------------------
    Total     177     177
   -------------------------

  ==> Iterations <==

                           Total Energy        Delta E     RMS |[F,P]|

   @DF-RHF iter SAD:  -599.05149152951253   -5.99051e+02   0.00000e+00 
   @DF-RHF iter   1:  -599.01748199286055    3.40095e-02   3.70007e-05 DIIS
   @DF-RHF iter   2:  -599.01750827678586   -2.62839e-05   5.13406e-06 DIIS
   @DF-RHF iter   3:  -599.01750892476593   -6.47980e-07   4.02122e-07 DIIS
   @DF-RHF iter   4:  -599.01750892803182   -3.26588e-09   4.35318e-08 DIIS
   @DF-RHF iter   5:  -599.01750892807536   -4.35421e-11   9.54918e-09 DIIS
  Energy and wave function converged.


  ==> Post-Iterations <==

    Orbital Energies [Eh]
    ---------------------

    Doubly Occupied:                                                      

       1A   -133.753588     2A    -14.709070     3A    -11.739139  
       4A    -11.739134     5A    -11.739132     6A     -1.964293  
       7A     -1.170935     8A     -1.170895     9A     -1.170878  

    Virtual:                                                              

      10A     -0.146971    11A     -0.095560    12A     -0.095554  
      13A     -0.095552    14A     -0.060910    15A     -0.057916  
      16A     -0.057899    17A     -0.057848    18A     -0.057802  
      19A     -0.057770    20A     -0.045543    21A     -0.045538  
      22A     -0.045536    23A     -0.032444    24A     -0.032320  
      25A     -0.032282    26A     -0.031320    27A     -0.031273  
      28A     -0.031088    29A     -0.029809    30A     -0.029797  
      31A     -0.029063    32A     -0.027926    33A     -0.027861  
      34A     -0.022720    35A     -0.019017    36A     -0.018787  
      37A     -0.015936    38A     -0.015895    39A     -0.012410  
      40A     -0.010425    41A     -0.009981    42A     -0.005982  
      43A     -0.004253    44A     -0.003943    45A     -0.000810  
      46A      0.007962    47A      0.009536    48A      0.009853  
      49A      0.011297    50A      0.013788    51A      0.014714  
      52A      0.016454    53A      0.016935    54A      0.018625  
      55A      0.019496    56A      0.027067    57A      0.028553  
      58A      0.030386    59A      0.033660    60A      0.036407  
      61A      0.052769    62A      0.056233    63A      0.060958  
      64A      0.066408    65A      0.067674    66A      0.069441  
      67A      0.073059    68A      0.082734    69A      0.083985  
      70A      0.089846    71A      0.100429    72A      0.100685  
      73A      0.109060    74A      0.111666    75A      0.117880  
      76A      0.121189    77A      0.123346    78A      0.133067  
      79A      0.137666    80A      0.145319    81A      0.149530  
      82A      0.155124    83A      0.158539    84A      0.190986  
      85A      0.200312    86A      0.207937    87A      0.209672  
      88A      0.226419    89A      0.229860    90A      0.235428  
      91A      0.239398    92A      0.248246    93A      0.257210  
      94A      0.257267    95A      0.263219    96A      0.272644  
      97A      0.293397    98A      0.296073    99A      0.298157  
     100A      0.300890   101A      0.303772   102A      0.326436  
     103A      0.328847   104A      0.360079   105A      0.361295  
     106A      0.368322   107A      0.391695   108A      0.392895  
     109A      0.403015   110A      0.408372   111A      0.413999  
     112A      0.426352   113A      0.426605   114A      0.456553  
     115A      0.480113   116A      0.590634   117A      0.846921  
     118A      0.870043   119A      0.907722   120A      0.935754  
     121A      0.951069   122A      0.954341   123A      0.962994  
     124A      0.977359   125A      0.986798   126A      0.997126  
     127A      1.051838   128A      1.068947   129A      1.107934  
     130A      1.120877   131A      1.123043   132A      1.147931  
     133A      1.163160   134A      1.624815   135A      1.740152  
     136A      1.768258   137A      1.811170   138A      1.823243  
     139A      1.872129   140A      1.917499   141A      2.024889  
     142A      2.144148   143A      2.740224   144A      2.811229  
     145A      2.838449   146A      2.978222   147A      2.983538  
     148A      2.992216   149A      2.994281   150A      3.001755  
     151A      3.011970   152A      3.033248   153A      3.068364  
     154A      3.186109   155A      3.200157   156A      3.212510  
     157A      3.235142   158A      3.255035   159A      9.491449  
     160A      9.810390   161A     13.333318   162A     13.419176  
     163A     13.448644   164A     26.014734   165A     26.015731  
     166A     26.034043   167A     26.056337   168A     26.072571  
     169A     30.142066   170A     30.183564   171A     30.421899  
     172A     45.407616   173A    138.319860   174A    138.458208  
     175A    138.501115   176A    197.143467   177A    708.781327  

    Final Occupation by Irrep:
              A 
    DOCC [     9 ]
    NA   [     9 ]
    NB   [     9 ]

  @DF-RHF Final Energy:  -599.01750892807536

   => Energetics <=

    Nuclear Repulsion Energy =              0.0000000000000000
    One-Electron Energy =                -819.7208950336074622
    Two-Electron Energy =                 220.7033861055321324
    Total Energy =                       -599.0175089280753582

Computation Completed


Properties will be evaluated at   0.000000,   0.000000,   0.000000 [a0]

Properties computed using the SCF density matrix


 Multipole Moments:

 ------------------------------------------------------------------------------------
     Multipole            Electronic (a.u.)      Nuclear  (a.u.)        Total (a.u.)
 ------------------------------------------------------------------------------------

 L = 1.  Multiply by 2.5417464519 to convert [e a0] to [Debye]
 Dipole X            :          0.0000766            0.0000000            0.0000766
 Dipole Y            :        -94.8583060          100.1277057            5.2693997
 Dipole Z            :         -0.0000000            0.0000000           -0.0000000
 Magnitude           :                                                    5.2693997

 ------------------------------------------------------------------------------------

*** tstop() called on moses-razer at Wed Jan 24 06:19:08 2024
Module time:
	user time   =      27.47 seconds =       0.46 minutes
	system time =       2.69 seconds =       0.04 minutes
	total time  =         19 seconds =       0.32 minutes
Total time:
	user time   =      77.84 seconds =       1.30 minutes
	system time =       5.60 seconds =       0.09 minutes
	total time  =         57 seconds =       0.95 minutes

*** tstart() called on moses-razer
*** at Wed Jan 24 06:19:08 2024


  //>>>>>>>>>>>>>>>>>>>>>>>>>>>>>>>>>>>//
  //               DFMP2               //
  //<<<<<<<<<<<<<<<<<<<<<<<<<<<<<<<<<<<//

   => Loading Basis Set <=

    Name: (AUG-CC-PVTZ AUX)
    Role: RIFIT
    Keyword: DF_BASIS_MP2
    atoms 1   entry BR         line  1248 file /home/kchung25/anaconda3/envs/p415env/share/psi4/basis/aug-cc-pvtz-ri.gbs 
    atoms 2-3 entry K          line  1282 file /home/kchung25/anaconda3/envs/p415env/share/psi4/basis/def2-qzvpp-ri.gbs 

	 --------------------------------------------------------
	                          DF-MP2                         
	      2nd-Order Density-Fitted Moller-Plesset Theory     
	              RMP2 Wavefunction,   6 Threads             
	                                                         
	        Rob Parrish, Justin Turney, Andy Simmonett,      
	           Ed Hohenstein, and C. David Sherrill          
	 --------------------------------------------------------

   => Auxiliary Basis Set <=

  Basis Set: (AUG-CC-PVTZ AUX)
    Blend: AUG-CC-PVTZ-RI + DEF2-QZVPP-RI
    Number of shells: 141
    Number of basis functions: 589
    Number of Cartesian functions: 785
    Spherical Harmonics?: true
    Max angular momentum: 5

	 --------------------------------------------------------
	                 NBF =   177, NAUX =   589
	 --------------------------------------------------------
	   CLASS    FOCC     OCC    AOCC    AVIR     VIR    FVIR
	   PAIRS       0       9       9     168     168       0
	 --------------------------------------------------------

	-----------------------------------------------------------
	 ==================> DF-MP2 Energies <==================== 
	-----------------------------------------------------------
	 Reference Energy          =    -599.0175089280753582 [Eh]
	 Singles Energy            =      -0.0000000000000000 [Eh]
	 Same-Spin Energy          =      -0.0291877029972307 [Eh]
	 Opposite-Spin Energy      =      -0.0686173507987794 [Eh]
	 Correlation Energy        =      -0.0978050537960101 [Eh]
	 Total Energy              =    -599.1153139818713953 [Eh]
	-----------------------------------------------------------
	 ================> DF-SCS-MP2 Energies <================== 
	-----------------------------------------------------------
	 SCS Same-Spin Scale       =       0.3333333333333333 [-]
	 SCS Opposite-Spin Scale   =       1.2000000000000000 [-]
	 SCS Same-Spin Energy      =      -0.0097292343324102 [Eh]
	 SCS Opposite-Spin Energy  =      -0.0823408209585353 [Eh]
	 SCS Correlation Energy    =      -0.0920700552909455 [Eh]
	 SCS Total Energy          =    -599.1095789833663048 [Eh]
	-----------------------------------------------------------


*** tstop() called on moses-razer at Wed Jan 24 06:19:28 2024
Module time:
	user time   =      23.24 seconds =       0.39 minutes
	system time =       0.80 seconds =       0.01 minutes
	total time  =         20 seconds =       0.33 minutes
Total time:
	user time   =     101.08 seconds =       1.68 minutes
	system time =       6.40 seconds =       0.11 minutes
	total time  =         77 seconds =       1.28 minutes

    Psi4 stopped on: Wednesday, 24 January 2024 06:19AM
    Psi4 wall time for execution: 0:00:39.39


    -----------------------------------------------------------------------
          Psi4: An Open-Source Ab Initio Electronic Structure Package
                               Psi4 1.9 release

                         Git: Rev {} zzzzzzz 


    D. G. A. Smith, L. A. Burns, A. C. Simmonett, R. M. Parrish,
    M. C. Schieber, R. Galvelis, P. Kraus, H. Kruse, R. Di Remigio,
    A. Alenaizan, A. M. James, S. Lehtola, J. P. Misiewicz, M. Scheurer,
    R. A. Shaw, J. B. Schriber, Y. Xie, Z. L. Glick, D. A. Sirianni,
    J. S. O'Brien, J. M. Waldrop, A. Kumar, E. G. Hohenstein,
    B. P. Pritchard, B. R. Brooks, H. F. Schaefer III, A. Yu. Sokolov,
    K. Patkowski, A. E. DePrince III, U. Bozkaya, R. A. King,
    F. A. Evangelista, J. M. Turney, T. D. Crawford, C. D. Sherrill,
    J. Chem. Phys. 152(18) 184108 (2020). https://doi.org/10.1063/5.0006002

                            Additional Code Authors
    E. T. Seidl, C. L. Janssen, E. F. Valeev, M. L. Leininger,
    J. F. Gonthier, R. M. Richard, H. R. McAlexander, M. Saitow, X. Wang,
    P. Verma, M. H. Lechner, A. Jiang, S. Behnle, A. G. Heide,
    M. F. Herbst, and D. L. Poole

             Previous Authors, Complete List of Code Contributors,
                       and Citations for Specific Modules
    https://github.com/psi4/psi4/blob/master/codemeta.json
    https://github.com/psi4/psi4/graphs/contributors
    http://psicode.org/psi4manual/master/introduction.html#citing-psifour

    -----------------------------------------------------------------------


    Psi4 started on: Wednesday, 24 January 2024 06:18AM

    Process ID: 1196146
    Host:       moses-razer
    PSIDATADIR: /home/kchung25/anaconda3/envs/psi4_19/share/psi4
    Memory:     55.9 GiB
    Threads:    6
    
  ==> Input QCSchema <==

--------------------------------------------------------------------------
{'driver': 'energy',
 'extras': {'psiapi': True, 'wfn_qcvars_only': True},
 'id': None,
 'keywords': {'SCF_TYPE': 'DF', 'function_kwargs': {}},
 'model': {'basis': 'aug-cc-pvtz', 'method': 'mp2'},
 'molecule': {'atom_labels': ['', '', ''],
              'atomic_numbers': [35, 19, 19],
              'extras': {},
              'fix_com': True,
              'fix_orientation': True,
              'fix_symmetry': 'c1',
              'fragment_charges': [0.0, 1.0, 1.0],
              'fragment_multiplicities': [1, 1, 1],
              'fragments': [[0], [1], [2]],
              'geometry': [0.0, 0.0, 0.0, 0.0, 5.269879246064245, 0.0, 6.850843019883518, 0.0, 0.0],
              'mass_numbers': [79, 39, 39],
              'masses': [78.9183376, 38.9637064864, 38.9637064864],
              'molecular_charge': 2.0,
              'molecular_multiplicity': 1,
              'name': 'dimer',
              'provenance': {'creator': 'QCElemental',
                             'routine': 'qcelemental.molparse.from_string',
                             'version': '0.27.1'},
              'real': [False, True, True],
              'schema_name': 'qcschema_molecule',
              'schema_version': 2,
              'symbols': ['Br', 'K', 'K'],
              'validated': True},
 'protocols': {'stdout': True},
 'provenance': {'creator': 'QCElemental', 'routine': 'qcelemental.models.results', 'version': '0.27.1'},
 'schema_name': 'qcschema_input',
 'schema_version': 1}
--------------------------------------------------------------------------

Scratch directory: /scratch/
   => Libint2 <=

    Primary   basis highest AM E, G, H:  5, 4, 3
    Auxiliary basis highest AM E, G, H:  6, 5, 4
    Onebody   basis highest AM E, G, H:  6, 5, 4
    Solid Harmonics ordering:            gaussian

*** tstart() called on moses-razer
*** at Wed Jan 24 06:19:28 2024

   => Loading Basis Set <=

    Name: AUG-CC-PVTZ
    Role: ORBITAL
    Keyword: BASIS
    atoms 1   entry BR         line  4564 file /home/kchung25/anaconda3/envs/p415env/share/psi4/basis/aug-cc-pvtz.gbs 
    atoms 2-3 entry K          line  1152 file /home/kchung25/anaconda3/envs/p415env/share/psi4/basis/aug-cc-pvtz.gbs 


         ---------------------------------------------------------
                                   SCF
               by Justin Turney, Rob Parrish, Andy Simmonett
                          and Daniel G. A. Smith
                              RHF Reference
                        6 Threads,  57220 MiB Core
         ---------------------------------------------------------

  ==> Geometry <==

    Molecular point group: c1
    Full point group: Cs

    Geometry (in Bohr), charge = 2, multiplicity = 1:

       Center              X                  Y                   Z               Mass       
    ------------   -----------------  -----------------  -----------------  -----------------
      Gh(BR)          0.000000000000     0.000000000000     0.000000000000    78.918337600000
         K            0.000000000000     5.269879246064     0.000000000000    38.963706486400
         K            6.850843019884     0.000000000000     0.000000000000    38.963706486400

  Running in c1 symmetry.

  Rotational constants: A =      0.05563  B =      0.03292  C =      0.02068 [cm^-1]
  Rotational constants: A =   1667.83600  B =    986.88520  C =    620.01338 [MHz]
  Nuclear repulsion =   41.766722611551778

  Charge       = 2
  Multiplicity = 1
  Electrons    = 36
  Nalpha       = 18
  Nbeta        = 18

  ==> Algorithm <==

  SCF Algorithm Type is DF.
  DIIS enabled.
  MOM disabled.
  Fractional occupation disabled.
  Guess Type is SAD.
  Energy threshold   = 1.00e-08
  Density threshold  = 1.00e-08
  Integral threshold = 1.00e-12

  ==> Primary Basis <==

  Basis Set: AUG-CC-PVTZ
    Blend: AUG-CC-PVTZ
    Number of shells: 57
    Number of basis functions: 177
    Number of Cartesian functions: 207
    Spherical Harmonics?: true
    Max angular momentum: 3

   => Loading Basis Set <=

    Name: (AUG-CC-PVTZ AUX)
    Role: JKFIT
    Keyword: DF_BASIS_SCF
    atoms 1   entry BR         line  1492 file /home/kchung25/anaconda3/envs/p415env/share/psi4/basis/aug-cc-pvtz-jkfit.gbs 
    atoms 2-3 entry K          line  1152 file /home/kchung25/anaconda3/envs/p415env/share/psi4/basis/def2-universal-jkfit.gbs 

  ==> Integral Setup <==

  DFHelper Memory: AOs need 0.143 GiB; user supplied 41.910 GiB. 
  Using in-core AOs.

  ==> MemDFJK: Density-Fitted J/K Matrices <==

    J tasked:                   Yes
    K tasked:                   Yes
    wK tasked:                   No
    OpenMP threads:               6
    Memory [MiB]:             42915
    Algorithm:                 Core
    Schwarz Cutoff:           1E-12
    Mask sparsity (%):       0.0000
    Fitting Condition:        1E-10

   => Auxiliary Basis Set <=

  Basis Set: (AUG-CC-PVTZ AUX)
    Blend: AUG-CC-PVTZ-JKFIT + DEF2-UNIVERSAL-JKFIT
    Number of shells: 146
    Number of basis functions: 568
    Number of Cartesian functions: 735
    Spherical Harmonics?: true
    Max angular momentum: 4

  Minimum eigenvalue in the overlap matrix is 1.9246978404E-05.
  Reciprocal condition number of the overlap matrix is 2.3571769351E-06.
    Using symmetric orthogonalization.

  ==> Pre-Iterations <==

  SCF Guess: Superposition of Atomic Densities via on-the-fly atomic UHF (no occupation information).

   -------------------------
    Irrep   Nso     Nmo    
   -------------------------
     A        177     177 
   -------------------------
    Total     177     177
   -------------------------

  ==> Iterations <==

                           Total Energy        Delta E     RMS |[F,P]|

   @DF-RHF iter SAD: -1198.10611550630369   -1.19811e+03   0.00000e+00 
   @DF-RHF iter   1: -1197.92009197609900    1.86024e-01   7.77727e-05 DIIS
   @DF-RHF iter   2: -1197.92023274786948   -1.40772e-04   1.48179e-05 DIIS
   @DF-RHF iter   3: -1197.92023786919117   -5.12132e-06   2.64282e-06 DIIS
   @DF-RHF iter   4: -1197.92023801122423   -1.42033e-07   3.66020e-07 DIIS
   @DF-RHF iter   5: -1197.92023801567643   -4.45220e-09   4.37058e-08 DIIS
   @DF-RHF iter   6: -1197.92023801574192   -6.54836e-11   7.84836e-09 DIIS
  Energy and wave function converged.


  ==> Post-Iterations <==

    Orbital Energies [Eh]
    ---------------------

    Doubly Occupied:                                                      

       1A   -133.869272     2A   -133.869221     3A    -14.824593  
       4A    -14.824562     5A    -11.854718     6A    -11.854683  
       7A    -11.854644     8A    -11.854643     9A    -11.854609  
      10A    -11.854607    11A     -2.079475    12A     -2.079438  
      13A     -1.287718    14A     -1.286914    15A     -1.285410  
      16A     -1.285393    17A     -1.285341    18A     -1.285326  

    Virtual:                                                              

      19A     -0.288405    20A     -0.226554    21A     -0.218467  
      22A     -0.218390    23A     -0.191651    24A     -0.170065  
      25A     -0.170057    26A     -0.160694    27A     -0.160666  
      28A     -0.160072    29A     -0.148067    30A     -0.147840  
      31A     -0.144171    32A     -0.127990    33A     -0.127559  
      34A     -0.120324    35A     -0.117442    36A     -0.117420  
      37A     -0.115366    38A     -0.103098    39A     -0.103042  
      40A     -0.098968    41A     -0.098889    42A     -0.094888  
      43A     -0.091162    44A     -0.091129    45A     -0.090864  
      46A     -0.090756    47A     -0.089680    48A     -0.087222  
      49A     -0.086621    50A     -0.086157    51A     -0.082319  
      52A     -0.081959    53A     -0.074596    54A     -0.074513  
      55A     -0.074168    56A     -0.072994    57A     -0.068741  
      58A     -0.068665    59A     -0.067991    60A     -0.066898  
      61A     -0.064215    62A     -0.064163    63A     -0.061651  
      64A     -0.061617    65A     -0.060904    66A     -0.059587  
      67A     -0.059470    68A     -0.056360    69A     -0.055603  
      70A     -0.053148    71A     -0.052725    72A     -0.050413  
      73A     -0.050252    74A     -0.047434    75A     -0.036253  
      76A     -0.036161    77A     -0.030073    78A     -0.023243  
      79A     -0.018118    80A     -0.016975    81A     -0.013731  
      82A     -0.012162    83A     -0.011630    84A     -0.010655  
      85A     -0.008926    86A     -0.000324    87A      0.001095  
      88A      0.009761    89A      0.016086    90A      0.017055  
      91A      0.031488    92A      0.033353    93A      0.045902  
      94A      0.054829    95A      0.058473    96A      0.078797  
      97A      0.092058    98A      0.106741    99A      0.113332  
     100A      0.114464   101A      0.116558   102A      0.120241  
     103A      0.123959   104A      0.124148   105A      0.124594  
     106A      0.128204   107A      0.139984   108A      0.143352  
     109A      0.145561   110A      0.153500   111A      0.163964  
     112A      0.170155   113A      0.176930   114A      0.179562  
     115A      0.191702   116A      0.194755   117A      0.198498  
     118A      0.199890   119A      0.207979   120A      0.226609  
     121A      0.230602   122A      0.233875   123A      0.241644  
     124A      0.260696   125A      0.273106   126A      0.293634  
     127A      0.307955   128A      0.328694   129A      0.332082  
     130A      0.719142   131A      0.733583   132A      0.756786  
     133A      0.785290   134A      0.788532   135A      0.814373  
     136A      0.817413   137A      0.822103   138A      0.829919  
     139A      0.855392   140A      0.866243   141A      0.920939  
     142A      0.937200   143A      0.985514   144A      0.988080  
     145A      0.991960   146A      1.021484   147A      1.049211  
     148A      2.599425   149A      2.668130   150A      2.688174  
     151A      2.834415   152A      2.836915   153A      2.844949  
     154A      2.849911   155A      2.854993   156A      2.866938  
     157A      2.874023   158A      2.907536   159A      3.046821  
     160A      3.059271   161A      3.073010   162A      3.092309  
     163A      3.106648   164A      9.350582   165A     13.190586  
     166A     13.276366   167A     13.303186   168A     25.871353  
     169A     25.872772   170A     25.891272   171A     25.912968  
     172A     25.929339   173A     45.264070   174A    138.176629  
     175A    138.314984   176A    138.357443   177A    708.638002  

    Final Occupation by Irrep:
              A 
    DOCC [    18 ]
    NA   [    18 ]
    NB   [    18 ]

  @DF-RHF Final Energy: -1197.92023801574192

   => Energetics <=

    Nuclear Repulsion Energy =             41.7667226115517778
    One-Electron Energy =               -1718.5927854234851111
    Two-Electron Energy =                 478.9058247961914958
    Total Energy =                      -1197.9202380157416883

Computation Completed


Properties will be evaluated at   0.000000,   0.000000,   0.000000 [a0]

Properties computed using the SCF density matrix


 Multipole Moments:

 ------------------------------------------------------------------------------------
     Multipole            Electronic (a.u.)      Nuclear  (a.u.)        Total (a.u.)
 ------------------------------------------------------------------------------------

 L = 1.  Multiply by 2.5417464519 to convert [e a0] to [Debye]
 Dipole X            :       -123.3155737          130.1660174            6.8504436
 Dipole Y            :        -94.8574999          100.1277057            5.2702058
 Dipole Z            :         -0.0000000            0.0000000           -0.0000000
 Magnitude           :                                                    8.6431272

 ------------------------------------------------------------------------------------

*** tstop() called on moses-razer at Wed Jan 24 06:19:48 2024
Module time:
	user time   =      28.12 seconds =       0.47 minutes
	system time =       2.65 seconds =       0.04 minutes
	total time  =         20 seconds =       0.33 minutes
Total time:
	user time   =     129.45 seconds =       2.16 minutes
	system time =       9.05 seconds =       0.15 minutes
	total time  =         97 seconds =       1.62 minutes

*** tstart() called on moses-razer
*** at Wed Jan 24 06:19:48 2024


  //>>>>>>>>>>>>>>>>>>>>>>>>>>>>>>>>>>>//
  //               DFMP2               //
  //<<<<<<<<<<<<<<<<<<<<<<<<<<<<<<<<<<<//

   => Loading Basis Set <=

    Name: (AUG-CC-PVTZ AUX)
    Role: RIFIT
    Keyword: DF_BASIS_MP2
    atoms 1   entry BR         line  1248 file /home/kchung25/anaconda3/envs/p415env/share/psi4/basis/aug-cc-pvtz-ri.gbs 
    atoms 2-3 entry K          line  1282 file /home/kchung25/anaconda3/envs/p415env/share/psi4/basis/def2-qzvpp-ri.gbs 

	 --------------------------------------------------------
	                          DF-MP2                         
	      2nd-Order Density-Fitted Moller-Plesset Theory     
	              RMP2 Wavefunction,   6 Threads             
	                                                         
	        Rob Parrish, Justin Turney, Andy Simmonett,      
	           Ed Hohenstein, and C. David Sherrill          
	 --------------------------------------------------------

   => Auxiliary Basis Set <=

  Basis Set: (AUG-CC-PVTZ AUX)
    Blend: AUG-CC-PVTZ-RI + DEF2-QZVPP-RI
    Number of shells: 141
    Number of basis functions: 589
    Number of Cartesian functions: 785
    Spherical Harmonics?: true
    Max angular momentum: 5

	 --------------------------------------------------------
	                 NBF =   177, NAUX =   589
	 --------------------------------------------------------
	   CLASS    FOCC     OCC    AOCC    AVIR     VIR    FVIR
	   PAIRS       0      18      18     159     159       0
	 --------------------------------------------------------

	-----------------------------------------------------------
	 ==================> DF-MP2 Energies <==================== 
	-----------------------------------------------------------
	 Reference Energy          =   -1197.9202380157419157 [Eh]
	 Singles Energy            =      -0.0000000000000000 [Eh]
	 Same-Spin Energy          =      -0.0567057487691989 [Eh]
	 Opposite-Spin Energy      =      -0.1325787671792749 [Eh]
	 Correlation Energy        =      -0.1892845159484738 [Eh]
	 Total Energy              =   -1198.1095225316903452 [Eh]
	-----------------------------------------------------------
	 ================> DF-SCS-MP2 Energies <================== 
	-----------------------------------------------------------
	 SCS Same-Spin Scale       =       0.3333333333333333 [-]
	 SCS Opposite-Spin Scale   =       1.2000000000000000 [-]
	 SCS Same-Spin Energy      =      -0.0189019162563996 [Eh]
	 SCS Opposite-Spin Energy  =      -0.1590945206151299 [Eh]
	 SCS Correlation Energy    =      -0.1779964368715296 [Eh]
	 SCS Total Energy          =   -1198.0982344526134966 [Eh]
	-----------------------------------------------------------


*** tstop() called on moses-razer at Wed Jan 24 06:20:08 2024
Module time:
	user time   =      23.51 seconds =       0.39 minutes
	system time =       0.81 seconds =       0.01 minutes
	total time  =         20 seconds =       0.33 minutes
Total time:
	user time   =     152.96 seconds =       2.55 minutes
	system time =       9.86 seconds =       0.16 minutes
	total time  =        117 seconds =       1.95 minutes

    Psi4 stopped on: Wednesday, 24 January 2024 06:20AM
    Psi4 wall time for execution: 0:00:39.50


    -----------------------------------------------------------------------
          Psi4: An Open-Source Ab Initio Electronic Structure Package
                               Psi4 1.9 release

                         Git: Rev {} zzzzzzz 


    D. G. A. Smith, L. A. Burns, A. C. Simmonett, R. M. Parrish,
    M. C. Schieber, R. Galvelis, P. Kraus, H. Kruse, R. Di Remigio,
    A. Alenaizan, A. M. James, S. Lehtola, J. P. Misiewicz, M. Scheurer,
    R. A. Shaw, J. B. Schriber, Y. Xie, Z. L. Glick, D. A. Sirianni,
    J. S. O'Brien, J. M. Waldrop, A. Kumar, E. G. Hohenstein,
    B. P. Pritchard, B. R. Brooks, H. F. Schaefer III, A. Yu. Sokolov,
    K. Patkowski, A. E. DePrince III, U. Bozkaya, R. A. King,
    F. A. Evangelista, J. M. Turney, T. D. Crawford, C. D. Sherrill,
    J. Chem. Phys. 152(18) 184108 (2020). https://doi.org/10.1063/5.0006002

                            Additional Code Authors
    E. T. Seidl, C. L. Janssen, E. F. Valeev, M. L. Leininger,
    J. F. Gonthier, R. M. Richard, H. R. McAlexander, M. Saitow, X. Wang,
    P. Verma, M. H. Lechner, A. Jiang, S. Behnle, A. G. Heide,
    M. F. Herbst, and D. L. Poole

             Previous Authors, Complete List of Code Contributors,
                       and Citations for Specific Modules
    https://github.com/psi4/psi4/blob/master/codemeta.json
    https://github.com/psi4/psi4/graphs/contributors
    http://psicode.org/psi4manual/master/introduction.html#citing-psifour

    -----------------------------------------------------------------------


    Psi4 started on: Wednesday, 24 January 2024 06:18AM

    Process ID: 1196146
    Host:       moses-razer
    PSIDATADIR: /home/kchung25/anaconda3/envs/psi4_19/share/psi4
    Memory:     55.9 GiB
    Threads:    6
    
  ==> Input QCSchema <==

--------------------------------------------------------------------------
{'driver': 'energy',
 'extras': {'psiapi': True, 'wfn_qcvars_only': True},
 'id': None,
 'keywords': {'SCF_TYPE': 'DF', 'function_kwargs': {}},
 'model': {'basis': 'aug-cc-pvtz', 'method': 'mp2'},
 'molecule': {'atom_labels': ['', '', ''],
              'atomic_numbers': [35, 19, 19],
              'extras': {},
              'fix_com': True,
              'fix_orientation': True,
              'fix_symmetry': 'c1',
              'fragment_charges': [-1.0, 0.0, 1.0],
              'fragment_multiplicities': [1, 1, 1],
              'fragments': [[0], [1], [2]],
              'geometry': [0.0, 0.0, 0.0, 0.0, 5.269879246064245, 0.0, 6.850843019883518, 0.0, 0.0],
              'mass_numbers': [79, 39, 39],
              'masses': [78.9183376, 38.9637064864, 38.9637064864],
              'molecular_charge': 0.0,
              'molecular_multiplicity': 1,
              'name': 'dimer',
              'provenance': {'creator': 'QCElemental',
                             'routine': 'qcelemental.molparse.from_string',
                             'version': '0.27.1'},
              'real': [True, False, True],
              'schema_name': 'qcschema_molecule',
              'schema_version': 2,
              'symbols': ['Br', 'K', 'K'],
              'validated': True},
 'protocols': {'stdout': True},
 'provenance': {'creator': 'QCElemental', 'routine': 'qcelemental.models.results', 'version': '0.27.1'},
 'schema_name': 'qcschema_input',
 'schema_version': 1}
--------------------------------------------------------------------------

Scratch directory: /scratch/
   => Libint2 <=

    Primary   basis highest AM E, G, H:  5, 4, 3
    Auxiliary basis highest AM E, G, H:  6, 5, 4
    Onebody   basis highest AM E, G, H:  6, 5, 4
    Solid Harmonics ordering:            gaussian

*** tstart() called on moses-razer
*** at Wed Jan 24 06:20:08 2024

   => Loading Basis Set <=

    Name: AUG-CC-PVTZ
    Role: ORBITAL
    Keyword: BASIS
    atoms 1   entry BR         line  4564 file /home/kchung25/anaconda3/envs/p415env/share/psi4/basis/aug-cc-pvtz.gbs 
    atoms 2-3 entry K          line  1152 file /home/kchung25/anaconda3/envs/p415env/share/psi4/basis/aug-cc-pvtz.gbs 


         ---------------------------------------------------------
                                   SCF
               by Justin Turney, Rob Parrish, Andy Simmonett
                          and Daniel G. A. Smith
                              RHF Reference
                        6 Threads,  57220 MiB Core
         ---------------------------------------------------------

  ==> Geometry <==

    Molecular point group: c1
    Full point group: Cs

    Geometry (in Bohr), charge = 0, multiplicity = 1:

       Center              X                  Y                   Z               Mass       
    ------------   -----------------  -----------------  -----------------  -----------------
         BR           0.000000000000     0.000000000000     0.000000000000    78.918337600000
      Gh(K)           0.000000000000     5.269879246064     0.000000000000    38.963706486400
         K            6.850843019884     0.000000000000     0.000000000000    38.963706486400

  Running in c1 symmetry.

  Rotational constants: A =      0.05563  B =      0.03292  C =      0.02068 [cm^-1]
  Rotational constants: A =   1667.83600  B =    986.88520  C =    620.01338 [MHz]
  Nuclear repulsion =   97.068345905743243

  Charge       = 0
  Multiplicity = 1
  Electrons    = 54
  Nalpha       = 27
  Nbeta        = 27

  ==> Algorithm <==

  SCF Algorithm Type is DF.
  DIIS enabled.
  MOM disabled.
  Fractional occupation disabled.
  Guess Type is SAD.
  Energy threshold   = 1.00e-08
  Density threshold  = 1.00e-08
  Integral threshold = 1.00e-12

  ==> Primary Basis <==

  Basis Set: AUG-CC-PVTZ
    Blend: AUG-CC-PVTZ
    Number of shells: 57
    Number of basis functions: 177
    Number of Cartesian functions: 207
    Spherical Harmonics?: true
    Max angular momentum: 3

   => Loading Basis Set <=

    Name: (AUG-CC-PVTZ AUX)
    Role: JKFIT
    Keyword: DF_BASIS_SCF
    atoms 1   entry BR         line  1492 file /home/kchung25/anaconda3/envs/p415env/share/psi4/basis/aug-cc-pvtz-jkfit.gbs 
    atoms 2-3 entry K          line  1152 file /home/kchung25/anaconda3/envs/p415env/share/psi4/basis/def2-universal-jkfit.gbs 

  ==> Integral Setup <==

  DFHelper Memory: AOs need 0.143 GiB; user supplied 41.910 GiB. 
  Using in-core AOs.

  ==> MemDFJK: Density-Fitted J/K Matrices <==

    J tasked:                   Yes
    K tasked:                   Yes
    wK tasked:                   No
    OpenMP threads:               6
    Memory [MiB]:             42915
    Algorithm:                 Core
    Schwarz Cutoff:           1E-12
    Mask sparsity (%):       0.0000
    Fitting Condition:        1E-10

   => Auxiliary Basis Set <=

  Basis Set: (AUG-CC-PVTZ AUX)
    Blend: AUG-CC-PVTZ-JKFIT + DEF2-UNIVERSAL-JKFIT
    Number of shells: 146
    Number of basis functions: 568
    Number of Cartesian functions: 735
    Spherical Harmonics?: true
    Max angular momentum: 4

  Minimum eigenvalue in the overlap matrix is 1.9246978404E-05.
  Reciprocal condition number of the overlap matrix is 2.3571769351E-06.
    Using symmetric orthogonalization.

  ==> Pre-Iterations <==

  SCF Guess: Superposition of Atomic Densities via on-the-fly atomic UHF (no occupation information).

   -------------------------
    Irrep   Nso     Nmo    
   -------------------------
     A        177     177 
   -------------------------
    Total     177     177
   -------------------------

  ==> Iterations <==

                           Total Energy        Delta E     RMS |[F,P]|

   @DF-RHF iter SAD: -3169.48562543481921   -3.16949e+03   0.00000e+00 
   @DF-RHF iter   1: -3171.42600843083756   -1.94038e+00   5.96403e-03 ADIIS/DIIS
   @DF-RHF iter   2: -3171.63374195000415   -2.07734e-01   3.30713e-03 ADIIS/DIIS
   @DF-RHF iter   3: -3171.70289277493021   -6.91508e-02   6.42490e-05 DIIS
   @DF-RHF iter   4: -3171.70298441851492   -9.16436e-05   1.55088e-05 DIIS
   @DF-RHF iter   5: -3171.70299338917857   -8.97066e-06   5.52735e-06 DIIS
   @DF-RHF iter   6: -3171.70299493113816   -1.54196e-06   1.45114e-06 DIIS
   @DF-RHF iter   7: -3171.70299512239490   -1.91257e-07   3.12552e-07 DIIS
   @DF-RHF iter   8: -3171.70299512996780   -7.57291e-09   8.81993e-08 DIIS
   @DF-RHF iter   9: -3171.70299513091686   -9.49058e-10   1.18253e-08 DIIS
   @DF-RHF iter  10: -3171.70299513093732   -2.04636e-11   2.59344e-09 DIIS
  Energy and wave function converged.


  ==> Post-Iterations <==

    Orbital Energies [Eh]
    ---------------------

    Doubly Occupied:                                                      

       1A   -489.869742     2A   -133.588024     3A    -65.009633  
       4A    -58.364210     5A    -58.364068     6A    -58.364067  
       7A    -14.543798     8A    -11.573831     9A    -11.573825  
      10A    -11.573699    11A     -9.681747    12A     -7.289544  
      13A     -7.288810    14A     -7.288809    15A     -3.031375  
      16A     -3.031056    17A     -3.031055    18A     -3.030118  
      19A     -3.030115    20A     -1.800156    21A     -1.008375  
      22A     -1.008365    23A     -1.004155    24A     -0.834657  
      25A     -0.293111    26A     -0.285748    27A     -0.285726  

    Virtual:                                                              

      28A     -0.029611    29A     -0.001418    30A     -0.001367  
      31A     -0.000409    32A      0.007702    33A      0.011971  
      34A      0.012617    35A      0.014515    36A      0.014933  
      37A      0.015664    38A      0.017179    39A      0.018484  
      40A      0.021004    41A      0.022044    42A      0.023235  
      43A      0.026234    44A      0.028435    45A      0.029125  
      46A      0.030161    47A      0.034709    48A      0.035096  
      49A      0.037390    50A      0.046418    51A      0.046664  
      52A      0.052148    53A      0.052424    54A      0.058412  
      55A      0.060899    56A      0.062825    57A      0.064577  
      58A      0.066625    59A      0.069890    60A      0.076662  
      61A      0.082615    62A      0.084024    63A      0.086603  
      64A      0.091184    65A      0.093356    66A      0.096984  
      67A      0.106738    68A      0.122933    69A      0.123338  
      70A      0.127327    71A      0.129066    72A      0.133647  
      73A      0.134763    74A      0.138173    75A      0.138216  
      76A      0.146132    77A      0.153737    78A      0.154864  
      79A      0.159624    80A      0.168646    81A      0.171285  
      82A      0.175075    83A      0.181976    84A      0.185713  
      85A      0.192134    86A      0.193789    87A      0.205146  
      88A      0.208659    89A      0.209643    90A      0.215192  
      91A      0.215773    92A      0.229647    93A      0.233564  
      94A      0.235034    95A      0.250312    96A      0.271866  
      97A      0.281929    98A      0.292071    99A      0.308017  
     100A      0.319008   101A      0.320599   102A      0.323834  
     103A      0.353473   104A      0.371397   105A      0.372728  
     106A      0.378397   107A      0.379805   108A      0.384142  
     109A      0.386271   110A      0.396951   111A      0.400420  
     112A      0.413884   113A      0.416613   114A      0.438093  
     115A      0.440207   116A      0.453676   117A      0.460946  
     118A      0.483925   119A      0.491929   120A      0.495785  
     121A      0.500354   122A      0.521236   123A      0.527088  
     124A      0.537460   125A      0.538773   126A      0.544696  
     127A      0.564411   128A      0.585599   129A      0.599574  
     130A      0.718192   131A      0.720742   132A      0.775405  
     133A      0.839048   134A      0.936875   135A      0.963721  
     136A      0.978882   137A      0.992956   138A      1.009172  
     139A      1.032153   140A      1.045532   141A      1.122398  
     142A      1.126598   143A      1.137020   144A      1.147072  
     145A      1.156592   146A      1.165863   147A      1.225976  
     148A      1.871301   149A      1.916254   150A      1.976601  
     151A      2.031986   152A      2.040566   153A      2.124259  
     154A      2.167122   155A      2.251302   156A      2.345019  
     157A      2.413342   158A      2.426081   159A      2.455187  
     160A      2.460459   161A      2.487830   162A      2.498111  
     163A      2.507795   164A      2.522478   165A      2.534224  
     166A      2.539087   167A      2.597233   168A      2.646183  
     169A      2.686361   170A      2.699014   171A      2.805326  
     172A      4.268740   173A     10.162251   174A     30.330648  
     175A     30.427529   176A     30.695025   177A    197.596235  

    Final Occupation by Irrep:
              A 
    DOCC [    27 ]
    NA   [    27 ]
    NB   [    27 ]

  @DF-RHF Final Energy: -3171.70299513093732

   => Energetics <=

    Nuclear Repulsion Energy =             97.0683459057432430
    One-Electron Energy =               -4605.4470399910123888
    Two-Electron Energy =                1336.6756989543314376
    Total Energy =                      -3171.7029951309373246

Computation Completed


Properties will be evaluated at   0.000000,   0.000000,   0.000000 [a0]

Properties computed using the SCF density matrix


 Multipole Moments:

 ------------------------------------------------------------------------------------
     Multipole            Electronic (a.u.)      Nuclear  (a.u.)        Total (a.u.)
 ------------------------------------------------------------------------------------

 L = 1.  Multiply by 2.5417464519 to convert [e a0] to [Debye]
 Dipole X            :       -124.2327315          130.1660174            5.9332859
 Dipole Y            :          0.0012024            0.0000000            0.0012024
 Dipole Z            :          0.0000000            0.0000000            0.0000000
 Magnitude           :                                                    5.9332860

 ------------------------------------------------------------------------------------

*** tstop() called on moses-razer at Wed Jan 24 06:20:28 2024
Module time:
	user time   =      31.14 seconds =       0.52 minutes
	system time =       3.17 seconds =       0.05 minutes
	total time  =         20 seconds =       0.33 minutes
Total time:
	user time   =     184.33 seconds =       3.07 minutes
	system time =      13.04 seconds =       0.22 minutes
	total time  =        137 seconds =       2.28 minutes

*** tstart() called on moses-razer
*** at Wed Jan 24 06:20:28 2024


  //>>>>>>>>>>>>>>>>>>>>>>>>>>>>>>>>>>>//
  //               DFMP2               //
  //<<<<<<<<<<<<<<<<<<<<<<<<<<<<<<<<<<<//

   => Loading Basis Set <=

    Name: (AUG-CC-PVTZ AUX)
    Role: RIFIT
    Keyword: DF_BASIS_MP2
    atoms 1   entry BR         line  1248 file /home/kchung25/anaconda3/envs/p415env/share/psi4/basis/aug-cc-pvtz-ri.gbs 
    atoms 2-3 entry K          line  1282 file /home/kchung25/anaconda3/envs/p415env/share/psi4/basis/def2-qzvpp-ri.gbs 

	 --------------------------------------------------------
	                          DF-MP2                         
	      2nd-Order Density-Fitted Moller-Plesset Theory     
	              RMP2 Wavefunction,   6 Threads             
	                                                         
	        Rob Parrish, Justin Turney, Andy Simmonett,      
	           Ed Hohenstein, and C. David Sherrill          
	 --------------------------------------------------------

   => Auxiliary Basis Set <=

  Basis Set: (AUG-CC-PVTZ AUX)
    Blend: AUG-CC-PVTZ-RI + DEF2-QZVPP-RI
    Number of shells: 141
    Number of basis functions: 589
    Number of Cartesian functions: 785
    Spherical Harmonics?: true
    Max angular momentum: 5

	 --------------------------------------------------------
	                 NBF =   177, NAUX =   589
	 --------------------------------------------------------
	   CLASS    FOCC     OCC    AOCC    AVIR     VIR    FVIR
	   PAIRS       0      27      27     150     150       0
	 --------------------------------------------------------

	-----------------------------------------------------------
	 ==================> DF-MP2 Energies <==================== 
	-----------------------------------------------------------
	 Reference Energy          =   -3171.7029951309373246 [Eh]
	 Singles Energy            =      -0.0000000000000000 [Eh]
	 Same-Spin Energy          =      -0.1164198090981220 [Eh]
	 Opposite-Spin Energy      =      -0.2690079279391402 [Eh]
	 Correlation Energy        =      -0.3854277370372622 [Eh]
	 Total Energy              =   -3172.0884228679747139 [Eh]
	-----------------------------------------------------------
	 ================> DF-SCS-MP2 Energies <================== 
	-----------------------------------------------------------
	 SCS Same-Spin Scale       =       0.3333333333333333 [-]
	 SCS Opposite-Spin Scale   =       1.2000000000000000 [-]
	 SCS Same-Spin Energy      =      -0.0388066030327073 [Eh]
	 SCS Opposite-Spin Energy  =      -0.3228095135269682 [Eh]
	 SCS Correlation Energy    =      -0.3616161165596756 [Eh]
	 SCS Total Energy          =   -3172.0646112474969414 [Eh]
	-----------------------------------------------------------


*** tstop() called on moses-razer at Wed Jan 24 06:20:48 2024
Module time:
	user time   =      23.66 seconds =       0.39 minutes
	system time =       0.83 seconds =       0.01 minutes
	total time  =         20 seconds =       0.33 minutes
Total time:
	user time   =     207.99 seconds =       3.47 minutes
	system time =      13.87 seconds =       0.23 minutes
	total time  =        157 seconds =       2.62 minutes

    Psi4 stopped on: Wednesday, 24 January 2024 06:20AM
    Psi4 wall time for execution: 0:00:40.53


    -----------------------------------------------------------------------
          Psi4: An Open-Source Ab Initio Electronic Structure Package
                               Psi4 1.9 release

                         Git: Rev {} zzzzzzz 


    D. G. A. Smith, L. A. Burns, A. C. Simmonett, R. M. Parrish,
    M. C. Schieber, R. Galvelis, P. Kraus, H. Kruse, R. Di Remigio,
    A. Alenaizan, A. M. James, S. Lehtola, J. P. Misiewicz, M. Scheurer,
    R. A. Shaw, J. B. Schriber, Y. Xie, Z. L. Glick, D. A. Sirianni,
    J. S. O'Brien, J. M. Waldrop, A. Kumar, E. G. Hohenstein,
    B. P. Pritchard, B. R. Brooks, H. F. Schaefer III, A. Yu. Sokolov,
    K. Patkowski, A. E. DePrince III, U. Bozkaya, R. A. King,
    F. A. Evangelista, J. M. Turney, T. D. Crawford, C. D. Sherrill,
    J. Chem. Phys. 152(18) 184108 (2020). https://doi.org/10.1063/5.0006002

                            Additional Code Authors
    E. T. Seidl, C. L. Janssen, E. F. Valeev, M. L. Leininger,
    J. F. Gonthier, R. M. Richard, H. R. McAlexander, M. Saitow, X. Wang,
    P. Verma, M. H. Lechner, A. Jiang, S. Behnle, A. G. Heide,
    M. F. Herbst, and D. L. Poole

             Previous Authors, Complete List of Code Contributors,
                       and Citations for Specific Modules
    https://github.com/psi4/psi4/blob/master/codemeta.json
    https://github.com/psi4/psi4/graphs/contributors
    http://psicode.org/psi4manual/master/introduction.html#citing-psifour

    -----------------------------------------------------------------------


    Psi4 started on: Wednesday, 24 January 2024 06:18AM

    Process ID: 1196146
    Host:       moses-razer
    PSIDATADIR: /home/kchung25/anaconda3/envs/psi4_19/share/psi4
    Memory:     55.9 GiB
    Threads:    6
    
  ==> Input QCSchema <==

--------------------------------------------------------------------------
{'driver': 'energy',
 'extras': {'psiapi': True, 'wfn_qcvars_only': True},
 'id': None,
 'keywords': {'SCF_TYPE': 'DF', 'function_kwargs': {}},
 'model': {'basis': 'aug-cc-pvtz', 'method': 'mp2'},
 'molecule': {'atom_labels': ['', '', ''],
              'atomic_numbers': [35, 19, 19],
              'extras': {},
              'fix_com': True,
              'fix_orientation': True,
              'fix_symmetry': 'c1',
              'fragment_charges': [-1.0, 1.0, 0.0],
              'fragment_multiplicities': [1, 1, 1],
              'fragments': [[0], [1], [2]],
              'geometry': [0.0, 0.0, 0.0, 0.0, 5.269879246064245, 0.0, 6.850843019883518, 0.0, 0.0],
              'mass_numbers': [79, 39, 39],
              'masses': [78.9183376, 38.9637064864, 38.9637064864],
              'molecular_charge': 0.0,
              'molecular_multiplicity': 1,
              'name': 'dimer',
              'provenance': {'creator': 'QCElemental',
                             'routine': 'qcelemental.molparse.from_string',
                             'version': '0.27.1'},
              'real': [True, True, False],
              'schema_name': 'qcschema_molecule',
              'schema_version': 2,
              'symbols': ['Br', 'K', 'K'],
              'validated': True},
 'protocols': {'stdout': True},
 'provenance': {'creator': 'QCElemental', 'routine': 'qcelemental.models.results', 'version': '0.27.1'},
 'schema_name': 'qcschema_input',
 'schema_version': 1}
--------------------------------------------------------------------------

Scratch directory: /scratch/
   => Libint2 <=

    Primary   basis highest AM E, G, H:  5, 4, 3
    Auxiliary basis highest AM E, G, H:  6, 5, 4
    Onebody   basis highest AM E, G, H:  6, 5, 4
    Solid Harmonics ordering:            gaussian

*** tstart() called on moses-razer
*** at Wed Jan 24 06:20:48 2024

   => Loading Basis Set <=

    Name: AUG-CC-PVTZ
    Role: ORBITAL
    Keyword: BASIS
    atoms 1   entry BR         line  4564 file /home/kchung25/anaconda3/envs/p415env/share/psi4/basis/aug-cc-pvtz.gbs 
    atoms 2-3 entry K          line  1152 file /home/kchung25/anaconda3/envs/p415env/share/psi4/basis/aug-cc-pvtz.gbs 


         ---------------------------------------------------------
                                   SCF
               by Justin Turney, Rob Parrish, Andy Simmonett
                          and Daniel G. A. Smith
                              RHF Reference
                        6 Threads,  57220 MiB Core
         ---------------------------------------------------------

  ==> Geometry <==

    Molecular point group: c1
    Full point group: Cs

    Geometry (in Bohr), charge = 0, multiplicity = 1:

       Center              X                  Y                   Z               Mass       
    ------------   -----------------  -----------------  -----------------  -----------------
         BR           0.000000000000     0.000000000000     0.000000000000    78.918337600000
         K            0.000000000000     5.269879246064     0.000000000000    38.963706486400
      Gh(K)           6.850843019884     0.000000000000     0.000000000000    38.963706486400

  Running in c1 symmetry.

  Rotational constants: A =      0.05563  B =      0.03292  C =      0.02068 [cm^-1]
  Rotational constants: A =   1667.83600  B =    986.88520  C =    620.01338 [MHz]
  Nuclear repulsion =  126.188849677466209

  Charge       = 0
  Multiplicity = 1
  Electrons    = 54
  Nalpha       = 27
  Nbeta        = 27

  ==> Algorithm <==

  SCF Algorithm Type is DF.
  DIIS enabled.
  MOM disabled.
  Fractional occupation disabled.
  Guess Type is SAD.
  Energy threshold   = 1.00e-08
  Density threshold  = 1.00e-08
  Integral threshold = 1.00e-12

  ==> Primary Basis <==

  Basis Set: AUG-CC-PVTZ
    Blend: AUG-CC-PVTZ
    Number of shells: 57
    Number of basis functions: 177
    Number of Cartesian functions: 207
    Spherical Harmonics?: true
    Max angular momentum: 3

   => Loading Basis Set <=

    Name: (AUG-CC-PVTZ AUX)
    Role: JKFIT
    Keyword: DF_BASIS_SCF
    atoms 1   entry BR         line  1492 file /home/kchung25/anaconda3/envs/p415env/share/psi4/basis/aug-cc-pvtz-jkfit.gbs 
    atoms 2-3 entry K          line  1152 file /home/kchung25/anaconda3/envs/p415env/share/psi4/basis/def2-universal-jkfit.gbs 

  ==> Integral Setup <==

  DFHelper Memory: AOs need 0.143 GiB; user supplied 41.910 GiB. 
  Using in-core AOs.

  ==> MemDFJK: Density-Fitted J/K Matrices <==

    J tasked:                   Yes
    K tasked:                   Yes
    wK tasked:                   No
    OpenMP threads:               6
    Memory [MiB]:             42915
    Algorithm:                 Core
    Schwarz Cutoff:           1E-12
    Mask sparsity (%):       0.0000
    Fitting Condition:        1E-10

   => Auxiliary Basis Set <=

  Basis Set: (AUG-CC-PVTZ AUX)
    Blend: AUG-CC-PVTZ-JKFIT + DEF2-UNIVERSAL-JKFIT
    Number of shells: 146
    Number of basis functions: 568
    Number of Cartesian functions: 735
    Spherical Harmonics?: true
    Max angular momentum: 4

  Minimum eigenvalue in the overlap matrix is 1.9246978404E-05.
  Reciprocal condition number of the overlap matrix is 2.3571769351E-06.
    Using symmetric orthogonalization.

  ==> Pre-Iterations <==

  SCF Guess: Superposition of Atomic Densities via on-the-fly atomic UHF (no occupation information).

   -------------------------
    Irrep   Nso     Nmo    
   -------------------------
     A        177     177 
   -------------------------
    Total     177     177
[...]
	 Opposite-Spin Energy      =      -0.0639442271908808 [Eh]
	 Correlation Energy        =      -0.0914478447531377 [Eh]
	 Total Energy              =    -599.1089558632327225 [Eh]
	-----------------------------------------------------------
	 ================> DF-SCS-MP2 Energies <================== 
	-----------------------------------------------------------
	 SCS Same-Spin Scale       =       0.3333333333333333 [-]
	 SCS Opposite-Spin Scale   =       1.2000000000000000 [-]
	 SCS Same-Spin Energy      =      -0.0091678725207523 [Eh]
	 SCS Opposite-Spin Energy  =      -0.0767330726290570 [Eh]
	 SCS Correlation Energy    =      -0.0859009451498093 [Eh]
	 SCS Total Energy          =    -599.1034089636293629 [Eh]
	-----------------------------------------------------------


*** tstop() called on moses-razer at Wed Jan 24 06:22:08 2024
Module time:
	user time   =      23.18 seconds =       0.39 minutes
	system time =       0.87 seconds =       0.01 minutes
	total time  =         20 seconds =       0.33 minutes
Total time:
	user time   =     313.99 seconds =       5.23 minutes
	system time =      21.58 seconds =       0.36 minutes
	total time  =        237 seconds =       3.95 minutes

    Psi4 stopped on: Wednesday, 24 January 2024 06:22AM
    Psi4 wall time for execution: 0:00:39.47


    -----------------------------------------------------------------------
          Psi4: An Open-Source Ab Initio Electronic Structure Package
                               Psi4 1.9 release

                         Git: Rev {} zzzzzzz 


    D. G. A. Smith, L. A. Burns, A. C. Simmonett, R. M. Parrish,
    M. C. Schieber, R. Galvelis, P. Kraus, H. Kruse, R. Di Remigio,
    A. Alenaizan, A. M. James, S. Lehtola, J. P. Misiewicz, M. Scheurer,
    R. A. Shaw, J. B. Schriber, Y. Xie, Z. L. Glick, D. A. Sirianni,
    J. S. O'Brien, J. M. Waldrop, A. Kumar, E. G. Hohenstein,
    B. P. Pritchard, B. R. Brooks, H. F. Schaefer III, A. Yu. Sokolov,
    K. Patkowski, A. E. DePrince III, U. Bozkaya, R. A. King,
    F. A. Evangelista, J. M. Turney, T. D. Crawford, C. D. Sherrill,
    J. Chem. Phys. 152(18) 184108 (2020). https://doi.org/10.1063/5.0006002

                            Additional Code Authors
    E. T. Seidl, C. L. Janssen, E. F. Valeev, M. L. Leininger,
    J. F. Gonthier, R. M. Richard, H. R. McAlexander, M. Saitow, X. Wang,
    P. Verma, M. H. Lechner, A. Jiang, S. Behnle, A. G. Heide,
    M. F. Herbst, and D. L. Poole

             Previous Authors, Complete List of Code Contributors,
                       and Citations for Specific Modules
    https://github.com/psi4/psi4/blob/master/codemeta.json
    https://github.com/psi4/psi4/graphs/contributors
    http://psicode.org/psi4manual/master/introduction.html#citing-psifour

    -----------------------------------------------------------------------


    Psi4 started on: Wednesday, 24 January 2024 06:18AM

    Process ID: 1196146
    Host:       moses-razer
    PSIDATADIR: /home/kchung25/anaconda3/envs/psi4_19/share/psi4
    Memory:     55.9 GiB
    Threads:    6
    
  ==> Input QCSchema <==

--------------------------------------------------------------------------
{'driver': 'energy',
 'extras': {'psiapi': True, 'wfn_qcvars_only': True},
 'id': None,
 'keywords': {'SCF_TYPE': 'DF', 'function_kwargs': {}},
 'model': {'basis': 'aug-cc-pvtz', 'method': 'mp2'},
 'molecule': {'atom_labels': ['', '', ''],
              'atomic_numbers': [35, 19, 19],
              'extras': {},
              'fix_com': True,
              'fix_orientation': True,
              'fix_symmetry': 'c1',
              'fragment_charges': [-1.0, 1.0, 1.0],
              'fragment_multiplicities': [1, 1, 1],
              'fragments': [[0], [1], [2]],
              'geometry': [0.0, 0.0, 0.0, 0.0, 5.269879246064245, 0.0, 6.850843019883518, 0.0, 0.0],
              'mass_numbers': [79, 39, 39],
              'masses': [78.9183376, 38.9637064864, 38.9637064864],
              'molecular_charge': 1.0,
              'molecular_multiplicity': 1,
              'name': 'dimer',
              'provenance': {'creator': 'QCElemental',
                             'routine': 'qcelemental.molparse.from_string',
                             'version': '0.27.1'},
              'real': [True, True, True],
              'schema_name': 'qcschema_molecule',
              'schema_version': 2,
              'symbols': ['Br', 'K', 'K'],
              'validated': True},
 'protocols': {'stdout': True},
 'provenance': {'creator': 'QCElemental', 'routine': 'qcelemental.models.results', 'version': '0.27.1'},
 'schema_name': 'qcschema_input',
 'schema_version': 1}
--------------------------------------------------------------------------

Scratch directory: /scratch/
   => Libint2 <=

    Primary   basis highest AM E, G, H:  5, 4, 3
    Auxiliary basis highest AM E, G, H:  6, 5, 4
    Onebody   basis highest AM E, G, H:  6, 5, 4
    Solid Harmonics ordering:            gaussian

*** tstart() called on moses-razer
*** at Wed Jan 24 06:22:08 2024

   => Loading Basis Set <=

    Name: AUG-CC-PVTZ
    Role: ORBITAL
    Keyword: BASIS
    atoms 1   entry BR         line  4564 file /home/kchung25/anaconda3/envs/p415env/share/psi4/basis/aug-cc-pvtz.gbs 
    atoms 2-3 entry K          line  1152 file /home/kchung25/anaconda3/envs/p415env/share/psi4/basis/aug-cc-pvtz.gbs 


         ---------------------------------------------------------
                                   SCF
               by Justin Turney, Rob Parrish, Andy Simmonett
                          and Daniel G. A. Smith
                              RHF Reference
                        6 Threads,  57220 MiB Core
         ---------------------------------------------------------

  ==> Geometry <==

    Molecular point group: c1
    Full point group: Cs

    Geometry (in Bohr), charge = 1, multiplicity = 1:

       Center              X                  Y                   Z               Mass       
    ------------   -----------------  -----------------  -----------------  -----------------
         BR           0.000000000000     0.000000000000     0.000000000000    78.918337600000
         K            0.000000000000     5.269879246064     0.000000000000    38.963706486400
         K            6.850843019884     0.000000000000     0.000000000000    38.963706486400

  Running in c1 symmetry.

  Rotational constants: A =      0.05563  B =      0.03292  C =      0.02068 [cm^-1]
  Rotational constants: A =   1667.83600  B =    986.88520  C =    620.01338 [MHz]
  Nuclear repulsion =  265.023918194761222

  Charge       = 1
  Multiplicity = 1
  Electrons    = 72
  Nalpha       = 36
  Nbeta        = 36

  ==> Algorithm <==

  SCF Algorithm Type is DF.
  DIIS enabled.
  MOM disabled.
  Fractional occupation disabled.
  Guess Type is SAD.
  Energy threshold   = 1.00e-08
  Density threshold  = 1.00e-08
  Integral threshold = 1.00e-12

  ==> Primary Basis <==

  Basis Set: AUG-CC-PVTZ
    Blend: AUG-CC-PVTZ
    Number of shells: 57
    Number of basis functions: 177
    Number of Cartesian functions: 207
    Spherical Harmonics?: true
    Max angular momentum: 3

   => Loading Basis Set <=

    Name: (AUG-CC-PVTZ AUX)
    Role: JKFIT
    Keyword: DF_BASIS_SCF
    atoms 1   entry BR         line  1492 file /home/kchung25/anaconda3/envs/p415env/share/psi4/basis/aug-cc-pvtz-jkfit.gbs 
    atoms 2-3 entry K          line  1152 file /home/kchung25/anaconda3/envs/p415env/share/psi4/basis/def2-universal-jkfit.gbs 

  ==> Integral Setup <==

  DFHelper Memory: AOs need 0.143 GiB; user supplied 41.910 GiB. 
  Using in-core AOs.

  ==> MemDFJK: Density-Fitted J/K Matrices <==

    J tasked:                   Yes
    K tasked:                   Yes
    wK tasked:                   No
    OpenMP threads:               6
    Memory [MiB]:             42915
    Algorithm:                 Core
    Schwarz Cutoff:           1E-12
    Mask sparsity (%):       0.0000
    Fitting Condition:        1E-10

   => Auxiliary Basis Set <=

  Basis Set: (AUG-CC-PVTZ AUX)
    Blend: AUG-CC-PVTZ-JKFIT + DEF2-UNIVERSAL-JKFIT
    Number of shells: 146
    Number of basis functions: 568
    Number of Cartesian functions: 735
    Spherical Harmonics?: true
    Max angular momentum: 4

  Minimum eigenvalue in the overlap matrix is 1.9246978404E-05.
  Reciprocal condition number of the overlap matrix is 2.3571769351E-06.
    Using symmetric orthogonalization.

  ==> Pre-Iterations <==

  SCF Guess: Superposition of Atomic Densities via on-the-fly atomic UHF (no occupation information).

   -------------------------
    Irrep   Nso     Nmo    
   -------------------------
     A        177     177 
   -------------------------
    Total     177     177
   -------------------------

  ==> Iterations <==

                           Total Energy        Delta E     RMS |[F,P]|

   @DF-RHF iter SAD: -3768.60952484205427   -3.76861e+03   0.00000e+00 
   @DF-RHF iter   1: -3770.49815614002500   -1.88863e+00   5.97553e-03 ADIIS/DIIS
   @DF-RHF iter   2: -3770.70782069086499   -2.09665e-01   3.22574e-03 ADIIS/DIIS
   @DF-RHF iter   3: -3770.77028250142575   -6.24618e-02   6.29079e-05 DIIS
   @DF-RHF iter   4: -3770.77036926344545   -8.67620e-05   1.73101e-05 DIIS
   @DF-RHF iter   5: -3770.77037817265864   -8.90921e-06   5.43867e-06 DIIS
   @DF-RHF iter   6: -3770.77037943616915   -1.26351e-06   1.41267e-06 DIIS
   @DF-RHF iter   7: -3770.77037959566769   -1.59499e-07   2.81023e-07 DIIS
   @DF-RHF iter   8: -3770.77037960240796   -6.74027e-09   6.11690e-08 DIIS
   @DF-RHF iter   9: -3770.77037960267535   -2.67391e-10   1.36950e-08 DIIS
   @DF-RHF iter  10: -3770.77037960268581   -1.04592e-11   4.30595e-09 DIIS
  Energy and wave function converged.


  ==> Post-Iterations <==

    Orbital Energies [Eh]
    ---------------------

    Doubly Occupied:                                                      

       1A   -490.038712     2A   -133.707914     3A   -133.650321  
       4A    -65.179324     5A    -58.533851     6A    -58.533725  
       7A    -58.533671     8A    -14.663711     9A    -14.608093  
      10A    -11.693774    11A    -11.693740    12A    -11.693641  
      13A    -11.637852    14A    -11.637794    15A    -11.637784  
      16A     -9.852148    17A     -7.459920    18A     -7.459485  
      19A     -7.459245    20A     -3.201700    21A     -3.201430  
      22A     -3.201382    23A     -3.200626    24A     -3.200581  
      25A     -1.919960    26A     -1.870769    27A     -1.128264  
      28A     -1.127483    29A     -1.124732    30A     -1.087398  
      31A     -1.080198    32A     -1.079147    33A     -1.004010  
      34A     -0.470176    35A     -0.467373    36A     -0.460102  

    Virtual:                                                              

      37A     -0.128017    38A     -0.099348    39A     -0.083616  
      40A     -0.077055    41A     -0.066329    42A     -0.061237  
      43A     -0.056388    44A     -0.054173    45A     -0.046722  
      46A     -0.044546    47A     -0.042683    48A     -0.042445  
      49A     -0.037709    50A     -0.036046    51A     -0.035468  
      52A     -0.034542    53A     -0.031892    54A     -0.030330  
      55A     -0.030303    56A     -0.029381    57A     -0.028998  
      58A     -0.027145    59A     -0.023216    60A     -0.022841  
      61A     -0.020783    62A     -0.017965    63A     -0.017231  
      64A     -0.016841    65A     -0.016193    66A     -0.013554  
      67A     -0.008203    68A     -0.006638    69A     -0.006020  
      70A     -0.004709    71A     -0.001792    72A     -0.001060  
      73A     -0.000265    74A      0.004218    75A      0.010030  
      76A      0.015870    77A      0.017720    78A      0.021867  
      79A      0.029087    80A      0.029166    81A      0.031095  
      82A      0.032823    83A      0.041644    84A      0.042874  
      85A      0.043725    86A      0.044922    87A      0.051235  
      88A      0.053907    89A      0.055693    90A      0.055763  
      91A      0.060765    92A      0.062760    93A      0.071937  
      94A      0.074824    95A      0.078800    96A      0.081575  
      97A      0.085014    98A      0.086482    99A      0.091811  
     100A      0.096476   101A      0.103784   102A      0.110667  
     103A      0.120070   104A      0.128009   105A      0.132207  
     106A      0.133042   107A      0.133798   108A      0.151773  
     109A      0.159771   110A      0.170864   111A      0.177786  
     112A      0.192091   113A      0.236098   114A      0.242483  
     115A      0.247204   116A      0.256496   117A      0.260719  
     118A      0.262142   119A      0.265545   120A      0.269559  
     121A      0.271384   122A      0.278097   123A      0.284413  
     124A      0.290059   125A      0.297245   126A      0.300166  
     127A      0.308772   128A      0.311091   129A      0.314324  
     130A      0.321971   131A      0.336024   132A      0.340679  
     133A      0.344888   134A      0.354306   135A      0.362325  
     136A      0.366218   137A      0.380167   138A      0.382011  
     139A      0.388080   140A      0.397267   141A      0.405673  
     142A      0.443753   143A      0.454543   144A      0.568881  
     145A      0.619306   146A      0.689255   147A      0.765122  
     148A      0.798798   149A      0.810428   150A      0.827127  
     151A      0.845776   152A      0.919469   153A      0.950691  
     154A      0.958563   155A      0.966531   156A      0.980298  
     157A      0.984138   158A      1.013571   159A      1.036559  
     160A      1.083247   161A      1.146374   162A      2.174928  
     163A      2.252233   164A      2.276303   165A      2.281711  
     166A      2.287727   167A      2.292825   168A      2.307477  
     169A      2.311974   170A      2.320386   171A      2.351492  
     172A      2.363546   173A      2.366451   174A      2.407358  
     175A      2.421265   176A      2.457537   177A      4.028445  

    Final Occupation by Irrep:
              A 
    DOCC [    36 ]
    NA   [    36 ]
    NB   [    36 ]

  @DF-RHF Final Energy: -3770.77037960268581

   => Energetics <=

    Nuclear Repulsion Energy =            265.0239181947612224
    One-Electron Energy =               -5754.5885265389797496
    Two-Electron Energy =                1718.7942287415330611
    Total Energy =                      -3770.7703796026858072

Computation Completed


Properties will be evaluated at   0.000000,   0.000000,   0.000000 [a0]

Properties computed using the SCF density matrix


 Multipole Moments:

 ------------------------------------------------------------------------------------
     Multipole            Electronic (a.u.)      Nuclear  (a.u.)        Total (a.u.)
 ------------------------------------------------------------------------------------

 L = 1.  Multiply by 2.5417464519 to convert [e a0] to [Debye]
 Dipole X            :       -124.0902434          130.1660174            6.0757739
 Dipole Y            :        -95.7962121          100.1277057            4.3314935
 Dipole Z            :         -0.0000000            0.0000000           -0.0000000
 Magnitude           :                                                    7.4616932

 ------------------------------------------------------------------------------------

*** tstop() called on moses-razer at Wed Jan 24 06:22:29 2024
Module time:
	user time   =      31.36 seconds =       0.52 minutes
	system time =       3.22 seconds =       0.05 minutes
	total time  =         21 seconds =       0.35 minutes
Total time:
	user time   =     345.58 seconds =       5.76 minutes
	system time =      24.80 seconds =       0.41 minutes
	total time  =        258 seconds =       4.30 minutes

*** tstart() called on moses-razer
*** at Wed Jan 24 06:22:29 2024


  //>>>>>>>>>>>>>>>>>>>>>>>>>>>>>>>>>>>//
  //               DFMP2               //
  //<<<<<<<<<<<<<<<<<<<<<<<<<<<<<<<<<<<//

   => Loading Basis Set <=

    Name: (AUG-CC-PVTZ AUX)
    Role: RIFIT
    Keyword: DF_BASIS_MP2
    atoms 1   entry BR         line  1248 file /home/kchung25/anaconda3/envs/p415env/share/psi4/basis/aug-cc-pvtz-ri.gbs 
    atoms 2-3 entry K          line  1282 file /home/kchung25/anaconda3/envs/p415env/share/psi4/basis/def2-qzvpp-ri.gbs 

	 --------------------------------------------------------
	                          DF-MP2                         
	      2nd-Order Density-Fitted Moller-Plesset Theory     
	              RMP2 Wavefunction,   6 Threads             
	                                                         
	        Rob Parrish, Justin Turney, Andy Simmonett,      
	           Ed Hohenstein, and C. David Sherrill          
	 --------------------------------------------------------

   => Auxiliary Basis Set <=

  Basis Set: (AUG-CC-PVTZ AUX)
    Blend: AUG-CC-PVTZ-RI + DEF2-QZVPP-RI
    Number of shells: 141
    Number of basis functions: 589
    Number of Cartesian functions: 785
    Spherical Harmonics?: true
    Max angular momentum: 5

	 --------------------------------------------------------
	                 NBF =   177, NAUX =   589
	 --------------------------------------------------------
	   CLASS    FOCC     OCC    AOCC    AVIR     VIR    FVIR
	   PAIRS       0      36      36     141     141       0
	 --------------------------------------------------------

	-----------------------------------------------------------
	 ==================> DF-MP2 Energies <==================== 
	-----------------------------------------------------------
	 Reference Energy          =   -3770.7703796026858072 [Eh]
	 Singles Energy            =      -0.0000000000000000 [Eh]
	 Same-Spin Energy          =      -0.1483205512504941 [Eh]
	 Opposite-Spin Energy      =      -0.3398897456449800 [Eh]
	 Correlation Energy        =      -0.4882102968954741 [Eh]
	 Total Energy              =   -3771.2585898995812386 [Eh]
	-----------------------------------------------------------
	 ================> DF-SCS-MP2 Energies <================== 
	-----------------------------------------------------------
	 SCS Same-Spin Scale       =       0.3333333333333333 [-]
	 SCS Opposite-Spin Scale   =       1.2000000000000000 [-]
	 SCS Same-Spin Energy      =      -0.0494401837501647 [Eh]
	 SCS Opposite-Spin Energy  =      -0.4078676947739759 [Eh]
	 SCS Correlation Energy    =      -0.4573078785241407 [Eh]
	 SCS Total Energy          =   -3771.2276874812100687 [Eh]
	-----------------------------------------------------------


*** tstop() called on moses-razer at Wed Jan 24 06:22:49 2024
Module time:
	user time   =      23.90 seconds =       0.40 minutes
	system time =       0.82 seconds =       0.01 minutes
	total time  =         20 seconds =       0.33 minutes
Total time:
	user time   =     369.49 seconds =       6.16 minutes
	system time =      25.62 seconds =       0.43 minutes
	total time  =        278 seconds =       4.63 minutes

    Psi4 stopped on: Wednesday, 24 January 2024 06:22AM
    Psi4 wall time for execution: 0:00:40.60


  //>>>>>>>>>>>>>>>>>>>>>>>>>>>>>>>>>>>//
  //          ManyBody Results         //
  //<<<<<<<<<<<<<<<<<<<<<<<<<<<<<<<<<<<//


   ==> N-Body: Counterpoise Corrected (CP) energies <==

        n-Body     Total Energy            Interaction Energy                          N-body Contribution to Interaction Energy
                   [Eh]                    [Eh]                  [kcal/mol]            [Eh]                  [kcal/mol]
             1  N/A                         0.000000000000        0.000000000000        0.000000000000        0.000000000000
             2  N/A                        -0.213800639560     -134.161926823502       -0.213800639560     -134.161926823502
  FULL/RTN   3  N/A                        -0.208962742035     -131.126100293243        0.004837897525        3.035826530259


    Psi4 stopped on: Wednesday, 24 January 2024 06:22AM
    Psi4 wall time for execution: 0:04:39.79

*** Psi4 exiting successfully. Buy a developer a beer!
