
    -----------------------------------------------------------------------
          Psi4: An Open-Source Ab Initio Electronic Structure Package
                               Psi4 1.9 release

                         Git: Rev {} zzzzzzz 


    D. G. A. Smith, L. A. Burns, A. C. Simmonett, R. M. Parrish,
    M. C. Schieber, R. Galvelis, P. Kraus, H. Kruse, R. Di Remigio,
    A. Alenaizan, A. M. James, S. Lehtola, J. P. Misiewicz, M. Scheurer,
    R. A. Shaw, J. B. Schriber, Y. Xie, Z. L. Glick, D. A. Sirianni,
    J. S. O'Brien, J. M. Waldrop, A. Kumar, E. G. Hohenstein,
    B. P. Pritchard, B. R. Brooks, H. F. Schaefer III, A. Yu. Sokolov,
    K. Patkowski, A. E. DePrince III, U. Bozkaya, R. A. King,
    F. A. Evangelista, J. M. Turney, T. D. Crawford, C. D. Sherrill,
    J. Chem. Phys. 152(18) 184108 (2020). https://doi.org/10.1063/5.0006002

                            Additional Code Authors
    E. T. Seidl, C. L. Janssen, E. F. Valeev, M. L. Leininger,
    J. F. Gonthier, R. M. Richard, H. R. McAlexander, M. Saitow, X. Wang,
    P. Verma, M. H. Lechner, A. Jiang, S. Behnle, A. G. Heide,
    M. F. Herbst, and D. L. Poole

             Previous Authors, Complete List of Code Contributors,
                       and Citations for Specific Modules
    https://github.com/psi4/psi4/blob/master/codemeta.json
    https://github.com/psi4/psi4/graphs/contributors
    http://psicode.org/psi4manual/master/introduction.html#citing-psifour

    -----------------------------------------------------------------------


    Psi4 started on: Wednesday, 24 January 2024 02:47PM

    Process ID: 1215412
    Host:       moses-razer
    PSIDATADIR: /home/kchung25/anaconda3/envs/psi4_19/share/psi4
    Memory:     500.0 MiB
    Threads:    6
    
  ==> Input File <==

--------------------------------------------------------------------------
MEMORY 60 GB

molecule dimer {
-1 1
Gh(K)      0.000000     0.000000     0.000000
Br         0.000000     2.788700     0.000000
Gh(Br)     3.625310     0.000000     0.000000

units ang
no_reorient
no_com
symmetry c1
}

set {
basis        aug-cc-pVTZ
scf_type     df
}

energy("mp2")
--------------------------------------------------------------------------

  Memory set to  55.879 GiB by Python driver.

Scratch directory: /scratch/
   => Libint2 <=

    Primary   basis highest AM E, G, H:  5, 4, 3
    Auxiliary basis highest AM E, G, H:  6, 5, 4
    Onebody   basis highest AM E, G, H:  6, 5, 4
    Solid Harmonics ordering:            gaussian

*** tstart() called on moses-razer
*** at Wed Jan 24 14:47:57 2024

   => Loading Basis Set <=

    Name: AUG-CC-PVTZ
    Role: ORBITAL
    Keyword: BASIS
    atoms 1   entry K          line  1152 file /home/kchung25/anaconda3/envs/p415env/share/psi4/basis/aug-cc-pvtz.gbs 
    atoms 2-3 entry BR         line  4564 file /home/kchung25/anaconda3/envs/p415env/share/psi4/basis/aug-cc-pvtz.gbs 


         ---------------------------------------------------------
                                   SCF
               by Justin Turney, Rob Parrish, Andy Simmonett
                          and Daniel G. A. Smith
                              RHF Reference
                        6 Threads,  57220 MiB Core
         ---------------------------------------------------------

  ==> Geometry <==

    Molecular point group: c1
    Full point group: Cs

    Geometry (in Angstrom), charge = -1, multiplicity = 1:

       Center              X                  Y                   Z               Mass       
    ------------   -----------------  -----------------  -----------------  -----------------
      Gh(K)           0.000000000000     0.000000000000     0.000000000000    38.963706486400
         BR           0.000000000000     2.788700000000     0.000000000000    78.918337600000
      Gh(BR)          3.625310000000     0.000000000000     0.000000000000    78.918337600000

  Running in c1 symmetry.

  Rotational constants: A =      0.02747  B =      0.01625  C =      0.01021 [cm^-1]
  Rotational constants: A =    823.44705  B =    487.24677  C =    306.11414 [MHz]
  Nuclear repulsion =    0.000000000000000

  Charge       = -1
  Multiplicity = 1
  Electrons    = 36
  Nalpha       = 18
  Nbeta        = 18

  ==> Algorithm <==

  SCF Algorithm Type is DF.
  DIIS enabled.
  MOM disabled.
  Fractional occupation disabled.
  Guess Type is SAD.
  Energy threshold   = 1.00e-08
  Density threshold  = 1.00e-08
  Integral threshold = 1.00e-12

  ==> Primary Basis <==

  Basis Set: AUG-CC-PVTZ
    Blend: AUG-CC-PVTZ
    Number of shells: 57
    Number of basis functions: 177
    Number of Cartesian functions: 207
    Spherical Harmonics?: true
    Max angular momentum: 3

   => Loading Basis Set <=

    Name: (AUG-CC-PVTZ AUX)
    Role: JKFIT
    Keyword: DF_BASIS_SCF
    atoms 1   entry K          line  1152 file /home/kchung25/anaconda3/envs/p415env/share/psi4/basis/def2-universal-jkfit.gbs 
    atoms 2-3 entry BR         line  1492 file /home/kchung25/anaconda3/envs/p415env/share/psi4/basis/aug-cc-pvtz-jkfit.gbs 

  ==> Integral Setup <==

  DFHelper Memory: AOs need 0.163 GiB; user supplied 41.910 GiB. 
  Using in-core AOs.

  ==> MemDFJK: Density-Fitted J/K Matrices <==

    J tasked:                   Yes
    K tasked:                   Yes
    wK tasked:                   No
    OpenMP threads:               6
    Memory [MiB]:             42915
    Algorithm:                 Core
    Schwarz Cutoff:           1E-12
    Mask sparsity (%):       0.9640
    Fitting Condition:        1E-10

   => Auxiliary Basis Set <=

  Basis Set: (AUG-CC-PVTZ AUX)
    Blend: AUG-CC-PVTZ-JKFIT + DEF2-UNIVERSAL-JKFIT
    Number of shells: 160
    Number of basis functions: 656
    Number of Cartesian functions: 861
    Spherical Harmonics?: true
    Max angular momentum: 4

  Minimum eigenvalue in the overlap matrix is 3.4378293825E-04.
  Reciprocal condition number of the overlap matrix is 5.8067564722E-05.
    Using symmetric orthogonalization.

  ==> Pre-Iterations <==

  SCF Guess: Superposition of Atomic Densities via on-the-fly atomic UHF (no occupation information).

   -------------------------
    Irrep   Nso     Nmo    
   -------------------------
     A        177     177 
   -------------------------
    Total     177     177
   -------------------------

  ==> Iterations <==

                           Total Energy        Delta E     RMS |[F,P]|

   @DF-RHF iter SAD: -2570.41423536312413   -2.57041e+03   0.00000e+00 
   @DF-RHF iter   1: -2572.25498246263760   -1.84075e+00   5.96511e-03 DIIS/ADIIS
   @DF-RHF iter   2: -2572.46386042830363   -2.08878e-01   3.31735e-03 DIIS/ADIIS
   @DF-RHF iter   3: -2572.53363756823546   -6.97771e-02   5.13056e-05 DIIS
   @DF-RHF iter   4: -2572.53367931899629   -4.17508e-05   6.68589e-06 DIIS
   @DF-RHF iter   5: -2572.53368153592965   -2.21693e-06   1.89348e-06 DIIS
   @DF-RHF iter   6: -2572.53368169431224   -1.58383e-07   3.89106e-07 DIIS
   @DF-RHF iter   7: -2572.53368171468810   -2.03759e-08   2.14102e-08 DIIS
   @DF-RHF iter   8: -2572.53368171472584   -3.77440e-11   3.08933e-09 DIIS
  Energy and wave function converged.


  ==> Post-Iterations <==

    Orbital Energies [Eh]
    ---------------------

    Doubly Occupied:                                                      

       1A   -489.720801     2A    -64.860758     3A    -58.215247  
       4A    -58.215246     5A    -58.215244     6A     -9.532946  
       7A     -7.140291     8A     -7.140290     9A     -7.140283  
      10A     -2.881968    11A     -2.881967    12A     -2.881964  
      13A     -2.881962    14A     -2.881960    15A     -0.685999  
      16A     -0.139341    17A     -0.139339    18A     -0.139339  

    Virtual:                                                              

      19A      0.058591    20A      0.060252    21A      0.060502  
      22A      0.072632    23A      0.074077    24A      0.075994  
      25A      0.077308    26A      0.078288    27A      0.085113  
      28A      0.112927    29A      0.113109    30A      0.114339  
      31A      0.136523    32A      0.147547    33A      0.148893  
      34A      0.150539    35A      0.152316    36A      0.158222  
      37A      0.182510    38A      0.201539    39A      0.202094  
      40A      0.214259    41A      0.218034    42A      0.218544  
      43A      0.226510    44A      0.249358    45A      0.250295  
      46A      0.251309    47A      0.254590    48A      0.263115  
      49A      0.271100    50A      0.273216    51A      0.279456  
      52A      0.294657    53A      0.295478    54A      0.300650  
      55A      0.365780    56A      0.376789    57A      0.381645  
      58A      0.386769    59A      0.390024    60A      0.415896  
      61A      0.417725    62A      0.419455    63A      0.448768  
      64A      0.453777    65A      0.462303    66A      0.480002  
      67A      0.480751    68A      0.500120    69A      0.515962  
      70A      0.537539    71A      0.541706    72A      0.558278  
      73A      0.559843    74A      0.592961    75A      0.612918  
      76A      0.614397    77A      0.619719    78A      0.628482  
      79A      0.628896    80A      0.632285    81A      0.652595  
      82A      0.668210    83A      0.684259    84A      0.695792  
      85A      0.838396    86A      0.846141    87A      0.854518  
      88A      0.891195    89A      1.051567    90A      1.067980  
      91A      1.074368    92A      1.106572    93A      1.112302  
      94A      1.131574    95A      1.135757    96A      1.150831  
      97A      1.169504    98A      1.173589    99A      1.178338  
     100A      1.195762   101A      1.207670   102A      1.215562  
     103A      1.217425   104A      1.227718   105A      1.241066  
     106A      1.245146   107A      1.257082   108A      1.257384  
     109A      1.264999   110A      1.270047   111A      1.290207  
     112A      1.297941   113A      1.302677   114A      1.337108  
     115A      1.346804   116A      1.385564   117A      1.431157  
     118A      1.878949   119A      2.023093   120A      2.109112  
     121A      2.111809   122A      2.177616   123A      2.271667  
     124A      2.291401   125A      2.342272   126A      2.476326  
     127A      2.488566   128A      2.529100   129A      2.591454  
     130A      2.595576   131A      2.596533   132A      2.606731  
     133A      2.638680   134A      2.640161   135A      2.655629  
     136A      2.665317   137A      2.675839   138A      2.754635  
     139A      2.822833   140A      2.832210   141A      2.888430  
     142A      3.002153   143A      3.011140   144A      3.096630  
     145A      3.163372   146A      3.241171   147A      3.245365  
     148A      3.258365   149A      3.275252   150A      3.297079  
     151A      3.315850   152A      3.367379   153A      3.423458  
     154A      3.431146   155A      3.470905   156A      3.485989  
     157A      3.523107   158A      4.371964   159A      9.563561  
     160A     10.205832   161A     13.594717   162A     13.602677  
     163A     13.731767   164A     26.267188   165A     26.273172  
     166A     26.310481   167A     26.318696   168A     26.337071  
     169A     30.421222   170A     30.587889   171A     30.712176  
     172A     45.527077   173A    138.557733   174A    138.569739  
     175A    138.772522   176A    197.586444   177A    708.558844  

    Final Occupation by Irrep:
              A 
    DOCC [    18 ]
    NA   [    18 ]
    NB   [    18 ]

  @DF-RHF Final Energy: -2572.53368171472584

   => Energetics <=

    Nuclear Repulsion Energy =              0.0000000000000000
    One-Electron Energy =               -3593.6774737403761719
    Two-Electron Energy =                1021.1437920256499865
    Total Energy =                      -2572.5336817147262991

Computation Completed


Properties will be evaluated at   0.000000,   0.000000,   0.000000 [a0]

Properties computed using the SCF density matrix


 Multipole Moments:

 ------------------------------------------------------------------------------------
     Multipole            Electronic (a.u.)      Nuclear  (a.u.)        Total (a.u.)
 ------------------------------------------------------------------------------------

 L = 1.  Multiply by 2.5417464519 to convert [e a0] to [Debye]
 Dipole X            :          0.0000609            0.0000000            0.0000609
 Dipole Y            :       -189.7164493          184.4457736           -5.2706757
 Dipole Z            :          0.0000000            0.0000000            0.0000000
 Magnitude           :                                                    5.2706757

 ------------------------------------------------------------------------------------

*** tstop() called on moses-razer at Wed Jan 24 14:48:11 2024
Module time:
	user time   =      22.58 seconds =       0.38 minutes
	system time =       2.11 seconds =       0.04 minutes
	total time  =         14 seconds =       0.23 minutes
Total time:
	user time   =      22.58 seconds =       0.38 minutes
	system time =       2.11 seconds =       0.04 minutes
	total time  =         14 seconds =       0.23 minutes

*** tstart() called on moses-razer
*** at Wed Jan 24 14:48:11 2024


  //>>>>>>>>>>>>>>>>>>>>>>>>>>>>>>>>>>>//
  //               DFMP2               //
  //<<<<<<<<<<<<<<<<<<<<<<<<<<<<<<<<<<<//

   => Loading Basis Set <=

    Name: (AUG-CC-PVTZ AUX)
    Role: RIFIT
    Keyword: DF_BASIS_MP2
    atoms 1   entry K          line  1282 file /home/kchung25/anaconda3/envs/p415env/share/psi4/basis/def2-qzvpp-ri.gbs 
    atoms 2-3 entry BR         line  1248 file /home/kchung25/anaconda3/envs/p415env/share/psi4/basis/aug-cc-pvtz-ri.gbs 

	 --------------------------------------------------------
	                          DF-MP2                         
	      2nd-Order Density-Fitted Moller-Plesset Theory     
	              RMP2 Wavefunction,   6 Threads             
	                                                         
	        Rob Parrish, Justin Turney, Andy Simmonett,      
	           Ed Hohenstein, and C. David Sherrill          
	 --------------------------------------------------------

   => Auxiliary Basis Set <=

  Basis Set: (AUG-CC-PVTZ AUX)
    Blend: AUG-CC-PVTZ-RI + DEF2-QZVPP-RI
    Number of shells: 135
    Number of basis functions: 581
    Number of Cartesian functions: 784
    Spherical Harmonics?: true
    Max angular momentum: 5

	 --------------------------------------------------------
	                 NBF =   177, NAUX =   581
	 --------------------------------------------------------
	   CLASS    FOCC     OCC    AOCC    AVIR     VIR    FVIR
	   PAIRS       0      18      18     159     159       0
	 --------------------------------------------------------

	-----------------------------------------------------------
	 ==================> DF-MP2 Energies <==================== 
	-----------------------------------------------------------
	 Reference Energy          =   -2572.5336817147258444 [Eh]
	 Singles Energy            =      -0.0000000000000000 [Eh]
	 Same-Spin Energy          =      -0.0876458181048837 [Eh]
	 Opposite-Spin Energy      =      -0.2031026464769709 [Eh]
	 Correlation Energy        =      -0.2907484645818546 [Eh]
	 Total Energy              =   -2572.8244301793079103 [Eh]
	-----------------------------------------------------------
	 ================> DF-SCS-MP2 Energies <================== 
	-----------------------------------------------------------
	 SCS Same-Spin Scale       =       0.3333333333333333 [-]
	 SCS Opposite-Spin Scale   =       1.2000000000000000 [-]
	 SCS Same-Spin Energy      =      -0.0292152727016279 [Eh]
	 SCS Opposite-Spin Energy  =      -0.2437231757723651 [Eh]
	 SCS Correlation Energy    =      -0.2729384484739930 [Eh]
	 SCS Total Energy          =   -2572.8066201632000229 [Eh]
	-----------------------------------------------------------


*** tstop() called on moses-razer at Wed Jan 24 14:48:25 2024
Module time:
	user time   =      17.67 seconds =       0.29 minutes
	system time =       0.84 seconds =       0.01 minutes
	total time  =         14 seconds =       0.23 minutes
Total time:
	user time   =      40.26 seconds =       0.67 minutes
	system time =       2.95 seconds =       0.05 minutes
	total time  =         28 seconds =       0.47 minutes

    Psi4 stopped on: Wednesday, 24 January 2024 02:48PM
    Psi4 wall time for execution: 0:00:28.22

*** Psi4 exiting successfully. Buy a developer a beer!
