
    -----------------------------------------------------------------------
          Psi4: An Open-Source Ab Initio Electronic Structure Package
                               Psi4 1.9 release

                         Git: Rev {} zzzzzzz 


    D. G. A. Smith, L. A. Burns, A. C. Simmonett, R. M. Parrish,
    M. C. Schieber, R. Galvelis, P. Kraus, H. Kruse, R. Di Remigio,
    A. Alenaizan, A. M. James, S. Lehtola, J. P. Misiewicz, M. Scheurer,
    R. A. Shaw, J. B. Schriber, Y. Xie, Z. L. Glick, D. A. Sirianni,
    J. S. O'Brien, J. M. Waldrop, A. Kumar, E. G. Hohenstein,
    B. P. Pritchard, B. R. Brooks, H. F. Schaefer III, A. Yu. Sokolov,
    K. Patkowski, A. E. DePrince III, U. Bozkaya, R. A. King,
    F. A. Evangelista, J. M. Turney, T. D. Crawford, C. D. Sherrill,
    J. Chem. Phys. 152(18) 184108 (2020). https://doi.org/10.1063/5.0006002

                            Additional Code Authors
    E. T. Seidl, C. L. Janssen, E. F. Valeev, M. L. Leininger,
    J. F. Gonthier, R. M. Richard, H. R. McAlexander, M. Saitow, X. Wang,
    P. Verma, M. H. Lechner, A. Jiang, S. Behnle, A. G. Heide,
    M. F. Herbst, and D. L. Poole

             Previous Authors, Complete List of Code Contributors,
                       and Citations for Specific Modules
    https://github.com/psi4/psi4/blob/master/codemeta.json
    https://github.com/psi4/psi4/graphs/contributors
    http://psicode.org/psi4manual/master/introduction.html#citing-psifour

    -----------------------------------------------------------------------


    Psi4 started on: Wednesday, 03 January 2024 10:54PM

    Process ID: 447464
    Host:       moses-razer
    PSIDATADIR: /home/kchung25/anaconda3/envs/psi4_19/share/psi4
    Memory:     500.0 MiB
    Threads:    6
    
  ==> Input File <==

--------------------------------------------------------------------------
MEMORY 60 GB

molecule dimer {
1 1
Na     0.000000     0.000000     0.000000
--
1 1
K      4.800000     0.000000     0.000000

units ang
no_reorient
no_com
symmetry c1
}

set {
basis        aug-cc-pVTZ
scf_type     df
}

energy("mp2", bsse_type="cp")
--------------------------------------------------------------------------

  Memory set to  55.879 GiB by Python driver.

Scratch directory: /scratch/

  //>>>>>>>>>>>>>>>>>>>>>>>>>>>>>>>>>>>>>//
  // ManyBody Setup: N-Body Levels [1, 2]//
  //<<<<<<<<<<<<<<<<<<<<<<<<<<<<<<<<<<<<<//

        Number of 1-body computations:     2
        Number of 2-body computations:     1

    -----------------------------------------------------------------------
          Psi4: An Open-Source Ab Initio Electronic Structure Package
                               Psi4 1.9 release

                         Git: Rev {} zzzzzzz 


    D. G. A. Smith, L. A. Burns, A. C. Simmonett, R. M. Parrish,
    M. C. Schieber, R. Galvelis, P. Kraus, H. Kruse, R. Di Remigio,
    A. Alenaizan, A. M. James, S. Lehtola, J. P. Misiewicz, M. Scheurer,
    R. A. Shaw, J. B. Schriber, Y. Xie, Z. L. Glick, D. A. Sirianni,
    J. S. O'Brien, J. M. Waldrop, A. Kumar, E. G. Hohenstein,
    B. P. Pritchard, B. R. Brooks, H. F. Schaefer III, A. Yu. Sokolov,
    K. Patkowski, A. E. DePrince III, U. Bozkaya, R. A. King,
    F. A. Evangelista, J. M. Turney, T. D. Crawford, C. D. Sherrill,
    J. Chem. Phys. 152(18) 184108 (2020). https://doi.org/10.1063/5.0006002

                            Additional Code Authors
    E. T. Seidl, C. L. Janssen, E. F. Valeev, M. L. Leininger,
    J. F. Gonthier, R. M. Richard, H. R. McAlexander, M. Saitow, X. Wang,
    P. Verma, M. H. Lechner, A. Jiang, S. Behnle, A. G. Heide,
    M. F. Herbst, and D. L. Poole

             Previous Authors, Complete List of Code Contributors,
                       and Citations for Specific Modules
    https://github.com/psi4/psi4/blob/master/codemeta.json
    https://github.com/psi4/psi4/graphs/contributors
    http://psicode.org/psi4manual/master/introduction.html#citing-psifour

    -----------------------------------------------------------------------


    Psi4 started on: Wednesday, 03 January 2024 10:54PM

    Process ID: 447464
    Host:       moses-razer
    PSIDATADIR: /home/kchung25/anaconda3/envs/psi4_19/share/psi4
    Memory:     55.9 GiB
    Threads:    6
    
  ==> Input QCSchema <==

--------------------------------------------------------------------------
{'driver': 'energy',
 'extras': {'psiapi': True, 'wfn_qcvars_only': True},
 'id': None,
 'keywords': {'SCF_TYPE': 'DF', 'function_kwargs': {}},
 'model': {'basis': 'aug-cc-pvtz', 'method': 'mp2'},
 'molecule': {'atom_labels': ['', ''],
              'atomic_numbers': [11, 19],
              'extras': {},
              'fix_com': True,
              'fix_orientation': True,
              'fix_symmetry': 'c1',
              'fragment_charges': [0.0, 1.0],
              'fragment_multiplicities': [1, 1],
              'fragments': [[0], [1]],
              'geometry': [0.0, 0.0, 0.0, 9.070685402197574, 0.0, 0.0],
              'mass_numbers': [23, 39],
              'masses': [22.989769282, 38.9637064864],
              'molecular_charge': 1.0,
              'molecular_multiplicity': 1,
              'name': 'dimer',
              'provenance': {'creator': 'QCElemental',
                             'routine': 'qcelemental.molparse.from_string',
                             'version': '0.27.1'},
              'real': [False, True],
              'schema_name': 'qcschema_molecule',
              'schema_version': 2,
              'symbols': ['Na', 'K'],
              'validated': True},
 'protocols': {'stdout': True},
 'provenance': {'creator': 'QCElemental', 'routine': 'qcelemental.models.results', 'version': '0.27.1'},
 'schema_name': 'qcschema_input',
 'schema_version': 1}
--------------------------------------------------------------------------

Scratch directory: /scratch/
   => Libint2 <=

    Primary   basis highest AM E, G, H:  5, 4, 3
    Auxiliary basis highest AM E, G, H:  6, 5, 4
    Onebody   basis highest AM E, G, H:  6, 5, 4
    Solid Harmonics ordering:            gaussian

*** tstart() called on moses-razer
*** at Wed Jan  3 22:54:42 2024

   => Loading Basis Set <=

    Name: AUG-CC-PVTZ
    Role: ORBITAL
    Keyword: BASIS
    atoms 1 entry NA         line   469 file /home/kchung25/anaconda3/envs/p415env/share/psi4/basis/aug-cc-pvtz.gbs 
    atoms 2 entry K          line  1152 file /home/kchung25/anaconda3/envs/p415env/share/psi4/basis/aug-cc-pvtz.gbs 


         ---------------------------------------------------------
                                   SCF
               by Justin Turney, Rob Parrish, Andy Simmonett
                          and Daniel G. A. Smith
                              RHF Reference
                        6 Threads,  57220 MiB Core
         ---------------------------------------------------------

  ==> Geometry <==

    Molecular point group: c1
    Full point group: C_inf_v

    Geometry (in Bohr), charge = 1, multiplicity = 1:

       Center              X                  Y                   Z               Mass       
    ------------   -----------------  -----------------  -----------------  -----------------
      Gh(NA)          0.000000000000     0.000000000000     0.000000000000    22.989769282000
         K            9.070685402198     0.000000000000     0.000000000000    38.963706486400

  Running in c1 symmetry.

  Rotational constants: A = ************  B =      0.01878  C =      0.01878 [cm^-1]
  Rotational constants: A = ************  B =    562.95601  C =    562.95601 [MHz]
  Nuclear repulsion =    0.000000000000000

  Charge       = 1
  Multiplicity = 1
  Electrons    = 18
  Nalpha       = 9
  Nbeta        = 9

  ==> Algorithm <==

  SCF Algorithm Type is DF.
  DIIS enabled.
  MOM disabled.
  Fractional occupation disabled.
  Guess Type is SAD.
  Energy threshold   = 1.00e-08
  Density threshold  = 1.00e-08
  Integral threshold = 1.00e-12

  ==> Primary Basis <==

  Basis Set: AUG-CC-PVTZ
    Blend: AUG-CC-PVTZ
    Number of shells: 35
    Number of basis functions: 109
    Number of Cartesian functions: 128
    Spherical Harmonics?: true
    Max angular momentum: 3

   => Loading Basis Set <=

    Name: (AUG-CC-PVTZ AUX)
    Role: JKFIT
    Keyword: DF_BASIS_SCF
    atoms 1 entry NA         line   498 file /home/kchung25/anaconda3/envs/p415env/share/psi4/basis/def2-universal-jkfit.gbs 
    atoms 2 entry K          line  1152 file /home/kchung25/anaconda3/envs/p415env/share/psi4/basis/def2-universal-jkfit.gbs 

  ==> Integral Setup <==

  DFHelper Memory: AOs need 0.028 GiB; user supplied 41.910 GiB. 
  Using in-core AOs.

  ==> MemDFJK: Density-Fitted J/K Matrices <==

    J tasked:                   Yes
    K tasked:                   Yes
    wK tasked:                   No
    OpenMP threads:               6
    Memory [MiB]:             42915
    Algorithm:                 Core
    Schwarz Cutoff:           1E-12
    Mask sparsity (%):       0.0000
    Fitting Condition:        1E-10

   => Auxiliary Basis Set <=

  Basis Set: (AUG-CC-PVTZ AUX)
    Blend: DEF2-UNIVERSAL-JKFIT
    Number of shells: 78
    Number of basis functions: 272
    Number of Cartesian functions: 340
    Spherical Harmonics?: true
    Max angular momentum: 4

  Minimum eigenvalue in the overlap matrix is 2.3750377022E-04.
  Reciprocal condition number of the overlap matrix is 3.7829284729E-05.
    Using symmetric orthogonalization.

  ==> Pre-Iterations <==

  SCF Guess: Superposition of Atomic Densities via on-the-fly atomic UHF (no occupation information).

   -------------------------
    Irrep   Nso     Nmo    
   -------------------------
     A        109     109 
   -------------------------
    Total     109     109
   -------------------------

  ==> Iterations <==

                           Total Energy        Delta E     RMS |[F,P]|

   @DF-RHF iter SAD:  -599.05159891949575   -5.99052e+02   0.00000e+00 
   @DF-RHF iter   1:  -599.01748751809941    3.41114e-02   4.78588e-05 DIIS
   @DF-RHF iter   2:  -599.01750643080186   -1.89127e-05   7.11136e-06 DIIS
   @DF-RHF iter   3:  -599.01750689102846   -4.60227e-07   3.32876e-07 DIIS
   @DF-RHF iter   4:  -599.01750689194751   -9.19044e-10   4.21196e-08 DIIS
   @DF-RHF iter   5:  -599.01750689196479   -1.72804e-11   1.17144e-08 DIIS
   @DF-RHF iter   6:  -599.01750689196626   -1.47793e-12   2.51115e-09 DIIS
  Energy and wave function converged.


  ==> Post-Iterations <==

    Orbital Energies [Eh]
    ---------------------

    Doubly Occupied:                                                      

       1A   -133.753876     2A    -14.709301     3A    -11.739367  
       4A    -11.739363     5A    -11.739363     6A     -1.964404  
       7A     -1.171000     8A     -1.170972     9A     -1.170972  

    Virtual:                                                              

      10A     -0.146975    11A     -0.095559    12A     -0.095555  
      13A     -0.095555    14A     -0.060907    15A     -0.057877  
      16A     -0.057771    17A     -0.057771    18A     -0.057723  
      19A     -0.057723    20A     -0.045539    21A     -0.045536  
      22A     -0.045536    23A     -0.031520    24A     -0.031327  
      25A     -0.031327    26A     -0.031208    27A     -0.031208  
      28A     -0.030460    29A     -0.027427    30A     -0.027427  
      31A     -0.026388    32A     -0.018798    33A     -0.016803  
      34A     -0.016803    35A     -0.004441    36A     -0.004441  
      37A      0.000176    38A      0.000176    39A      0.001308  
      40A      0.006276    41A      0.009764    42A      0.014078  
      43A      0.014078    44A      0.016914    45A      0.016914  
      46A      0.019668    47A      0.019668    48A      0.029003  
      49A      0.030830    50A      0.030830    51A      0.037358  
      52A      0.037358    53A      0.040142    54A      0.061201  
      55A      0.061201    56A      0.062084    57A      0.079810  
      58A      0.079810    59A      0.106496    60A      0.110312  
      61A      0.110312    62A      0.122818    63A      0.145992  
      64A      0.154080    65A      0.154080    66A      0.170928  
      67A      0.170928    68A      0.185629    69A      0.185629  
      70A      0.206536    71A      0.206536    72A      0.209339  
      73A      0.223942    74A      0.223942    75A      0.229378  
      76A      0.229378    77A      0.239423    78A      0.239423  
      79A      0.240951    80A      0.249317    81A      0.249317  
      82A      0.256947    83A      0.256947    84A      0.294534  
      85A      0.306996    86A      0.306996    87A      0.335290  
      88A      0.335290    89A      0.335784    90A      0.360651  
      91A      0.615100    92A      0.615100    93A      0.638408  
      94A      0.638408    95A      0.668694    96A      0.668694  
      97A      0.672121    98A      0.684503    99A      0.684503  
     100A      0.706670   101A      0.706670   102A      0.708235  
     103A      0.837076   104A      0.869601   105A      4.231192  
     106A      6.203961   107A      6.203961   108A      6.219186  
     109A     64.250069  

    Final Occupation by Irrep:
              A 
    DOCC [     9 ]
    NA   [     9 ]
    NB   [     9 ]

  @DF-RHF Final Energy:  -599.01750689196626

   => Energetics <=

    Nuclear Repulsion Energy =              0.0000000000000000
    One-Electron Energy =                -819.7177778629212526
    Two-Electron Energy =                 220.7002709709550174
    Total Energy =                       -599.0175068919662635

Computation Completed


Properties will be evaluated at   0.000000,   0.000000,   0.000000 [a0]

Properties computed using the SCF density matrix


 Multipole Moments:

 ------------------------------------------------------------------------------------
     Multipole            Electronic (a.u.)      Nuclear  (a.u.)        Total (a.u.)
 ------------------------------------------------------------------------------------

 L = 1.  Multiply by 2.5417464519 to convert [e a0] to [Debye]
 Dipole X            :       -163.2726147          172.3430226            9.0704080
 Dipole Y            :          0.0000000            0.0000000            0.0000000
 Dipole Z            :         -0.0000000            0.0000000           -0.0000000
 Magnitude           :                                                    9.0704080

 ------------------------------------------------------------------------------------

*** tstop() called on moses-razer at Wed Jan  3 22:54:49 2024
Module time:
	user time   =      12.19 seconds =       0.20 minutes
	system time =       2.53 seconds =       0.04 minutes
	total time  =          7 seconds =       0.12 minutes
Total time:
	user time   =      12.19 seconds =       0.20 minutes
	system time =       2.53 seconds =       0.04 minutes
	total time  =          7 seconds =       0.12 minutes

*** tstart() called on moses-razer
*** at Wed Jan  3 22:54:49 2024


  //>>>>>>>>>>>>>>>>>>>>>>>>>>>>>>>>>>>//
  //               DFMP2               //
  //<<<<<<<<<<<<<<<<<<<<<<<<<<<<<<<<<<<//

   => Loading Basis Set <=

    Name: (AUG-CC-PVTZ AUX)
    Role: RIFIT
    Keyword: DF_BASIS_MP2
    atoms 1 entry NA         line   610 file /home/kchung25/anaconda3/envs/p415env/share/psi4/basis/def2-qzvpp-ri.gbs 
    atoms 2 entry K          line  1282 file /home/kchung25/anaconda3/envs/p415env/share/psi4/basis/def2-qzvpp-ri.gbs 

	 --------------------------------------------------------
	                          DF-MP2                         
	      2nd-Order Density-Fitted Moller-Plesset Theory     
	              RMP2 Wavefunction,   6 Threads             
	                                                         
	        Rob Parrish, Justin Turney, Andy Simmonett,      
	           Ed Hohenstein, and C. David Sherrill          
	 --------------------------------------------------------

   => Auxiliary Basis Set <=

  Basis Set: (AUG-CC-PVTZ AUX)
    Blend: DEF2-QZVPP-RI
    Number of shells: 91
    Number of basis functions: 365
    Number of Cartesian functions: 476
    Spherical Harmonics?: true
    Max angular momentum: 4

	 --------------------------------------------------------
	                 NBF =   109, NAUX =   365
	 --------------------------------------------------------
	   CLASS    FOCC     OCC    AOCC    AVIR     VIR    FVIR
	   PAIRS       0       9       9     100     100       0
	 --------------------------------------------------------

	-----------------------------------------------------------
	 ==================> DF-MP2 Energies <==================== 
	-----------------------------------------------------------
	 Reference Energy          =    -599.0175068919662635 [Eh]
	 Singles Energy            =      -0.0000000000000000 [Eh]
	 Same-Spin Energy          =      -0.0263605316161933 [Eh]
	 Opposite-Spin Energy      =      -0.0609267709660049 [Eh]
	 Correlation Energy        =      -0.0872873025821983 [Eh]
	 Total Energy              =    -599.1047941945485036 [Eh]
	-----------------------------------------------------------
	 ================> DF-SCS-MP2 Energies <================== 
	-----------------------------------------------------------
	 SCS Same-Spin Scale       =       0.3333333333333333 [-]
	 SCS Opposite-Spin Scale   =       1.2000000000000000 [-]
	 SCS Same-Spin Energy      =      -0.0087868438720644 [Eh]
	 SCS Opposite-Spin Energy  =      -0.0731121251592059 [Eh]
	 SCS Correlation Energy    =      -0.0818989690312704 [Eh]
	 SCS Total Energy          =    -599.0994058609975355 [Eh]
	-----------------------------------------------------------


*** tstop() called on moses-razer at Wed Jan  3 22:54:55 2024
Module time:
	user time   =       7.34 seconds =       0.12 minutes
	system time =       0.81 seconds =       0.01 minutes
	total time  =          6 seconds =       0.10 minutes
Total time:
	user time   =      19.53 seconds =       0.33 minutes
	system time =       3.34 seconds =       0.06 minutes
	total time  =         13 seconds =       0.22 minutes

    Psi4 stopped on: Wednesday, 03 January 2024 10:54PM
    Psi4 wall time for execution: 0:00:13.03


    -----------------------------------------------------------------------
          Psi4: An Open-Source Ab Initio Electronic Structure Package
                               Psi4 1.9 release

                         Git: Rev {} zzzzzzz 


    D. G. A. Smith, L. A. Burns, A. C. Simmonett, R. M. Parrish,
    M. C. Schieber, R. Galvelis, P. Kraus, H. Kruse, R. Di Remigio,
    A. Alenaizan, A. M. James, S. Lehtola, J. P. Misiewicz, M. Scheurer,
    R. A. Shaw, J. B. Schriber, Y. Xie, Z. L. Glick, D. A. Sirianni,
    J. S. O'Brien, J. M. Waldrop, A. Kumar, E. G. Hohenstein,
    B. P. Pritchard, B. R. Brooks, H. F. Schaefer III, A. Yu. Sokolov,
    K. Patkowski, A. E. DePrince III, U. Bozkaya, R. A. King,
    F. A. Evangelista, J. M. Turney, T. D. Crawford, C. D. Sherrill,
    J. Chem. Phys. 152(18) 184108 (2020). https://doi.org/10.1063/5.0006002

                            Additional Code Authors
    E. T. Seidl, C. L. Janssen, E. F. Valeev, M. L. Leininger,
    J. F. Gonthier, R. M. Richard, H. R. McAlexander, M. Saitow, X. Wang,
    P. Verma, M. H. Lechner, A. Jiang, S. Behnle, A. G. Heide,
    M. F. Herbst, and D. L. Poole

             Previous Authors, Complete List of Code Contributors,
                       and Citations for Specific Modules
    https://github.com/psi4/psi4/blob/master/codemeta.json
    https://github.com/psi4/psi4/graphs/contributors
    http://psicode.org/psi4manual/master/introduction.html#citing-psifour

    -----------------------------------------------------------------------


    Psi4 started on: Wednesday, 03 January 2024 10:54PM

    Process ID: 447464
    Host:       moses-razer
    PSIDATADIR: /home/kchung25/anaconda3/envs/psi4_19/share/psi4
    Memory:     55.9 GiB
    Threads:    6
    
  ==> Input QCSchema <==

--------------------------------------------------------------------------
{'driver': 'energy',
 'extras': {'psiapi': True, 'wfn_qcvars_only': True},
 'id': None,
 'keywords': {'SCF_TYPE': 'DF', 'function_kwargs': {}},
 'model': {'basis': 'aug-cc-pvtz', 'method': 'mp2'},
 'molecule': {'atom_labels': ['', ''],
              'atomic_numbers': [11, 19],
              'extras': {},
              'fix_com': True,
              'fix_orientation': True,
              'fix_symmetry': 'c1',
              'fragment_charges': [1.0, 0.0],
              'fragment_multiplicities': [1, 1],
              'fragments': [[0], [1]],
              'geometry': [0.0, 0.0, 0.0, 9.070685402197574, 0.0, 0.0],
              'mass_numbers': [23, 39],
              'masses': [22.989769282, 38.9637064864],
              'molecular_charge': 1.0,
              'molecular_multiplicity': 1,
              'name': 'dimer',
              'provenance': {'creator': 'QCElemental',
                             'routine': 'qcelemental.molparse.from_string',
                             'version': '0.27.1'},
              'real': [True, False],
              'schema_name': 'qcschema_molecule',
              'schema_version': 2,
              'symbols': ['Na', 'K'],
              'validated': True},
 'protocols': {'stdout': True},
 'provenance': {'creator': 'QCElemental', 'routine': 'qcelemental.models.results', 'version': '0.27.1'},
 'schema_name': 'qcschema_input',
 'schema_version': 1}
--------------------------------------------------------------------------

Scratch directory: /scratch/
   => Libint2 <=

    Primary   basis highest AM E, G, H:  5, 4, 3
    Auxiliary basis highest AM E, G, H:  6, 5, 4
    Onebody   basis highest AM E, G, H:  6, 5, 4
    Solid Harmonics ordering:            gaussian

*** tstart() called on moses-razer
*** at Wed Jan  3 22:54:55 2024

   => Loading Basis Set <=

    Name: AUG-CC-PVTZ
    Role: ORBITAL
    Keyword: BASIS
    atoms 1 entry NA         line   469 file /home/kchung25/anaconda3/envs/p415env/share/psi4/basis/aug-cc-pvtz.gbs 
    atoms 2 entry K          line  1152 file /home/kchung25/anaconda3/envs/p415env/share/psi4/basis/aug-cc-pvtz.gbs 


         ---------------------------------------------------------
                                   SCF
               by Justin Turney, Rob Parrish, Andy Simmonett
                          and Daniel G. A. Smith
                              RHF Reference
                        6 Threads,  57220 MiB Core
         ---------------------------------------------------------

  ==> Geometry <==

    Molecular point group: c1
    Full point group: C_inf_v

    Geometry (in Bohr), charge = 1, multiplicity = 1:

       Center              X                  Y                   Z               Mass       
    ------------   -----------------  -----------------  -----------------  -----------------
         NA           0.000000000000     0.000000000000     0.000000000000    22.989769282000
      Gh(K)           9.070685402198     0.000000000000     0.000000000000    38.963706486400

  Running in c1 symmetry.

  Rotational constants: A = ************  B =      0.01878  C =      0.01878 [cm^-1]
  Rotational constants: A = ************  B =    562.95601  C =    562.95601 [MHz]
  Nuclear repulsion =    0.000000000000000

  Charge       = 1
  Multiplicity = 1
  Electrons    = 10
  Nalpha       = 5
  Nbeta        = 5

  ==> Algorithm <==

  SCF Algorithm Type is DF.
  DIIS enabled.
  MOM disabled.
  Fractional occupation disabled.
  Guess Type is SAD.
  Energy threshold   = 1.00e-08
  Density threshold  = 1.00e-08
  Integral threshold = 1.00e-12

  ==> Primary Basis <==

  Basis Set: AUG-CC-PVTZ
    Blend: AUG-CC-PVTZ
    Number of shells: 35
    Number of basis functions: 109
    Number of Cartesian functions: 128
    Spherical Harmonics?: true
    Max angular momentum: 3

   => Loading Basis Set <=

    Name: (AUG-CC-PVTZ AUX)
    Role: JKFIT
    Keyword: DF_BASIS_SCF
    atoms 1 entry NA         line   498 file /home/kchung25/anaconda3/envs/p415env/share/psi4/basis/def2-universal-jkfit.gbs 
    atoms 2 entry K          line  1152 file /home/kchung25/anaconda3/envs/p415env/share/psi4/basis/def2-universal-jkfit.gbs 

  ==> Integral Setup <==

  DFHelper Memory: AOs need 0.028 GiB; user supplied 41.910 GiB. 
  Using in-core AOs.

  ==> MemDFJK: Density-Fitted J/K Matrices <==

    J tasked:                   Yes
    K tasked:                   Yes
    wK tasked:                   No
    OpenMP threads:               6
    Memory [MiB]:             42915
    Algorithm:                 Core
    Schwarz Cutoff:           1E-12
    Mask sparsity (%):       0.0000
    Fitting Condition:        1E-10

   => Auxiliary Basis Set <=

  Basis Set: (AUG-CC-PVTZ AUX)
    Blend: DEF2-UNIVERSAL-JKFIT
    Number of shells: 78
    Number of basis functions: 272
    Number of Cartesian functions: 340
    Spherical Harmonics?: true
    Max angular momentum: 4

  Minimum eigenvalue in the overlap matrix is 2.3750377022E-04.
  Reciprocal condition number of the overlap matrix is 3.7829284729E-05.
    Using symmetric orthogonalization.

  ==> Pre-Iterations <==

  SCF Guess: Superposition of Atomic Densities via on-the-fly atomic UHF (no occupation information).

   -------------------------
    Irrep   Nso     Nmo    
   -------------------------
     A        109     109 
   -------------------------
    Total     109     109
   -------------------------

  ==> Iterations <==

                           Total Energy        Delta E     RMS |[F,P]|

   @DF-RHF iter SAD:  -161.74554689554984   -1.61746e+02   0.00000e+00 
   @DF-RHF iter   1:  -161.67600889978200    6.95380e-02   5.24665e-05 DIIS
   @DF-RHF iter   2:  -161.67602673226469   -1.78325e-05   9.99922e-06 DIIS
   @DF-RHF iter   3:  -161.67602716833306   -4.36068e-07   4.22284e-07 DIIS
   @DF-RHF iter   4:  -161.67602716914269   -8.09621e-10   2.14311e-08 DIIS
   @DF-RHF iter   5:  -161.67602716914496   -2.27374e-12   9.09147e-10 DIIS
  Energy and wave function converged.


  ==> Post-Iterations <==

    Orbital Energies [Eh]
    ---------------------

    Doubly Occupied:                                                      

       1A    -40.763643     2A     -3.075291     3A     -1.798461  
       4A     -1.798438     5A     -1.798438  

    Virtual:                                                              

       6A     -0.181845     7A     -0.109445     8A     -0.109443  
       9A     -0.109443    10A     -0.070073    11A     -0.055122  
      12A     -0.054615    13A     -0.054615    14A     -0.052663  
      15A     -0.052663    16A     -0.049825    17A     -0.049825  
      18A     -0.049737    19A     -0.033860    20A     -0.029162  
      21A     -0.029162    22A     -0.028763    23A     -0.028262  
      24A     -0.028262    25A     -0.025585    26A     -0.025327  
      27A     -0.025327    28A     -0.015424    29A     -0.010679  
      30A     -0.010679    31A     -0.007693    32A     -0.007521  
      33A     -0.007521    34A     -0.002367    35A      0.001829  
      36A      0.001829    37A      0.015360    38A      0.017491  
      39A      0.017491    40A      0.019189    41A      0.019189  
      42A      0.033732    43A      0.040664    44A      0.055544  
      45A      0.055544    46A      0.057205    47A      0.057205  
      48A      0.068639    49A      0.068639    50A      0.070802  
      51A      0.072061    52A      0.072061    53A      0.093465  
      54A      0.111471    55A      0.111471    56A      0.111788  
      57A      0.111788    58A      0.112257    59A      0.122996  
      60A      0.122996    61A      0.128466    62A      0.128466  
      63A      0.148000    64A      0.155165    65A      0.155165  
      66A      0.167580    67A      0.167580    68A      0.176800  
      69A      0.176800    70A      0.179177    71A      0.235419  
      72A      0.235419    73A      0.245222    74A      0.264120  
      75A      0.357444    76A      0.357444    77A      0.359120  
      78A      0.359120    79A      0.374880    80A      0.380800  
      81A      0.380800    82A      0.381139    83A      0.381139  
      84A      0.419177    85A      0.419177    86A      0.444099  
      87A      0.497568    88A      0.497568    89A      0.517154  
      90A      0.517154    91A      0.546045    92A      0.546045  
      93A      0.547925    94A      0.555017    95A      1.579465  
      96A      1.605340    97A      1.723848    98A      1.723848  
      99A      1.797608   100A      1.797608   101A      1.804649  
     102A      1.868883   103A      1.868883   104A      2.039833  
     105A      9.783823   106A     30.107889   107A     30.107889  
     108A     30.231059   109A    197.110319  

    Final Occupation by Irrep:
              A 
    DOCC [     5 ]
    NA   [     5 ]
    NB   [     5 ]

  @DF-RHF Final Energy:  -161.67602716914496

   => Energetics <=

    Nuclear Repulsion Energy =              0.0000000000000000
    One-Electron Energy =                -224.8835101619521879
    Two-Electron Energy =                  63.2074829928072148
    Total Energy =                       -161.6760271691449589

Computation Completed


Properties will be evaluated at   0.000000,   0.000000,   0.000000 [a0]

Properties computed using the SCF density matrix


 Multipole Moments:

 ------------------------------------------------------------------------------------
     Multipole            Electronic (a.u.)      Nuclear  (a.u.)        Total (a.u.)
 ------------------------------------------------------------------------------------

 L = 1.  Multiply by 2.5417464519 to convert [e a0] to [Debye]
 Dipole X            :          0.0001585            0.0000000            0.0001585
 Dipole Y            :         -0.0000000            0.0000000           -0.0000000
 Dipole Z            :         -0.0000000            0.0000000           -0.0000000
 Magnitude           :                                                    0.0001585

 ------------------------------------------------------------------------------------

*** tstop() called on moses-razer at Wed Jan  3 22:55:00 2024
Module time:
	user time   =       9.59 seconds =       0.16 minutes
	system time =       1.54 seconds =       0.03 minutes
	total time  =          5 seconds =       0.08 minutes
Total time:
	user time   =      29.34 seconds =       0.49 minutes
	system time =       4.88 seconds =       0.08 minutes
	total time  =         18 seconds =       0.30 minutes

*** tstart() called on moses-razer
*** at Wed Jan  3 22:55:00 2024


  //>>>>>>>>>>>>>>>>>>>>>>>>>>>>>>>>>>>//
  //               DFMP2               //
  //<<<<<<<<<<<<<<<<<<<<<<<<<<<<<<<<<<<//

   => Loading Basis Set <=

    Name: (AUG-CC-PVTZ AUX)
    Role: RIFIT
    Keyword: DF_BASIS_MP2
    atoms 1 entry NA         line   610 file /home/kchung25/anaconda3/envs/p415env/share/psi4/basis/def2-qzvpp-ri.gbs 
    atoms 2 entry K          line  1282 file /home/kchung25/anaconda3/envs/p415env/share/psi4/basis/def2-qzvpp-ri.gbs 

	 --------------------------------------------------------
	                          DF-MP2                         
	      2nd-Order Density-Fitted Moller-Plesset Theory     
	              RMP2 Wavefunction,   6 Threads             
	                                                         
	        Rob Parrish, Justin Turney, Andy Simmonett,      
	           Ed Hohenstein, and C. David Sherrill          
	 --------------------------------------------------------

   => Auxiliary Basis Set <=

  Basis Set: (AUG-CC-PVTZ AUX)
    Blend: DEF2-QZVPP-RI
    Number of shells: 91
    Number of basis functions: 365
    Number of Cartesian functions: 476
    Spherical Harmonics?: true
    Max angular momentum: 4

	 --------------------------------------------------------
	                 NBF =   109, NAUX =   365
	 --------------------------------------------------------
	   CLASS    FOCC     OCC    AOCC    AVIR     VIR    FVIR
	   PAIRS       0       5       5     104     104       0
	 --------------------------------------------------------

	-----------------------------------------------------------
	 ==================> DF-MP2 Energies <==================== 
	-----------------------------------------------------------
	 Reference Energy          =    -161.6760271691449589 [Eh]
	 Singles Energy            =      -0.0000000000000000 [Eh]
	 Same-Spin Energy          =      -0.0019783654067201 [Eh]
	 Opposite-Spin Energy      =      -0.0079753285594641 [Eh]
	 Correlation Energy        =      -0.0099536939661843 [Eh]
	 Total Energy              =    -161.6859808631111548 [Eh]
	-----------------------------------------------------------
	 ================> DF-SCS-MP2 Energies <================== 
	-----------------------------------------------------------
	 SCS Same-Spin Scale       =       0.3333333333333333 [-]
	 SCS Opposite-Spin Scale   =       1.2000000000000000 [-]
	 SCS Same-Spin Energy      =      -0.0006594551355734 [Eh]
	 SCS Opposite-Spin Energy  =      -0.0095703942713570 [Eh]
	 SCS Correlation Energy    =      -0.0102298494069303 [Eh]
	 SCS Total Energy          =    -161.6862570185518848 [Eh]
	-----------------------------------------------------------


*** tstop() called on moses-razer at Wed Jan  3 22:55:06 2024
Module time:
	user time   =       7.04 seconds =       0.12 minutes
	system time =       0.71 seconds =       0.01 minutes
	total time  =          6 seconds =       0.10 minutes
Total time:
	user time   =      36.38 seconds =       0.61 minutes
	system time =       5.59 seconds =       0.09 minutes
	total time  =         24 seconds =       0.40 minutes

    Psi4 stopped on: Wednesday, 03 January 2024 10:55PM
    Psi4 wall time for execution: 0:00:10.93


    -----------------------------------------------------------------------
          Psi4: An Open-Source Ab Initio Electronic Structure Package
                               Psi4 1.9 release

                         Git: Rev {} zzzzzzz 


    D. G. A. Smith, L. A. Burns, A. C. Simmonett, R. M. Parrish,
    M. C. Schieber, R. Galvelis, P. Kraus, H. Kruse, R. Di Remigio,
    A. Alenaizan, A. M. James, S. Lehtola, J. P. Misiewicz, M. Scheurer,
    R. A. Shaw, J. B. Schriber, Y. Xie, Z. L. Glick, D. A. Sirianni,
    J. S. O'Brien, J. M. Waldrop, A. Kumar, E. G. Hohenstein,
    B. P. Pritchard, B. R. Brooks, H. F. Schaefer III, A. Yu. Sokolov,
    K. Patkowski, A. E. DePrince III, U. Bozkaya, R. A. King,
    F. A. Evangelista, J. M. Turney, T. D. Crawford, C. D. Sherrill,
    J. Chem. Phys. 152(18) 184108 (2020). https://doi.org/10.1063/5.0006002

                            Additional Code Authors
    E. T. Seidl, C. L. Janssen, E. F. Valeev, M. L. Leininger,
    J. F. Gonthier, R. M. Richard, H. R. McAlexander, M. Saitow, X. Wang,
    P. Verma, M. H. Lechner, A. Jiang, S. Behnle, A. G. Heide,
    M. F. Herbst, and D. L. Poole

             Previous Authors, Complete List of Code Contributors,
                       and Citations for Specific Modules
    https://github.com/psi4/psi4/blob/master/codemeta.json
    https://github.com/psi4/psi4/graphs/contributors
    http://psicode.org/psi4manual/master/introduction.html#citing-psifour

    -----------------------------------------------------------------------


    Psi4 started on: Wednesday, 03 January 2024 10:54PM

    Process ID: 447464
    Host:       moses-razer
    PSIDATADIR: /home/kchung25/anaconda3/envs/psi4_19/share/psi4
    Memory:     55.9 GiB
    Threads:    6
    
  ==> Input QCSchema <==

--------------------------------------------------------------------------
{'driver': 'energy',
 'extras': {'psiapi': True, 'wfn_qcvars_only': True},
 'id': None,
 'keywords': {'SCF_TYPE': 'DF', 'function_kwargs': {}},
 'model': {'basis': 'aug-cc-pvtz', 'method': 'mp2'},
 'molecule': {'atom_labels': ['', ''],
              'atomic_numbers': [11, 19],
              'extras': {},
              'fix_com': True,
              'fix_orientation': True,
              'fix_symmetry': 'c1',
              'fragment_charges': [1.0, 1.0],
              'fragment_multiplicities': [1, 1],
              'fragments': [[0], [1]],
              'geometry': [0.0, 0.0, 0.0, 9.070685402197574, 0.0, 0.0],
              'mass_numbers': [23, 39],
              'masses': [22.989769282, 38.9637064864],
              'molecular_charge': 2.0,
              'molecular_multiplicity': 1,
              'name': 'dimer',
              'provenance': {'creator': 'QCElemental',
                             'routine': 'qcelemental.molparse.from_string',
                             'version': '0.27.1'},
              'real': [True, True],
              'schema_name': 'qcschema_molecule',
              'schema_version': 2,
              'symbols': ['Na', 'K'],
              'validated': True},
 'protocols': {'stdout': True},
 'provenance': {'creator': 'QCElemental', 'routine': 'qcelemental.models.results', 'version': '0.27.1'},
 'schema_name': 'qcschema_input',
 'schema_version': 1}
--------------------------------------------------------------------------

Scratch directory: /scratch/
   => Libint2 <=

    Primary   basis highest AM E, G, H:  5, 4, 3
    Auxiliary basis highest AM E, G, H:  6, 5, 4
    Onebody   basis highest AM E, G, H:  6, 5, 4
    Solid Harmonics ordering:            gaussian

*** tstart() called on moses-razer
*** at Wed Jan  3 22:55:06 2024

   => Loading Basis Set <=

    Name: AUG-CC-PVTZ
    Role: ORBITAL
    Keyword: BASIS
    atoms 1 entry NA         line   469 file /home/kchung25/anaconda3/envs/p415env/share/psi4/basis/aug-cc-pvtz.gbs 
    atoms 2 entry K          line  1152 file /home/kchung25/anaconda3/envs/p415env/share/psi4/basis/aug-cc-pvtz.gbs 


         ---------------------------------------------------------
                                   SCF
               by Justin Turney, Rob Parrish, Andy Simmonett
                          and Daniel G. A. Smith
                              RHF Reference
                        6 Threads,  57220 MiB Core
         ---------------------------------------------------------

  ==> Geometry <==

    Molecular point group: c1
    Full point group: C_inf_v

    Geometry (in Bohr), charge = 2, multiplicity = 1:

       Center              X                  Y                   Z               Mass       
    ------------   -----------------  -----------------  -----------------  -----------------
         NA           0.000000000000     0.000000000000     0.000000000000    22.989769282000
         K            9.070685402198     0.000000000000     0.000000000000    38.963706486400

  Running in c1 symmetry.

  Rotational constants: A = ************  B =      0.01878  C =      0.01878 [cm^-1]
  Rotational constants: A = ************  B =    562.95601  C =    562.95601 [MHz]
  Nuclear repulsion =   23.041257714589587

  Charge       = 2
  Multiplicity = 1
  Electrons    = 28
  Nalpha       = 14
  Nbeta        = 14

  ==> Algorithm <==

  SCF Algorithm Type is DF.
  DIIS enabled.
  MOM disabled.
  Fractional occupation disabled.
  Guess Type is SAD.
  Energy threshold   = 1.00e-08
  Density threshold  = 1.00e-08
  Integral threshold = 1.00e-12

  ==> Primary Basis <==

  Basis Set: AUG-CC-PVTZ
    Blend: AUG-CC-PVTZ
    Number of shells: 35
    Number of basis functions: 109
    Number of Cartesian functions: 128
    Spherical Harmonics?: true
    Max angular momentum: 3

   => Loading Basis Set <=

    Name: (AUG-CC-PVTZ AUX)
    Role: JKFIT
    Keyword: DF_BASIS_SCF
    atoms 1 entry NA         line   498 file /home/kchung25/anaconda3/envs/p415env/share/psi4/basis/def2-universal-jkfit.gbs 
    atoms 2 entry K          line  1152 file /home/kchung25/anaconda3/envs/p415env/share/psi4/basis/def2-universal-jkfit.gbs 

  ==> Integral Setup <==

  DFHelper Memory: AOs need 0.028 GiB; user supplied 41.910 GiB. 
  Using in-core AOs.

  ==> MemDFJK: Density-Fitted J/K Matrices <==

    J tasked:                   Yes
    K tasked:                   Yes
    wK tasked:                   No
    OpenMP threads:               6
    Memory [MiB]:             42915
    Algorithm:                 Core
    Schwarz Cutoff:           1E-12
    Mask sparsity (%):       0.0000
    Fitting Condition:        1E-10

   => Auxiliary Basis Set <=

  Basis Set: (AUG-CC-PVTZ AUX)
    Blend: DEF2-UNIVERSAL-JKFIT
    Number of shells: 78
    Number of basis functions: 272
    Number of Cartesian functions: 340
    Spherical Harmonics?: true
    Max angular momentum: 4

  Minimum eigenvalue in the overlap matrix is 2.3750377022E-04.
  Reciprocal condition number of the overlap matrix is 3.7829284729E-05.
    Using symmetric orthogonalization.

  ==> Pre-Iterations <==

  SCF Guess: Superposition of Atomic Densities via on-the-fly atomic UHF (no occupation information).

   -------------------------
    Irrep   Nso     Nmo    
   -------------------------
     A        109     109 
   -------------------------
    Total     109     109
   -------------------------

  ==> Iterations <==

                           Total Energy        Delta E     RMS |[F,P]|

   @DF-RHF iter SAD:  -760.80883357462596   -7.60809e+02   0.00000e+00 
   @DF-RHF iter   1:  -760.58350724711238    2.25326e-01   1.48455e-04 ADIIS/DIIS
   @DF-RHF iter   2:  -760.58369129781715   -1.84051e-04   2.95924e-05 DIIS
   @DF-RHF iter   3:  -760.58369708033490   -5.78252e-06   5.34325e-06 DIIS
   @DF-RHF iter   4:  -760.58369733911729   -2.58782e-07   5.17896e-07 DIIS
   @DF-RHF iter   5:  -760.58369734237385   -3.25656e-09   6.02046e-08 DIIS
   @DF-RHF iter   6:  -760.58369734242206   -4.82032e-11   5.96217e-09 DIIS
  Energy and wave function converged.


  ==> Post-Iterations <==

    Orbital Energies [Eh]
    ---------------------

    Doubly Occupied:                                                      

       1A   -133.864744     2A    -40.873263     3A    -14.820053  
       4A    -11.850170     5A    -11.850102     6A    -11.850102  
       7A     -3.184862     8A     -2.074893     9A     -1.908359  
      10A     -1.907801    11A     -1.907801    12A     -1.282594  
      13A     -1.280862    14A     -1.280862  

    Virtual:                                                              

      15A     -0.307576    16A     -0.244990    17A     -0.223173  
      18A     -0.223173    19A     -0.203214    20A     -0.178313  
      21A     -0.178313    22A     -0.161074    23A     -0.154667  
      24A     -0.154667    25A     -0.147721    26A     -0.141989  
      27A     -0.141989    28A     -0.126253    29A     -0.121978  
      30A     -0.121978    31A     -0.121896    32A     -0.121896  
      33A     -0.114562    34A     -0.104204    35A     -0.104204  
      36A     -0.095964    37A     -0.093748    38A     -0.093748  
      39A     -0.093160    40A     -0.087356    41A     -0.087356  
      42A     -0.086819    43A     -0.084455    44A     -0.084455  
      45A     -0.077276    46A     -0.077276    47A     -0.076391  
      48A     -0.070803    49A     -0.070803    50A     -0.070027  
      51A     -0.062121    52A     -0.062121    53A     -0.061238  
      54A     -0.061238    55A     -0.059641    56A     -0.058298  
      57A     -0.058298    58A     -0.050110    59A     -0.048590  
      60A     -0.048590    61A     -0.046300    62A     -0.028403  
      63A     -0.028403    64A     -0.024402    65A     -0.024402  
      66A     -0.021616    67A     -0.008593    68A      0.000068  
      69A      0.000068    70A      0.015127    71A      0.015127  
      72A      0.023092    73A      0.023092    74A      0.027996  
      75A      0.044592    76A      0.044592    77A      0.053754  
      78A      0.065982    79A      0.072886    80A      0.072886  
      81A      0.085037    82A      0.085037    83A      0.121778  
      84A      0.121778    85A      0.141882    86A      0.141882  
      87A      0.143533    88A      0.143533    89A      0.149999  
      90A      0.149999    91A      0.151514    92A      0.181405  
      93A      0.188288    94A      0.188288    95A      0.209965  
      96A      0.276463    97A      0.276463    98A      0.303618  
      99A      0.303618   100A      0.337890   101A      0.396323  
     102A      0.396323   103A      0.411906   104A      0.411906  
     105A      0.436512   106A      0.436512   107A      0.440240  
     108A      0.771551   109A      1.481001  

    Final Occupation by Irrep:
              A 
    DOCC [    14 ]
    NA   [    14 ]
    NB   [    14 ]

  @DF-RHF Final Energy:  -760.58369734242206

   => Energetics <=

    Nuclear Repulsion Energy =             23.0412577145895874
    One-Electron Energy =               -1087.3769782830192980
    Two-Electron Energy =                 303.7520232260076796
    Total Energy =                       -760.5836973424220560

Computation Completed


Properties will be evaluated at   0.000000,   0.000000,   0.000000 [a0]

Properties computed using the SCF density matrix


 Multipole Moments:

 ------------------------------------------------------------------------------------
     Multipole            Electronic (a.u.)      Nuclear  (a.u.)        Total (a.u.)
 ------------------------------------------------------------------------------------

 L = 1.  Multiply by 2.5417464519 to convert [e a0] to [Debye]
 Dipole X            :       -163.2162528          172.3430226            9.1267699
 Dipole Y            :         -0.0000000            0.0000000           -0.0000000
 Dipole Z            :          0.0000000            0.0000000            0.0000000
 Magnitude           :                                                    9.1267699

 ------------------------------------------------------------------------------------

*** tstop() called on moses-razer at Wed Jan  3 22:55:14 2024
Module time:
	user time   =      14.18 seconds =       0.24 minutes
	system time =       2.80 seconds =       0.05 minutes
	total time  =          8 seconds =       0.13 minutes
Total time:
	user time   =      50.79 seconds =       0.85 minutes
	system time =       8.39 seconds =       0.14 minutes
	total time  =         32 seconds =       0.53 minutes

*** tstart() called on moses-razer
*** at Wed Jan  3 22:55:14 2024


  //>>>>>>>>>>>>>>>>>>>>>>>>>>>>>>>>>>>//
  //               DFMP2               //
  //<<<<<<<<<<<<<<<<<<<<<<<<<<<<<<<<<<<//

   => Loading Basis Set <=

    Name: (AUG-CC-PVTZ AUX)
    Role: RIFIT
    Keyword: DF_BASIS_MP2
    atoms 1 entry NA         line   610 file /home/kchung25/anaconda3/envs/p415env/share/psi4/basis/def2-qzvpp-ri.gbs 
    atoms 2 entry K          line  1282 file /home/kchung25/anaconda3/envs/p415env/share/psi4/basis/def2-qzvpp-ri.gbs 

	 --------------------------------------------------------
	                          DF-MP2                         
	      2nd-Order Density-Fitted Moller-Plesset Theory     
	              RMP2 Wavefunction,   6 Threads             
	                                                         
	        Rob Parrish, Justin Turney, Andy Simmonett,      
	           Ed Hohenstein, and C. David Sherrill          
	 --------------------------------------------------------

   => Auxiliary Basis Set <=

  Basis Set: (AUG-CC-PVTZ AUX)
    Blend: DEF2-QZVPP-RI
    Number of shells: 91
    Number of basis functions: 365
    Number of Cartesian functions: 476
    Spherical Harmonics?: true
    Max angular momentum: 4

	 --------------------------------------------------------
	                 NBF =   109, NAUX =   365
	 --------------------------------------------------------
	   CLASS    FOCC     OCC    AOCC    AVIR     VIR    FVIR
	   PAIRS       0      14      14      95      95       0
	 --------------------------------------------------------

	-----------------------------------------------------------
	 ==================> DF-MP2 Energies <==================== 
	-----------------------------------------------------------
	 Reference Energy          =    -760.5836973424220560 [Eh]
	 Singles Energy            =      -0.0000000000000000 [Eh]
	 Same-Spin Energy          =      -0.0283198363874655 [Eh]
	 Opposite-Spin Energy      =      -0.0688587274338600 [Eh]
	 Correlation Energy        =      -0.0971785638213254 [Eh]
	 Total Energy              =    -760.6808759062433865 [Eh]
	-----------------------------------------------------------
	 ================> DF-SCS-MP2 Energies <================== 
	-----------------------------------------------------------
	 SCS Same-Spin Scale       =       0.3333333333333333 [-]
	 SCS Opposite-Spin Scale   =       1.2000000000000000 [-]
	 SCS Same-Spin Energy      =      -0.0094399454624885 [Eh]
	 SCS Opposite-Spin Energy  =      -0.0826304729206320 [Eh]
	 SCS Correlation Energy    =      -0.0920704183831204 [Eh]
	 SCS Total Energy          =    -760.6757677608052290 [Eh]
	-----------------------------------------------------------


*** tstop() called on moses-razer at Wed Jan  3 22:55:19 2024
Module time:
	user time   =       7.29 seconds =       0.12 minutes
	system time =       0.71 seconds =       0.01 minutes
	total time  =          5 seconds =       0.08 minutes
Total time:
	user time   =      58.08 seconds =       0.97 minutes
	system time =       9.10 seconds =       0.15 minutes
	total time  =         37 seconds =       0.62 minutes

    Psi4 stopped on: Wednesday, 03 January 2024 10:55PM
    Psi4 wall time for execution: 0:00:13.35


  //>>>>>>>>>>>>>>>>>>>>>>>>>>>>>>>>>>>//
  //          ManyBody Results         //
  //<<<<<<<<<<<<<<<<<<<<<<<<<<<<<<<<<<<//


   ==> N-Body: Counterpoise Corrected (CP) energies <==

        n-Body     Total Energy            Interaction Energy                          N-body Contribution to Interaction Energy
                   [Eh]                    [Eh]                  [kcal/mol]            [Eh]                  [kcal/mol]
             1  N/A                         0.000000000000        0.000000000000        0.000000000000        0.000000000000
  FULL/RTN   2  N/A                         0.109899151416       68.962758673805        0.109899151416       68.962758673805


    Psi4 stopped on: Wednesday, 03 January 2024 10:55PM
    Psi4 wall time for execution: 0:00:38.83

*** Psi4 exiting successfully. Buy a developer a beer!
