
    -----------------------------------------------------------------------
          Psi4: An Open-Source Ab Initio Electronic Structure Package
                               Psi4 1.9 release

                         Git: Rev {} zzzzzzz 


    D. G. A. Smith, L. A. Burns, A. C. Simmonett, R. M. Parrish,
    M. C. Schieber, R. Galvelis, P. Kraus, H. Kruse, R. Di Remigio,
    A. Alenaizan, A. M. James, S. Lehtola, J. P. Misiewicz, M. Scheurer,
    R. A. Shaw, J. B. Schriber, Y. Xie, Z. L. Glick, D. A. Sirianni,
    J. S. O'Brien, J. M. Waldrop, A. Kumar, E. G. Hohenstein,
    B. P. Pritchard, B. R. Brooks, H. F. Schaefer III, A. Yu. Sokolov,
    K. Patkowski, A. E. DePrince III, U. Bozkaya, R. A. King,
    F. A. Evangelista, J. M. Turney, T. D. Crawford, C. D. Sherrill,
    J. Chem. Phys. 152(18) 184108 (2020). https://doi.org/10.1063/5.0006002

                            Additional Code Authors
    E. T. Seidl, C. L. Janssen, E. F. Valeev, M. L. Leininger,
    J. F. Gonthier, R. M. Richard, H. R. McAlexander, M. Saitow, X. Wang,
    P. Verma, M. H. Lechner, A. Jiang, S. Behnle, A. G. Heide,
    M. F. Herbst, and D. L. Poole

             Previous Authors, Complete List of Code Contributors,
                       and Citations for Specific Modules
    https://github.com/psi4/psi4/blob/master/codemeta.json
    https://github.com/psi4/psi4/graphs/contributors
    http://psicode.org/psi4manual/master/introduction.html#citing-psifour

    -----------------------------------------------------------------------


    Psi4 started on: Wednesday, 03 January 2024 11:05PM

    Process ID: 448272
    Host:       moses-razer
    PSIDATADIR: /home/kchung25/anaconda3/envs/psi4_19/share/psi4
    Memory:     500.0 MiB
    Threads:    6
    
  ==> Input File <==

--------------------------------------------------------------------------
MEMORY 60 GB

molecule dimer {
-1 1
F      0.000000     0.000000     0.000000
--
-1 1
Br     3.290000     0.000000     0.000000

units ang
no_reorient
no_com
symmetry c1
}

set {
basis        aug-cc-pVTZ
scf_type     df
}

energy("mp2", bsse_type="cp")
--------------------------------------------------------------------------

  Memory set to  55.879 GiB by Python driver.

Scratch directory: /scratch/

  //>>>>>>>>>>>>>>>>>>>>>>>>>>>>>>>>>>>>>//
  // ManyBody Setup: N-Body Levels [1, 2]//
  //<<<<<<<<<<<<<<<<<<<<<<<<<<<<<<<<<<<<<//

        Number of 1-body computations:     2
        Number of 2-body computations:     1

    -----------------------------------------------------------------------
          Psi4: An Open-Source Ab Initio Electronic Structure Package
                               Psi4 1.9 release

                         Git: Rev {} zzzzzzz 


    D. G. A. Smith, L. A. Burns, A. C. Simmonett, R. M. Parrish,
    M. C. Schieber, R. Galvelis, P. Kraus, H. Kruse, R. Di Remigio,
    A. Alenaizan, A. M. James, S. Lehtola, J. P. Misiewicz, M. Scheurer,
    R. A. Shaw, J. B. Schriber, Y. Xie, Z. L. Glick, D. A. Sirianni,
    J. S. O'Brien, J. M. Waldrop, A. Kumar, E. G. Hohenstein,
    B. P. Pritchard, B. R. Brooks, H. F. Schaefer III, A. Yu. Sokolov,
    K. Patkowski, A. E. DePrince III, U. Bozkaya, R. A. King,
    F. A. Evangelista, J. M. Turney, T. D. Crawford, C. D. Sherrill,
    J. Chem. Phys. 152(18) 184108 (2020). https://doi.org/10.1063/5.0006002

                            Additional Code Authors
    E. T. Seidl, C. L. Janssen, E. F. Valeev, M. L. Leininger,
    J. F. Gonthier, R. M. Richard, H. R. McAlexander, M. Saitow, X. Wang,
    P. Verma, M. H. Lechner, A. Jiang, S. Behnle, A. G. Heide,
    M. F. Herbst, and D. L. Poole

             Previous Authors, Complete List of Code Contributors,
                       and Citations for Specific Modules
    https://github.com/psi4/psi4/blob/master/codemeta.json
    https://github.com/psi4/psi4/graphs/contributors
    http://psicode.org/psi4manual/master/introduction.html#citing-psifour

    -----------------------------------------------------------------------


    Psi4 started on: Wednesday, 03 January 2024 11:05PM

    Process ID: 448272
    Host:       moses-razer
    PSIDATADIR: /home/kchung25/anaconda3/envs/psi4_19/share/psi4
    Memory:     55.9 GiB
    Threads:    6
    
  ==> Input QCSchema <==

--------------------------------------------------------------------------
{'driver': 'energy',
 'extras': {'psiapi': True, 'wfn_qcvars_only': True},
 'id': None,
 'keywords': {'SCF_TYPE': 'DF', 'function_kwargs': {}},
 'model': {'basis': 'aug-cc-pvtz', 'method': 'mp2'},
 'molecule': {'atom_labels': ['', ''],
              'atomic_numbers': [9, 35],
              'extras': {},
              'fix_com': True,
              'fix_orientation': True,
              'fix_symmetry': 'c1',
              'fragment_charges': [0.0, -1.0],
              'fragment_multiplicities': [1, 1],
              'fragments': [[0], [1]],
              'geometry': [0.0, 0.0, 0.0, 6.217198952756255, 0.0, 0.0],
              'mass_numbers': [19, 79],
              'masses': [18.99840316273, 78.9183376],
              'molecular_charge': -1.0,
              'molecular_multiplicity': 1,
              'name': 'dimer',
              'provenance': {'creator': 'QCElemental',
                             'routine': 'qcelemental.molparse.from_string',
                             'version': '0.27.1'},
              'real': [False, True],
              'schema_name': 'qcschema_molecule',
              'schema_version': 2,
              'symbols': ['F', 'Br'],
              'validated': True},
 'protocols': {'stdout': True},
 'provenance': {'creator': 'QCElemental', 'routine': 'qcelemental.models.results', 'version': '0.27.1'},
 'schema_name': 'qcschema_input',
 'schema_version': 1}
--------------------------------------------------------------------------

Scratch directory: /scratch/
   => Libint2 <=

    Primary   basis highest AM E, G, H:  5, 4, 3
    Auxiliary basis highest AM E, G, H:  6, 5, 4
    Onebody   basis highest AM E, G, H:  6, 5, 4
    Solid Harmonics ordering:            gaussian

*** tstart() called on moses-razer
*** at Wed Jan  3 23:05:10 2024

   => Loading Basis Set <=

    Name: AUG-CC-PVTZ
    Role: ORBITAL
    Keyword: BASIS
    atoms 1 entry F          line   377 file /home/kchung25/anaconda3/envs/p415env/share/psi4/basis/aug-cc-pvtz.gbs 
    atoms 2 entry BR         line  4564 file /home/kchung25/anaconda3/envs/p415env/share/psi4/basis/aug-cc-pvtz.gbs 


         ---------------------------------------------------------
                                   SCF
               by Justin Turney, Rob Parrish, Andy Simmonett
                          and Daniel G. A. Smith
                              RHF Reference
                        6 Threads,  57220 MiB Core
         ---------------------------------------------------------

  ==> Geometry <==

    Molecular point group: c1
    Full point group: C_inf_v

    Geometry (in Bohr), charge = -1, multiplicity = 1:

       Center              X                  Y                   Z               Mass       
    ------------   -----------------  -----------------  -----------------  -----------------
      Gh(F)           0.000000000000     0.000000000000     0.000000000000    18.998403162730
         BR           6.217198952756     0.000000000000     0.000000000000    78.918337600000

  Running in c1 symmetry.

  Rotational constants: A = ************  B =      0.01973  C =      0.01973 [cm^-1]
  Rotational constants: A = ************  B =    591.62630  C =    591.62630 [MHz]
  Nuclear repulsion =    0.000000000000000

  Charge       = -1
  Multiplicity = 1
  Electrons    = 36
  Nalpha       = 18
  Nbeta        = 18

  ==> Algorithm <==

  SCF Algorithm Type is DF.
  DIIS enabled.
  MOM disabled.
  Fractional occupation disabled.
  Guess Type is SAD.
  Energy threshold   = 1.00e-08
  Density threshold  = 1.00e-08
  Integral threshold = 1.00e-12

  ==> Primary Basis <==

  Basis Set: AUG-CC-PVTZ
    Blend: AUG-CC-PVTZ
    Number of shells: 33
    Number of basis functions: 105
    Number of Cartesian functions: 124
    Spherical Harmonics?: true
    Max angular momentum: 3

   => Loading Basis Set <=

    Name: (AUG-CC-PVTZ AUX)
    Role: JKFIT
    Keyword: DF_BASIS_SCF
    atoms 1 entry F          line   348 file /home/kchung25/anaconda3/envs/p415env/share/psi4/basis/aug-cc-pvtz-jkfit.gbs 
    atoms 2 entry BR         line  1492 file /home/kchung25/anaconda3/envs/p415env/share/psi4/basis/aug-cc-pvtz-jkfit.gbs 

  ==> Integral Setup <==

  DFHelper Memory: AOs need 0.032 GiB; user supplied 41.910 GiB. 
  Using in-core AOs.

  ==> MemDFJK: Density-Fitted J/K Matrices <==

    J tasked:                   Yes
    K tasked:                   Yes
    wK tasked:                   No
    OpenMP threads:               6
    Memory [MiB]:             42915
    Algorithm:                 Core
    Schwarz Cutoff:           1E-12
    Mask sparsity (%):       1.3968
    Fitting Condition:        1E-10

   => Auxiliary Basis Set <=

  Basis Set: (AUG-CC-PVTZ AUX)
    Blend: AUG-CC-PVTZ-JKFIT
    Number of shells: 88
    Number of basis functions: 352
    Number of Cartesian functions: 460
    Spherical Harmonics?: true
    Max angular momentum: 4

  Minimum eigenvalue in the overlap matrix is 7.2834516803E-03.
  Reciprocal condition number of the overlap matrix is 2.1337220874E-03.
    Using symmetric orthogonalization.

  ==> Pre-Iterations <==

  SCF Guess: Superposition of Atomic Densities via on-the-fly atomic UHF (no occupation information).

   -------------------------
    Irrep   Nso     Nmo    
   -------------------------
     A        105     105 
   -------------------------
    Total     105     105
   -------------------------

  ==> Iterations <==

                           Total Energy        Delta E     RMS |[F,P]|

   @DF-RHF iter SAD: -2570.41423521499519   -2.57041e+03   0.00000e+00 
   @DF-RHF iter   1: -2572.25589568465011   -1.84166e+00   9.97000e-03 ADIIS/DIIS
   @DF-RHF iter   2: -2572.46486929005641   -2.08974e-01   5.52905e-03 ADIIS/DIIS
   @DF-RHF iter   3: -2572.53361915923142   -6.87499e-02   1.23282e-04 ADIIS/DIIS
   @DF-RHF iter   4: -2572.53366807541488   -4.89162e-05   1.06188e-05 DIIS
   @DF-RHF iter   5: -2572.53366899327148   -9.17857e-07   2.52066e-06 DIIS
   @DF-RHF iter   6: -2572.53366904821451   -5.49430e-08   4.32558e-07 DIIS
   @DF-RHF iter   7: -2572.53366905352141   -5.30690e-09   2.63156e-08 DIIS
   @DF-RHF iter   8: -2572.53366905353278   -1.13687e-11   4.10536e-09 DIIS
  Energy and wave function converged.


  ==> Post-Iterations <==

    Orbital Energies [Eh]
    ---------------------

    Doubly Occupied:                                                      

       1A   -489.720378     2A    -64.860465     3A    -58.214932  
       4A    -58.214932     5A    -58.214932     6A     -9.532857  
       7A     -7.140197     8A     -7.140197     9A     -7.140193  
      10A     -2.881863    11A     -2.881863    12A     -2.881862  
      13A     -2.881862    14A     -2.881858    15A     -0.685999  
      16A     -0.139337    17A     -0.139335    18A     -0.139335  

    Virtual:                                                              

      19A      0.218631    20A      0.251260    21A      0.251260  
      22A      0.265280    23A      0.314570    24A      0.323369  
      25A      0.323369    26A      0.394066    27A      0.490720  
      28A      0.490720    29A      0.513573    30A      0.513573  
      31A      0.560330    32A      0.739196    33A      0.739196  
      34A      0.767796    35A      0.889897    36A      0.920954  
      37A      0.962148    38A      0.962148    39A      0.988375  
      40A      1.031421    41A      1.031421    42A      1.041307  
      43A      1.041307    44A      1.058806    45A      1.099669  
      46A      1.099669    47A      1.108458    48A      1.108458  
      49A      1.210050    50A      1.210050    51A      1.216033  
      52A      1.216033    53A      1.216629    54A      1.317762  
      55A      1.317762    56A      1.540049    57A      2.410066  
      58A      2.410066    59A      2.450380    60A      2.566652  
      61A      2.566652    62A      2.573205    63A      2.573205  
      64A      2.583531    65A      2.585765    66A      2.585765  
      67A      2.586035    68A      2.586035    69A      2.609854  
      70A      2.609854    71A      2.702648    72A      3.180081  
      73A      3.180081    74A      3.214039    75A      3.238248  
      76A      3.238248    77A      3.243195    78A      3.243195  
      79A      3.263630    80A      3.263630    81A      3.288368  
      82A      3.324469    83A      3.703877    84A      3.703877  
      85A      3.731657    86A      3.754073    87A      3.754073  
      88A      4.004734    89A      9.463857    90A     10.312684  
      91A     10.312684    92A     10.314675    93A     10.314675  
      94A     10.321982    95A     10.321982    96A     10.339546  
      97A     13.101064    98A     13.101064    99A     13.125106  
     100A     13.125106   101A     13.201826   102A     14.372288  
     103A     14.372288   104A     14.440438   105A     67.019355  

    Final Occupation by Irrep:
              A 
    DOCC [    18 ]
    NA   [    18 ]
    NB   [    18 ]

  @DF-RHF Final Energy: -2572.53366905353278

   => Energetics <=

    Nuclear Repulsion Energy =              0.0000000000000000
    One-Electron Energy =               -3593.6825481238215616
    Two-Electron Energy =                1021.1488790702885581
    Total Energy =                      -2572.5336690535332309

Computation Completed


Properties will be evaluated at   0.000000,   0.000000,   0.000000 [a0]

Properties computed using the SCF density matrix


 Multipole Moments:

 ------------------------------------------------------------------------------------
     Multipole            Electronic (a.u.)      Nuclear  (a.u.)        Total (a.u.)
 ------------------------------------------------------------------------------------

 L = 1.  Multiply by 2.5417464519 to convert [e a0] to [Debye]
 Dipole X            :       -223.8189983          217.6019633           -6.2170350
 Dipole Y            :         -0.0000000            0.0000000           -0.0000000
 Dipole Z            :         -0.0000000            0.0000000           -0.0000000
 Magnitude           :                                                    6.2170350

 ------------------------------------------------------------------------------------

*** tstop() called on moses-razer at Wed Jan  3 23:05:12 2024
Module time:
	user time   =       7.28 seconds =       0.12 minutes
	system time =       1.06 seconds =       0.02 minutes
	total time  =          2 seconds =       0.03 minutes
Total time:
	user time   =       7.28 seconds =       0.12 minutes
	system time =       1.06 seconds =       0.02 minutes
	total time  =          2 seconds =       0.03 minutes

*** tstart() called on moses-razer
*** at Wed Jan  3 23:05:12 2024


  //>>>>>>>>>>>>>>>>>>>>>>>>>>>>>>>>>>>//
  //               DFMP2               //
  //<<<<<<<<<<<<<<<<<<<<<<<<<<<<<<<<<<<//

   => Loading Basis Set <=

    Name: (AUG-CC-PVTZ AUX)
    Role: RIFIT
    Keyword: DF_BASIS_MP2
    atoms 1 entry F          line   322 file /home/kchung25/anaconda3/envs/p415env/share/psi4/basis/aug-cc-pvtz-ri.gbs 
    atoms 2 entry BR         line  1248 file /home/kchung25/anaconda3/envs/p415env/share/psi4/basis/aug-cc-pvtz-ri.gbs 

	 --------------------------------------------------------
	                          DF-MP2                         
	      2nd-Order Density-Fitted Moller-Plesset Theory     
	              RMP2 Wavefunction,   6 Threads             
	                                                         
	        Rob Parrish, Justin Turney, Andy Simmonett,      
	           Ed Hohenstein, and C. David Sherrill          
	 --------------------------------------------------------

   => Auxiliary Basis Set <=

  Basis Set: (AUG-CC-PVTZ AUX)
    Blend: AUG-CC-PVTZ-RI
    Number of shells: 71
    Number of basis functions: 297
    Number of Cartesian functions: 397
    Spherical Harmonics?: true
    Max angular momentum: 5

	 --------------------------------------------------------
	                 NBF =   105, NAUX =   297
	 --------------------------------------------------------
	   CLASS    FOCC     OCC    AOCC    AVIR     VIR    FVIR
	   PAIRS       0      18      18      87      87       0
	 --------------------------------------------------------

	-----------------------------------------------------------
	 ==================> DF-MP2 Energies <==================== 
	-----------------------------------------------------------
	 Reference Energy          =   -2572.5336690535327762 [Eh]
	 Singles Energy            =      -0.0000000000000000 [Eh]
	 Same-Spin Energy          =      -0.0868269148442629 [Eh]
	 Opposite-Spin Energy      =      -0.2013332404479547 [Eh]
	 Correlation Energy        =      -0.2881601552922176 [Eh]
	 Total Energy              =   -2572.8218292088249655 [Eh]
	-----------------------------------------------------------
	 ================> DF-SCS-MP2 Energies <================== 
	-----------------------------------------------------------
	 SCS Same-Spin Scale       =       0.3333333333333333 [-]
	 SCS Opposite-Spin Scale   =       1.2000000000000000 [-]
	 SCS Same-Spin Energy      =      -0.0289423049480876 [Eh]
	 SCS Opposite-Spin Energy  =      -0.2415998885375456 [Eh]
	 SCS Correlation Energy    =      -0.2705421934856332 [Eh]
	 SCS Total Energy          =   -2572.8042112470184293 [Eh]
	-----------------------------------------------------------


*** tstop() called on moses-razer at Wed Jan  3 23:05:14 2024
Module time:
	user time   =       2.79 seconds =       0.05 minutes
	system time =       0.32 seconds =       0.01 minutes
	total time  =          2 seconds =       0.03 minutes
Total time:
	user time   =      10.08 seconds =       0.17 minutes
	system time =       1.38 seconds =       0.02 minutes
	total time  =          4 seconds =       0.07 minutes

    Psi4 stopped on: Wednesday, 03 January 2024 11:05PM
    Psi4 wall time for execution: 0:00:03.97


    -----------------------------------------------------------------------
          Psi4: An Open-Source Ab Initio Electronic Structure Package
                               Psi4 1.9 release

                         Git: Rev {} zzzzzzz 


    D. G. A. Smith, L. A. Burns, A. C. Simmonett, R. M. Parrish,
    M. C. Schieber, R. Galvelis, P. Kraus, H. Kruse, R. Di Remigio,
    A. Alenaizan, A. M. James, S. Lehtola, J. P. Misiewicz, M. Scheurer,
    R. A. Shaw, J. B. Schriber, Y. Xie, Z. L. Glick, D. A. Sirianni,
    J. S. O'Brien, J. M. Waldrop, A. Kumar, E. G. Hohenstein,
    B. P. Pritchard, B. R. Brooks, H. F. Schaefer III, A. Yu. Sokolov,
    K. Patkowski, A. E. DePrince III, U. Bozkaya, R. A. King,
    F. A. Evangelista, J. M. Turney, T. D. Crawford, C. D. Sherrill,
    J. Chem. Phys. 152(18) 184108 (2020). https://doi.org/10.1063/5.0006002

                            Additional Code Authors
    E. T. Seidl, C. L. Janssen, E. F. Valeev, M. L. Leininger,
    J. F. Gonthier, R. M. Richard, H. R. McAlexander, M. Saitow, X. Wang,
    P. Verma, M. H. Lechner, A. Jiang, S. Behnle, A. G. Heide,
    M. F. Herbst, and D. L. Poole

             Previous Authors, Complete List of Code Contributors,
                       and Citations for Specific Modules
    https://github.com/psi4/psi4/blob/master/codemeta.json
    https://github.com/psi4/psi4/graphs/contributors
    http://psicode.org/psi4manual/master/introduction.html#citing-psifour

    -----------------------------------------------------------------------


    Psi4 started on: Wednesday, 03 January 2024 11:05PM

    Process ID: 448272
    Host:       moses-razer
    PSIDATADIR: /home/kchung25/anaconda3/envs/psi4_19/share/psi4
    Memory:     55.9 GiB
    Threads:    6
    
  ==> Input QCSchema <==

--------------------------------------------------------------------------
{'driver': 'energy',
 'extras': {'psiapi': True, 'wfn_qcvars_only': True},
 'id': None,
 'keywords': {'SCF_TYPE': 'DF', 'function_kwargs': {}},
 'model': {'basis': 'aug-cc-pvtz', 'method': 'mp2'},
 'molecule': {'atom_labels': ['', ''],
              'atomic_numbers': [9, 35],
              'extras': {},
              'fix_com': True,
              'fix_orientation': True,
              'fix_symmetry': 'c1',
              'fragment_charges': [-1.0, 0.0],
              'fragment_multiplicities': [1, 1],
              'fragments': [[0], [1]],
              'geometry': [0.0, 0.0, 0.0, 6.217198952756255, 0.0, 0.0],
              'mass_numbers': [19, 79],
              'masses': [18.99840316273, 78.9183376],
              'molecular_charge': -1.0,
              'molecular_multiplicity': 1,
              'name': 'dimer',
              'provenance': {'creator': 'QCElemental',
                             'routine': 'qcelemental.molparse.from_string',
                             'version': '0.27.1'},
              'real': [True, False],
              'schema_name': 'qcschema_molecule',
              'schema_version': 2,
              'symbols': ['F', 'Br'],
              'validated': True},
 'protocols': {'stdout': True},
 'provenance': {'creator': 'QCElemental', 'routine': 'qcelemental.models.results', 'version': '0.27.1'},
 'schema_name': 'qcschema_input',
 'schema_version': 1}
--------------------------------------------------------------------------

Scratch directory: /scratch/
   => Libint2 <=

    Primary   basis highest AM E, G, H:  5, 4, 3
    Auxiliary basis highest AM E, G, H:  6, 5, 4
    Onebody   basis highest AM E, G, H:  6, 5, 4
    Solid Harmonics ordering:            gaussian

*** tstart() called on moses-razer
*** at Wed Jan  3 23:05:14 2024

   => Loading Basis Set <=

    Name: AUG-CC-PVTZ
    Role: ORBITAL
    Keyword: BASIS
    atoms 1 entry F          line   377 file /home/kchung25/anaconda3/envs/p415env/share/psi4/basis/aug-cc-pvtz.gbs 
    atoms 2 entry BR         line  4564 file /home/kchung25/anaconda3/envs/p415env/share/psi4/basis/aug-cc-pvtz.gbs 


         ---------------------------------------------------------
                                   SCF
               by Justin Turney, Rob Parrish, Andy Simmonett
                          and Daniel G. A. Smith
                              RHF Reference
                        6 Threads,  57220 MiB Core
         ---------------------------------------------------------

  ==> Geometry <==

    Molecular point group: c1
    Full point group: C_inf_v

    Geometry (in Bohr), charge = -1, multiplicity = 1:

       Center              X                  Y                   Z               Mass       
    ------------   -----------------  -----------------  -----------------  -----------------
         F            0.000000000000     0.000000000000     0.000000000000    18.998403162730
      Gh(BR)          6.217198952756     0.000000000000     0.000000000000    78.918337600000

  Running in c1 symmetry.

  Rotational constants: A = ************  B =      0.01973  C =      0.01973 [cm^-1]
  Rotational constants: A = ************  B =    591.62630  C =    591.62630 [MHz]
  Nuclear repulsion =    0.000000000000000

  Charge       = -1
  Multiplicity = 1
  Electrons    = 10
  Nalpha       = 5
  Nbeta        = 5

  ==> Algorithm <==

  SCF Algorithm Type is DF.
  DIIS enabled.
  MOM disabled.
  Fractional occupation disabled.
  Guess Type is SAD.
  Energy threshold   = 1.00e-08
  Density threshold  = 1.00e-08
  Integral threshold = 1.00e-12

  ==> Primary Basis <==

  Basis Set: AUG-CC-PVTZ
    Blend: AUG-CC-PVTZ
    Number of shells: 33
    Number of basis functions: 105
    Number of Cartesian functions: 124
    Spherical Harmonics?: true
    Max angular momentum: 3

   => Loading Basis Set <=

    Name: (AUG-CC-PVTZ AUX)
    Role: JKFIT
    Keyword: DF_BASIS_SCF
    atoms 1 entry F          line   348 file /home/kchung25/anaconda3/envs/p415env/share/psi4/basis/aug-cc-pvtz-jkfit.gbs 
    atoms 2 entry BR         line  1492 file /home/kchung25/anaconda3/envs/p415env/share/psi4/basis/aug-cc-pvtz-jkfit.gbs 

  ==> Integral Setup <==

  DFHelper Memory: AOs need 0.032 GiB; user supplied 41.910 GiB. 
  Using in-core AOs.

  ==> MemDFJK: Density-Fitted J/K Matrices <==

    J tasked:                   Yes
    K tasked:                   Yes
    wK tasked:                   No
    OpenMP threads:               6
    Memory [MiB]:             42915
    Algorithm:                 Core
    Schwarz Cutoff:           1E-12
    Mask sparsity (%):       1.3968
    Fitting Condition:        1E-10

   => Auxiliary Basis Set <=

  Basis Set: (AUG-CC-PVTZ AUX)
    Blend: AUG-CC-PVTZ-JKFIT
    Number of shells: 88
    Number of basis functions: 352
    Number of Cartesian functions: 460
    Spherical Harmonics?: true
    Max angular momentum: 4

  Minimum eigenvalue in the overlap matrix is 7.2834516803E-03.
  Reciprocal condition number of the overlap matrix is 2.1337220874E-03.
    Using symmetric orthogonalization.

  ==> Pre-Iterations <==

  SCF Guess: Superposition of Atomic Densities via on-the-fly atomic UHF (no occupation information).

   -------------------------
    Irrep   Nso     Nmo    
   -------------------------
     A        105     105 
   -------------------------
    Total     105     105
   -------------------------

  ==> Iterations <==

                           Total Energy        Delta E     RMS |[F,P]|

   @DF-RHF iter SAD:   -98.82535129559014   -9.88254e+01   0.00000e+00 
   @DF-RHF iter   1:   -99.33790119209196   -5.12550e-01   5.20160e-03 ADIIS/DIIS
   @DF-RHF iter   2:   -99.37442822406045   -3.65270e-02   5.04326e-03 ADIIS/DIIS
   @DF-RHF iter   3:   -99.45075334756572   -7.63251e-02   1.49541e-04 ADIIS/DIIS
   @DF-RHF iter   4:   -99.45081193627756   -5.85887e-05   5.87174e-05 DIIS
   @DF-RHF iter   5:   -99.45082177801918   -9.84174e-06   4.69897e-06 DIIS
   @DF-RHF iter   6:   -99.45082191532295   -1.37304e-07   3.13677e-07 DIIS
   @DF-RHF iter   7:   -99.45082191605408   -7.31134e-10   4.08014e-08 DIIS
   @DF-RHF iter   8:   -99.45082191608735   -3.32676e-11   1.02809e-08 DIIS
   @DF-RHF iter   9:   -99.45082191608971   -2.35900e-12   1.59906e-09 DIIS
  Energy and wave function converged.


  ==> Post-Iterations <==

    Orbital Energies [Eh]
    ---------------------

    Doubly Occupied:                                                      

       1A    -25.833758     2A     -1.076046     3A     -0.180980  
       4A     -0.180976     5A     -0.180976  

    Virtual:                                                              

       6A      0.169049     7A      0.198265     8A      0.198265  
       9A      0.241879    10A      0.415446    11A      0.429710  
      12A      0.443787    13A      0.443787    14A      0.458751  
      15A      0.458751    16A      0.470350    17A      0.470350  
      18A      0.495133    19A      0.530439    20A      0.530439  
      21A      0.549734    22A      0.694191    23A      1.132369  
      24A      1.132369    25A      1.132605    26A      1.159379  
      27A      1.159379    28A      1.161369    29A      1.193606  
      30A      1.193606    31A      1.207008    32A      1.207008  
      33A      1.209289    34A      1.250171    35A      1.250171  
      36A      1.270409    37A      1.270409    38A      1.291270  
      39A      1.291270    40A      1.359475    41A      1.386690  
      42A      1.386690    43A      1.452639    44A      1.540024  
      45A      1.540024    46A      1.763987    47A      2.203742  
      48A      2.980245    49A      3.016810    50A      3.016810  
      51A      3.067779    52A      3.235094    53A      3.235094  
      54A      3.265053    55A      3.265053    56A      3.276961  
      57A      3.279086    58A      3.279086    59A      3.300061  
      60A      3.300061    61A      3.314835    62A      3.314835  
      63A      3.332134    64A      3.332134    65A      3.337818  
      66A      3.337818    67A      3.345594    68A      3.433354  
      69A      3.433354    70A      3.449290    71A      3.449290  
      72A      3.469862    73A      3.469862    74A      3.496951  
      75A      3.651002    76A      5.682191    77A      5.682191  
      78A      5.757838    79A      9.248271    80A      9.275670  
      81A      9.275670    82A      9.276105    83A      9.276105  
      84A      9.281935    85A      9.281935    86A      9.340307  
      87A      9.757933    88A      9.757933    89A      9.782381  
      90A      9.782381    91A      9.872471    92A     11.301159  
      93A     13.609730    94A     13.609730    95A     13.663908  
      96A     26.295036    97A     26.295036    98A     26.310237  
      99A     26.310237   100A     26.342718   101A     45.319136  
     102A    138.556185   103A    138.556185   104A    138.638802  
     105A    707.927972  

    Final Occupation by Irrep:
              A 
    DOCC [     5 ]
    NA   [     5 ]
    NB   [     5 ]

  @DF-RHF Final Energy:   -99.45082191608971

   => Energetics <=

    Nuclear Repulsion Energy =              0.0000000000000000
    One-Electron Energy =                -143.9961686052707819
    Two-Electron Energy =                  44.5453466891810663
    Total Energy =                        -99.4508219160897227

Computation Completed


Properties will be evaluated at   0.000000,   0.000000,   0.000000 [a0]

Properties computed using the SCF density matrix


 Multipole Moments:

 ------------------------------------------------------------------------------------
     Multipole            Electronic (a.u.)      Nuclear  (a.u.)        Total (a.u.)
 ------------------------------------------------------------------------------------

 L = 1.  Multiply by 2.5417464519 to convert [e a0] to [Debye]
 Dipole X            :         -0.0010337            0.0000000           -0.0010337
 Dipole Y            :          0.0000000            0.0000000            0.0000000
 Dipole Z            :          0.0000000            0.0000000            0.0000000
 Magnitude           :                                                    0.0010337

 ------------------------------------------------------------------------------------

*** tstop() called on moses-razer at Wed Jan  3 23:05:15 2024
Module time:
	user time   =       4.69 seconds =       0.08 minutes
	system time =       0.47 seconds =       0.01 minutes
	total time  =          1 seconds =       0.02 minutes
Total time:
	user time   =      14.99 seconds =       0.25 minutes
	system time =       1.85 seconds =       0.03 minutes
	total time  =          5 seconds =       0.08 minutes

*** tstart() called on moses-razer
*** at Wed Jan  3 23:05:15 2024


  //>>>>>>>>>>>>>>>>>>>>>>>>>>>>>>>>>>>//
  //               DFMP2               //
  //<<<<<<<<<<<<<<<<<<<<<<<<<<<<<<<<<<<//

   => Loading Basis Set <=

    Name: (AUG-CC-PVTZ AUX)
    Role: RIFIT
    Keyword: DF_BASIS_MP2
    atoms 1 entry F          line   322 file /home/kchung25/anaconda3/envs/p415env/share/psi4/basis/aug-cc-pvtz-ri.gbs 
    atoms 2 entry BR         line  1248 file /home/kchung25/anaconda3/envs/p415env/share/psi4/basis/aug-cc-pvtz-ri.gbs 

	 --------------------------------------------------------
	                          DF-MP2                         
	      2nd-Order Density-Fitted Moller-Plesset Theory     
	              RMP2 Wavefunction,   6 Threads             
	                                                         
	        Rob Parrish, Justin Turney, Andy Simmonett,      
	           Ed Hohenstein, and C. David Sherrill          
	 --------------------------------------------------------

   => Auxiliary Basis Set <=

  Basis Set: (AUG-CC-PVTZ AUX)
    Blend: AUG-CC-PVTZ-RI
    Number of shells: 71
    Number of basis functions: 297
    Number of Cartesian functions: 397
    Spherical Harmonics?: true
    Max angular momentum: 5

	 --------------------------------------------------------
	                 NBF =   105, NAUX =   297
	 --------------------------------------------------------
	   CLASS    FOCC     OCC    AOCC    AVIR     VIR    FVIR
	   PAIRS       0       5       5     100     100       0
	 --------------------------------------------------------

	-----------------------------------------------------------
	 ==================> DF-MP2 Energies <==================== 
	-----------------------------------------------------------
	 Reference Energy          =     -99.4508219160897085 [Eh]
	 Singles Energy            =      -0.0000000000000000 [Eh]
	 Same-Spin Energy          =      -0.0815841904182458 [Eh]
	 Opposite-Spin Energy      =      -0.2263671786926124 [Eh]
	 Correlation Energy        =      -0.3079513691108582 [Eh]
	 Total Energy              =     -99.7587732852005615 [Eh]
	-----------------------------------------------------------
	 ================> DF-SCS-MP2 Energies <================== 
	-----------------------------------------------------------
	 SCS Same-Spin Scale       =       0.3333333333333333 [-]
	 SCS Opposite-Spin Scale   =       1.2000000000000000 [-]
	 SCS Same-Spin Energy      =      -0.0271947301394153 [Eh]
	 SCS Opposite-Spin Energy  =      -0.2716406144311349 [Eh]
	 SCS Correlation Energy    =      -0.2988353445705501 [Eh]
	 SCS Total Energy          =     -99.7496572606602570 [Eh]
	-----------------------------------------------------------


*** tstop() called on moses-razer at Wed Jan  3 23:05:17 2024
Module time:
	user time   =       2.67 seconds =       0.04 minutes
	system time =       0.30 seconds =       0.01 minutes
	total time  =          2 seconds =       0.03 minutes
Total time:
	user time   =      17.66 seconds =       0.29 minutes
	system time =       2.15 seconds =       0.04 minutes
	total time  =          7 seconds =       0.12 minutes

    Psi4 stopped on: Wednesday, 03 January 2024 11:05PM
    Psi4 wall time for execution: 0:00:02.99


    -----------------------------------------------------------------------
          Psi4: An Open-Source Ab Initio Electronic Structure Package
                               Psi4 1.9 release

                         Git: Rev {} zzzzzzz 


    D. G. A. Smith, L. A. Burns, A. C. Simmonett, R. M. Parrish,
    M. C. Schieber, R. Galvelis, P. Kraus, H. Kruse, R. Di Remigio,
    A. Alenaizan, A. M. James, S. Lehtola, J. P. Misiewicz, M. Scheurer,
    R. A. Shaw, J. B. Schriber, Y. Xie, Z. L. Glick, D. A. Sirianni,
    J. S. O'Brien, J. M. Waldrop, A. Kumar, E. G. Hohenstein,
    B. P. Pritchard, B. R. Brooks, H. F. Schaefer III, A. Yu. Sokolov,
    K. Patkowski, A. E. DePrince III, U. Bozkaya, R. A. King,
    F. A. Evangelista, J. M. Turney, T. D. Crawford, C. D. Sherrill,
    J. Chem. Phys. 152(18) 184108 (2020). https://doi.org/10.1063/5.0006002

                            Additional Code Authors
    E. T. Seidl, C. L. Janssen, E. F. Valeev, M. L. Leininger,
    J. F. Gonthier, R. M. Richard, H. R. McAlexander, M. Saitow, X. Wang,
    P. Verma, M. H. Lechner, A. Jiang, S. Behnle, A. G. Heide,
    M. F. Herbst, and D. L. Poole

             Previous Authors, Complete List of Code Contributors,
                       and Citations for Specific Modules
    https://github.com/psi4/psi4/blob/master/codemeta.json
    https://github.com/psi4/psi4/graphs/contributors
    http://psicode.org/psi4manual/master/introduction.html#citing-psifour

    -----------------------------------------------------------------------


    Psi4 started on: Wednesday, 03 January 2024 11:05PM

    Process ID: 448272
    Host:       moses-razer
    PSIDATADIR: /home/kchung25/anaconda3/envs/psi4_19/share/psi4
    Memory:     55.9 GiB
    Threads:    6
    
  ==> Input QCSchema <==

--------------------------------------------------------------------------
{'driver': 'energy',
 'extras': {'psiapi': True, 'wfn_qcvars_only': True},
 'id': None,
 'keywords': {'SCF_TYPE': 'DF', 'function_kwargs': {}},
 'model': {'basis': 'aug-cc-pvtz', 'method': 'mp2'},
 'molecule': {'atom_labels': ['', ''],
              'atomic_numbers': [9, 35],
              'extras': {},
              'fix_com': True,
              'fix_orientation': True,
              'fix_symmetry': 'c1',
              'fragment_charges': [-1.0, -1.0],
              'fragment_multiplicities': [1, 1],
              'fragments': [[0], [1]],
              'geometry': [0.0, 0.0, 0.0, 6.217198952756255, 0.0, 0.0],
              'mass_numbers': [19, 79],
              'masses': [18.99840316273, 78.9183376],
              'molecular_charge': -2.0,
              'molecular_multiplicity': 1,
              'name': 'dimer',
              'provenance': {'creator': 'QCElemental',
                             'routine': 'qcelemental.molparse.from_string',
                             'version': '0.27.1'},
              'real': [True, True],
              'schema_name': 'qcschema_molecule',
              'schema_version': 2,
              'symbols': ['F', 'Br'],
              'validated': True},
 'protocols': {'stdout': True},
 'provenance': {'creator': 'QCElemental', 'routine': 'qcelemental.models.results', 'version': '0.27.1'},
 'schema_name': 'qcschema_input',
 'schema_version': 1}
--------------------------------------------------------------------------

Scratch directory: /scratch/
   => Libint2 <=

    Primary   basis highest AM E, G, H:  5, 4, 3
    Auxiliary basis highest AM E, G, H:  6, 5, 4
    Onebody   basis highest AM E, G, H:  6, 5, 4
    Solid Harmonics ordering:            gaussian

*** tstart() called on moses-razer
*** at Wed Jan  3 23:05:17 2024

   => Loading Basis Set <=

    Name: AUG-CC-PVTZ
    Role: ORBITAL
    Keyword: BASIS
    atoms 1 entry F          line   377 file /home/kchung25/anaconda3/envs/p415env/share/psi4/basis/aug-cc-pvtz.gbs 
    atoms 2 entry BR         line  4564 file /home/kchung25/anaconda3/envs/p415env/share/psi4/basis/aug-cc-pvtz.gbs 


         ---------------------------------------------------------
                                   SCF
               by Justin Turney, Rob Parrish, Andy Simmonett
                          and Daniel G. A. Smith
                              RHF Reference
                        6 Threads,  57220 MiB Core
         ---------------------------------------------------------

  ==> Geometry <==

    Molecular point group: c1
    Full point group: C_inf_v

    Geometry (in Bohr), charge = -2, multiplicity = 1:

       Center              X                  Y                   Z               Mass       
    ------------   -----------------  -----------------  -----------------  -----------------
         F            0.000000000000     0.000000000000     0.000000000000    18.998403162730
         BR           6.217198952756     0.000000000000     0.000000000000    78.918337600000

  Running in c1 symmetry.

  Rotational constants: A = ************  B =      0.01973  C =      0.01973 [cm^-1]
  Rotational constants: A = ************  B =    591.62630  C =    591.62630 [MHz]
  Nuclear repulsion =   50.665903149255314

  Charge       = -2
  Multiplicity = 1
  Electrons    = 46
  Nalpha       = 23
  Nbeta        = 23

  ==> Algorithm <==

  SCF Algorithm Type is DF.
  DIIS enabled.
  MOM disabled.
  Fractional occupation disabled.
  Guess Type is SAD.
  Energy threshold   = 1.00e-08
  Density threshold  = 1.00e-08
  Integral threshold = 1.00e-12

  ==> Primary Basis <==

  Basis Set: AUG-CC-PVTZ
    Blend: AUG-CC-PVTZ
    Number of shells: 33
    Number of basis functions: 105
    Number of Cartesian functions: 124
    Spherical Harmonics?: true
    Max angular momentum: 3

   => Loading Basis Set <=

    Name: (AUG-CC-PVTZ AUX)
    Role: JKFIT
    Keyword: DF_BASIS_SCF
    atoms 1 entry F          line   348 file /home/kchung25/anaconda3/envs/p415env/share/psi4/basis/aug-cc-pvtz-jkfit.gbs 
    atoms 2 entry BR         line  1492 file /home/kchung25/anaconda3/envs/p415env/share/psi4/basis/aug-cc-pvtz-jkfit.gbs 

  ==> Integral Setup <==

  DFHelper Memory: AOs need 0.032 GiB; user supplied 41.910 GiB. 
  Using in-core AOs.

  ==> MemDFJK: Density-Fitted J/K Matrices <==

    J tasked:                   Yes
    K tasked:                   Yes
    wK tasked:                   No
    OpenMP threads:               6
    Memory [MiB]:             42915
    Algorithm:                 Core
    Schwarz Cutoff:           1E-12
    Mask sparsity (%):       1.3968
    Fitting Condition:        1E-10

   => Auxiliary Basis Set <=

  Basis Set: (AUG-CC-PVTZ AUX)
    Blend: AUG-CC-PVTZ-JKFIT
    Number of shells: 88
    Number of basis functions: 352
    Number of Cartesian functions: 460
    Spherical Harmonics?: true
    Max angular momentum: 4

  Minimum eigenvalue in the overlap matrix is 7.2834516803E-03.
  Reciprocal condition number of the overlap matrix is 2.1337220874E-03.
    Using symmetric orthogonalization.

  ==> Pre-Iterations <==

  SCF Guess: Superposition of Atomic Densities via on-the-fly atomic UHF (no occupation information).

   -------------------------
    Irrep   Nso     Nmo    
   -------------------------
     A        105     105 
   -------------------------
    Total     105     105
   -------------------------

  ==> Iterations <==

                           Total Energy        Delta E     RMS |[F,P]|

   @DF-RHF iter SAD: -2669.24362166925266   -2.66924e+03   0.00000e+00 
   @DF-RHF iter   1: -2671.43041252919875   -2.18679e+00   1.12816e-02 ADIIS/DIIS
   @DF-RHF iter   2: -2671.67334150962006   -2.42929e-01   7.71727e-03 ADIIS/DIIS
   @DF-RHF iter   3: -2671.83447736530661   -1.61136e-01   8.89998e-04 ADIIS/DIIS
   @DF-RHF iter   4: -2671.83697578254623   -2.49842e-03   1.85454e-04 ADIIS/DIIS
   @DF-RHF iter   5: -2671.83708693187828   -1.11149e-04   2.51550e-05 DIIS
   @DF-RHF iter   6: -2671.83709327293764   -6.34106e-06   6.29771e-06 DIIS
   @DF-RHF iter   7: -2671.83709389554042   -6.22603e-07   1.72396e-06 DIIS
   @DF-RHF iter   8: -2671.83709396315362   -6.76132e-08   4.03379e-07 DIIS
   @DF-RHF iter   9: -2671.83709396732093   -4.16730e-09   1.12552e-07 DIIS
   @DF-RHF iter  10: -2671.83709396767108   -3.50155e-10   3.26470e-08 DIIS
   @DF-RHF iter  11: -2671.83709396769564   -2.45564e-11   6.69109e-09 DIIS
  Energy and wave function converged.


  ==> Post-Iterations <==

    Orbital Energies [Eh]
    ---------------------

    Doubly Occupied:                                                      

       1A   -489.577551     2A    -64.717371     3A    -58.071833  
       4A    -58.071833     5A    -58.071792     6A    -25.699093  
       7A     -9.389552     8A     -6.996898     9A     -6.996898  
      10A     -6.996475    11A     -2.738817    12A     -2.738817  
      13A     -2.738309    14A     -2.738309    15A     -2.738139  
      16A     -0.941633    17A     -0.539596    18A     -0.051232  
      19A     -0.046521    20A     -0.046521    21A      0.005464  
      22A      0.005464    23A      0.018981  

    Virtual:                                                              

      24A      0.362436    25A      0.367985    26A      0.367985  
      27A      0.424350    28A      0.546117    29A      0.575528  
      30A      0.575528    31A      0.625728    32A      0.625728  
      33A      0.666915    34A      0.666915    35A      0.681852  
      36A      0.778160    37A      0.878951    38A      0.878951  
      39A      0.953381    40A      1.055822    41A      1.174045  
      42A      1.174045    43A      1.195342    44A      1.195342  
      45A      1.206311    46A      1.295405    47A      1.295405  
      48A      1.337430    49A      1.337430    50A      1.350307  
      51A      1.350307    52A      1.361847    53A      1.384283  
      54A      1.384283    55A      1.509087    56A      1.509087  
      57A      1.562519    58A      1.670935    59A      1.670935  
      60A      1.866496    61A      2.335621    62A      2.552632  
      63A      2.552632    64A      2.597149    65A      2.708606  
      66A      2.708606    67A      2.722944    68A      2.722944  
      69A      2.727792    70A      2.727792    71A      2.731696  
      72A      2.731696    73A      2.747799    74A      2.754972  
      75A      2.754972    76A      2.876466    77A      3.419941  
      78A      3.419941    79A      3.449780    80A      3.449780  
      81A      3.464944    82A      3.464944    83A      3.465421  
      84A      3.467942    85A      3.467942    86A      3.503573  
      87A      3.503573    88A      3.605703    89A      3.994283  
      90A      5.816113    91A      5.816113    92A      5.893738  
      93A      9.409218    94A      9.409218    95A      9.410666  
      96A      9.410666    97A      9.417202    98A      9.417202  
      99A      9.430910   100A      9.891896   101A      9.891896  
     102A      9.917059   103A      9.917059   104A      9.993766  
     105A     11.435127  

    Final Occupation by Irrep:
              A 
    DOCC [    23 ]
    NA   [    23 ]
    NB   [    23 ]

  @DF-RHF Final Energy: -2671.83709396769564

   => Energetics <=

    Nuclear Repulsion Energy =             50.6659031492553140
    One-Electron Energy =               -3845.2514294112679636
    Two-Electron Energy =                1122.7484322943168991
    Total Energy =                      -2671.8370939676956368

Computation Completed


Properties will be evaluated at   0.000000,   0.000000,   0.000000 [a0]

Properties computed using the SCF density matrix


 Multipole Moments:

 ------------------------------------------------------------------------------------
     Multipole            Electronic (a.u.)      Nuclear  (a.u.)        Total (a.u.)
 ------------------------------------------------------------------------------------

 L = 1.  Multiply by 2.5417464519 to convert [e a0] to [Debye]
 Dipole X            :       -224.5012894          217.6019633           -6.8993260
 Dipole Y            :          0.0000000            0.0000000            0.0000000
 Dipole Z            :         -0.0000000            0.0000000           -0.0000000
 Magnitude           :                                                    6.8993260

 ------------------------------------------------------------------------------------

*** tstop() called on moses-razer at Wed Jan  3 23:05:19 2024
Module time:
	user time   =       7.27 seconds =       0.12 minutes
	system time =       1.03 seconds =       0.02 minutes
	total time  =          2 seconds =       0.03 minutes
Total time:
	user time   =      25.15 seconds =       0.42 minutes
	system time =       3.18 seconds =       0.05 minutes
	total time  =          9 seconds =       0.15 minutes

*** tstart() called on moses-razer
*** at Wed Jan  3 23:05:19 2024


  //>>>>>>>>>>>>>>>>>>>>>>>>>>>>>>>>>>>//
  //               DFMP2               //
  //<<<<<<<<<<<<<<<<<<<<<<<<<<<<<<<<<<<//

   => Loading Basis Set <=

    Name: (AUG-CC-PVTZ AUX)
    Role: RIFIT
    Keyword: DF_BASIS_MP2
    atoms 1 entry F          line   322 file /home/kchung25/anaconda3/envs/p415env/share/psi4/basis/aug-cc-pvtz-ri.gbs 
    atoms 2 entry BR         line  1248 file /home/kchung25/anaconda3/envs/p415env/share/psi4/basis/aug-cc-pvtz-ri.gbs 

	 --------------------------------------------------------
	                          DF-MP2                         
	      2nd-Order Density-Fitted Moller-Plesset Theory     
	              RMP2 Wavefunction,   6 Threads             
	                                                         
	        Rob Parrish, Justin Turney, Andy Simmonett,      
	           Ed Hohenstein, and C. David Sherrill          
	 --------------------------------------------------------

   => Auxiliary Basis Set <=

  Basis Set: (AUG-CC-PVTZ AUX)
    Blend: AUG-CC-PVTZ-RI
    Number of shells: 71
    Number of basis functions: 297
    Number of Cartesian functions: 397
    Spherical Harmonics?: true
    Max angular momentum: 5

	 --------------------------------------------------------
	                 NBF =   105, NAUX =   297
	 --------------------------------------------------------
	   CLASS    FOCC     OCC    AOCC    AVIR     VIR    FVIR
	   PAIRS       0      23      23      82      82       0
	 --------------------------------------------------------

	-----------------------------------------------------------
	 ==================> DF-MP2 Energies <==================== 
	-----------------------------------------------------------
	 Reference Energy          =   -2671.8370939676956368 [Eh]
	 Singles Energy            =      -0.0000000000000000 [Eh]
	 Same-Spin Energy          =      -0.1698249168177348 [Eh]
	 Opposite-Spin Energy      =      -0.4298222462777908 [Eh]
	 Correlation Energy        =      -0.5996471630955256 [Eh]
	 Total Energy              =   -2672.4367411307912334 [Eh]
	-----------------------------------------------------------
	 ================> DF-SCS-MP2 Energies <================== 
	-----------------------------------------------------------
	 SCS Same-Spin Scale       =       0.3333333333333333 [-]
	 SCS Opposite-Spin Scale   =       1.2000000000000000 [-]
	 SCS Same-Spin Energy      =      -0.0566083056059116 [Eh]
	 SCS Opposite-Spin Energy  =      -0.5157866955333489 [Eh]
	 SCS Correlation Energy    =      -0.5723950011392605 [Eh]
	 SCS Total Energy          =   -2672.4094889688349213 [Eh]
	-----------------------------------------------------------


*** tstop() called on moses-razer at Wed Jan  3 23:05:21 2024
Module time:
	user time   =       2.81 seconds =       0.05 minutes
	system time =       0.30 seconds =       0.00 minutes
	total time  =          2 seconds =       0.03 minutes
Total time:
	user time   =      27.97 seconds =       0.47 minutes
	system time =       3.48 seconds =       0.06 minutes
	total time  =         11 seconds =       0.18 minutes

    Psi4 stopped on: Wednesday, 03 January 2024 11:05PM
    Psi4 wall time for execution: 0:00:03.95


  //>>>>>>>>>>>>>>>>>>>>>>>>>>>>>>>>>>>//
  //          ManyBody Results         //
  //<<<<<<<<<<<<<<<<<<<<<<<<<<<<<<<<<<<//


   ==> N-Body: Counterpoise Corrected (CP) energies <==

        n-Body     Total Energy            Interaction Energy                          N-body Contribution to Interaction Energy
                   [Eh]                    [Eh]                  [kcal/mol]            [Eh]                  [kcal/mol]
             1  N/A                         0.000000000000        0.000000000000        0.000000000000        0.000000000000
  FULL/RTN   2  N/A                         0.143861363234       90.274368340178        0.143861363234       90.274368340178


    Psi4 stopped on: Wednesday, 03 January 2024 11:05PM
    Psi4 wall time for execution: 0:00:12.50

*** Psi4 exiting successfully. Buy a developer a beer!
