
    -----------------------------------------------------------------------
          Psi4: An Open-Source Ab Initio Electronic Structure Package
                               Psi4 1.9 release

                         Git: Rev {} zzzzzzz 


    D. G. A. Smith, L. A. Burns, A. C. Simmonett, R. M. Parrish,
    M. C. Schieber, R. Galvelis, P. Kraus, H. Kruse, R. Di Remigio,
    A. Alenaizan, A. M. James, S. Lehtola, J. P. Misiewicz, M. Scheurer,
    R. A. Shaw, J. B. Schriber, Y. Xie, Z. L. Glick, D. A. Sirianni,
    J. S. O'Brien, J. M. Waldrop, A. Kumar, E. G. Hohenstein,
    B. P. Pritchard, B. R. Brooks, H. F. Schaefer III, A. Yu. Sokolov,
    K. Patkowski, A. E. DePrince III, U. Bozkaya, R. A. King,
    F. A. Evangelista, J. M. Turney, T. D. Crawford, C. D. Sherrill,
    J. Chem. Phys. 152(18) 184108 (2020). https://doi.org/10.1063/5.0006002

                            Additional Code Authors
    E. T. Seidl, C. L. Janssen, E. F. Valeev, M. L. Leininger,
    J. F. Gonthier, R. M. Richard, H. R. McAlexander, M. Saitow, X. Wang,
    P. Verma, M. H. Lechner, A. Jiang, S. Behnle, A. G. Heide,
    M. F. Herbst, and D. L. Poole

             Previous Authors, Complete List of Code Contributors,
                       and Citations for Specific Modules
    https://github.com/psi4/psi4/blob/master/codemeta.json
    https://github.com/psi4/psi4/graphs/contributors
    http://psicode.org/psi4manual/master/introduction.html#citing-psifour

    -----------------------------------------------------------------------


    Psi4 started on: Wednesday, 03 January 2024 11:08PM

    Process ID: 448767
    Host:       moses-razer
    PSIDATADIR: /home/kchung25/anaconda3/envs/psi4_19/share/psi4
    Memory:     500.0 MiB
    Threads:    6
    
  ==> Input File <==

--------------------------------------------------------------------------
MEMORY 60 GB

molecule dimer {
-1 1
Cl     0.000000     0.000000     0.000000
--
-1 1
Br     5.278000     0.000000     0.000000

units ang
no_reorient
no_com
symmetry c1
}

set {
basis        aug-cc-pVTZ
scf_type     df
}

energy("mp2", bsse_type="cp")
--------------------------------------------------------------------------

  Memory set to  55.879 GiB by Python driver.

Scratch directory: /scratch/

  //>>>>>>>>>>>>>>>>>>>>>>>>>>>>>>>>>>>>>//
  // ManyBody Setup: N-Body Levels [1, 2]//
  //<<<<<<<<<<<<<<<<<<<<<<<<<<<<<<<<<<<<<//

        Number of 1-body computations:     2
        Number of 2-body computations:     1

    -----------------------------------------------------------------------
          Psi4: An Open-Source Ab Initio Electronic Structure Package
                               Psi4 1.9 release

                         Git: Rev {} zzzzzzz 


    D. G. A. Smith, L. A. Burns, A. C. Simmonett, R. M. Parrish,
    M. C. Schieber, R. Galvelis, P. Kraus, H. Kruse, R. Di Remigio,
    A. Alenaizan, A. M. James, S. Lehtola, J. P. Misiewicz, M. Scheurer,
    R. A. Shaw, J. B. Schriber, Y. Xie, Z. L. Glick, D. A. Sirianni,
    J. S. O'Brien, J. M. Waldrop, A. Kumar, E. G. Hohenstein,
    B. P. Pritchard, B. R. Brooks, H. F. Schaefer III, A. Yu. Sokolov,
    K. Patkowski, A. E. DePrince III, U. Bozkaya, R. A. King,
    F. A. Evangelista, J. M. Turney, T. D. Crawford, C. D. Sherrill,
    J. Chem. Phys. 152(18) 184108 (2020). https://doi.org/10.1063/5.0006002

                            Additional Code Authors
    E. T. Seidl, C. L. Janssen, E. F. Valeev, M. L. Leininger,
    J. F. Gonthier, R. M. Richard, H. R. McAlexander, M. Saitow, X. Wang,
    P. Verma, M. H. Lechner, A. Jiang, S. Behnle, A. G. Heide,
    M. F. Herbst, and D. L. Poole

             Previous Authors, Complete List of Code Contributors,
                       and Citations for Specific Modules
    https://github.com/psi4/psi4/blob/master/codemeta.json
    https://github.com/psi4/psi4/graphs/contributors
    http://psicode.org/psi4manual/master/introduction.html#citing-psifour

    -----------------------------------------------------------------------


    Psi4 started on: Wednesday, 03 January 2024 11:08PM

    Process ID: 448767
    Host:       moses-razer
    PSIDATADIR: /home/kchung25/anaconda3/envs/psi4_19/share/psi4
    Memory:     55.9 GiB
    Threads:    6
    
  ==> Input QCSchema <==

--------------------------------------------------------------------------
{'driver': 'energy',
 'extras': {'psiapi': True, 'wfn_qcvars_only': True},
 'id': None,
 'keywords': {'SCF_TYPE': 'DF', 'function_kwargs': {}},
 'model': {'basis': 'aug-cc-pvtz', 'method': 'mp2'},
 'molecule': {'atom_labels': ['', ''],
              'atomic_numbers': [17, 35],
              'extras': {},
              'fix_com': True,
              'fix_orientation': True,
              'fix_symmetry': 'c1',
              'fragment_charges': [0.0, -1.0],
              'fragment_multiplicities': [1, 1],
              'fragments': [[0], [1]],
              'geometry': [0.0, 0.0, 0.0, 9.973974490166416, 0.0, 0.0],
              'mass_numbers': [35, 79],
              'masses': [34.968852682, 78.9183376],
              'molecular_charge': -1.0,
              'molecular_multiplicity': 1,
              'name': 'dimer',
              'provenance': {'creator': 'QCElemental',
                             'routine': 'qcelemental.molparse.from_string',
                             'version': '0.27.1'},
              'real': [False, True],
              'schema_name': 'qcschema_molecule',
              'schema_version': 2,
              'symbols': ['Cl', 'Br'],
              'validated': True},
 'protocols': {'stdout': True},
 'provenance': {'creator': 'QCElemental', 'routine': 'qcelemental.models.results', 'version': '0.27.1'},
 'schema_name': 'qcschema_input',
 'schema_version': 1}
--------------------------------------------------------------------------

Scratch directory: /scratch/
   => Libint2 <=

    Primary   basis highest AM E, G, H:  5, 4, 3
    Auxiliary basis highest AM E, G, H:  6, 5, 4
    Onebody   basis highest AM E, G, H:  6, 5, 4
    Solid Harmonics ordering:            gaussian

*** tstart() called on moses-razer
*** at Wed Jan  3 23:08:23 2024

   => Loading Basis Set <=

    Name: AUG-CC-PVTZ
    Role: ORBITAL
    Keyword: BASIS
    atoms 1 entry CL         line   988 file /home/kchung25/anaconda3/envs/p415env/share/psi4/basis/aug-cc-pvtz.gbs 
    atoms 2 entry BR         line  4564 file /home/kchung25/anaconda3/envs/p415env/share/psi4/basis/aug-cc-pvtz.gbs 


         ---------------------------------------------------------
                                   SCF
               by Justin Turney, Rob Parrish, Andy Simmonett
                          and Daniel G. A. Smith
                              RHF Reference
                        6 Threads,  57220 MiB Core
         ---------------------------------------------------------

  ==> Geometry <==

    Molecular point group: c1
    Full point group: C_inf_v

    Geometry (in Bohr), charge = -1, multiplicity = 1:

       Center              X                  Y                   Z               Mass       
    ------------   -----------------  -----------------  -----------------  -----------------
      Gh(CL)          0.000000000000     0.000000000000     0.000000000000    34.968852682000
         BR           9.973974490166     0.000000000000     0.000000000000    78.918337600000

  Running in c1 symmetry.

  Rotational constants: A = ************  B =      0.00767  C =      0.00767 [cm^-1]
  Rotational constants: A = ************  B =    229.87964  C =    229.87964 [MHz]
  Nuclear repulsion =    0.000000000000000

  Charge       = -1
  Multiplicity = 1
  Electrons    = 36
  Nalpha       = 18
  Nbeta        = 18

  ==> Algorithm <==

  SCF Algorithm Type is DF.
  DIIS enabled.
  MOM disabled.
  Fractional occupation disabled.
  Guess Type is SAD.
  Energy threshold   = 1.00e-08
  Density threshold  = 1.00e-08
  Integral threshold = 1.00e-12

  ==> Primary Basis <==

  Basis Set: AUG-CC-PVTZ
    Blend: AUG-CC-PVTZ
    Number of shells: 35
    Number of basis functions: 109
    Number of Cartesian functions: 128
    Spherical Harmonics?: true
    Max angular momentum: 3

   => Loading Basis Set <=

    Name: (AUG-CC-PVTZ AUX)
    Role: JKFIT
    Keyword: DF_BASIS_SCF
    atoms 1 entry CL         line   816 file /home/kchung25/anaconda3/envs/p415env/share/psi4/basis/aug-cc-pvtz-jkfit.gbs 
    atoms 2 entry BR         line  1492 file /home/kchung25/anaconda3/envs/p415env/share/psi4/basis/aug-cc-pvtz-jkfit.gbs 

  ==> Integral Setup <==

  DFHelper Memory: AOs need 0.036 GiB; user supplied 41.910 GiB. 
  Using in-core AOs.

  ==> MemDFJK: Density-Fitted J/K Matrices <==

    J tasked:                   Yes
    K tasked:                   Yes
    wK tasked:                   No
    OpenMP threads:               6
    Memory [MiB]:             42915
    Algorithm:                 Core
    Schwarz Cutoff:           1E-12
    Mask sparsity (%):       7.3731
    Fitting Condition:        1E-10

   => Auxiliary Basis Set <=

  Basis Set: (AUG-CC-PVTZ AUX)
    Blend: AUG-CC-PVTZ-JKFIT
    Number of shells: 100
    Number of basis functions: 394
    Number of Cartesian functions: 509
    Spherical Harmonics?: true
    Max angular momentum: 4

  Minimum eigenvalue in the overlap matrix is 7.1638476896E-03.
  Reciprocal condition number of the overlap matrix is 2.4815570191E-03.
    Using symmetric orthogonalization.

  ==> Pre-Iterations <==

  SCF Guess: Superposition of Atomic Densities via on-the-fly atomic UHF (no occupation information).

   -------------------------
    Irrep   Nso     Nmo    
   -------------------------
     A        109     109 
   -------------------------
    Total     109     109
   -------------------------

  ==> Iterations <==

                           Total Energy        Delta E     RMS |[F,P]|

   @DF-RHF iter SAD: -2570.41423517154180   -2.57041e+03   0.00000e+00 
   @DF-RHF iter   1: -2572.25602788850983   -1.84179e+00   9.59387e-03 DIIS/ADIIS
   @DF-RHF iter   2: -2572.46493213301801   -2.08904e-01   5.31882e-03 DIIS/ADIIS
   @DF-RHF iter   3: -2572.53361962985082   -6.86875e-02   1.13899e-04 DIIS/ADIIS
   @DF-RHF iter   4: -2572.53366589405550   -4.62642e-05   1.01492e-05 DIIS
   @DF-RHF iter   5: -2572.53366682742217   -9.33367e-07   2.46004e-06 DIIS
   @DF-RHF iter   6: -2572.53366688469214   -5.72700e-08   4.25854e-07 DIIS
   @DF-RHF iter   7: -2572.53366689042468   -5.73255e-09   2.69981e-08 DIIS
   @DF-RHF iter   8: -2572.53366689044287   -1.81899e-11   5.74946e-09 DIIS
  Energy and wave function converged.


  ==> Post-Iterations <==

    Orbital Energies [Eh]
    ---------------------

    Doubly Occupied:                                                      

       1A   -489.720314     2A    -64.860418     3A    -58.214884  
       4A    -58.214884     5A    -58.214883     6A     -9.532842  
       7A     -7.140181     8A     -7.140181     9A     -7.140181  
      10A     -2.881847    11A     -2.881847    12A     -2.881846  
      13A     -2.881846    14A     -2.881844    15A     -0.686000  
      16A     -0.139337    17A     -0.139336    18A     -0.139336  

    Virtual:                                                              

      19A      0.156093    20A      0.187318    21A      0.187318  
      22A      0.215370    23A      0.255171    24A      0.255171  
      25A      0.261623    26A      0.305760    27A      0.464311  
      28A      0.480077    29A      0.480077    30A      0.490371  
      31A      0.490705    32A      0.490705    33A      0.503382  
      34A      0.503382    35A      0.521528    36A      0.526279  
      37A      0.526279    38A      0.543577    39A      0.543577  
      40A      0.610763    41A      0.743339    42A      0.743339  
      43A      0.752679    44A      0.930290    45A      1.034215  
      46A      1.034215    47A      1.037334    48A      1.037334  
      49A      1.064590    50A      1.210048    51A      1.210048  
      52A      1.210048    53A      1.210048    54A      1.210410  
      55A      1.210410    56A      1.212956    57A      1.392635  
      58A      1.392635    59A      1.395132    60A      1.395132  
      61A      1.397681    62A      1.397681    63A      1.399382  
      64A      1.399382    65A      1.402835    66A      1.408734  
      67A      1.502969    68A      1.566920    69A      1.566920  
      70A      1.573525    71A      1.573525    72A      1.613581  
      73A      2.409484    74A      2.409484    75A      2.417793  
      76A      2.566359    77A      2.566359    78A      2.569480  
      79A      2.569480    80A      2.581631    81A      2.585764  
      82A      2.585764    83A      2.585765    84A      2.585765  
      85A      2.586305    86A      2.586305    87A      2.602643  
      88A      3.768224    89A      4.022968    90A      4.022968  
      91A      4.024126    92A      4.024126    93A      4.025136  
      94A      4.025287    95A      4.025287    96A      4.039776  
      97A      4.041041    98A      4.041041    99A      4.074597  
     100A      4.759588   101A      4.759588   102A      4.762755  
     103A      4.762755   104A      4.782160   105A     13.764986  
     106A     27.810466   107A     27.810466   108A     27.821493  
     109A    160.798863  

    Final Occupation by Irrep:
              A 
    DOCC [    18 ]
    NA   [    18 ]
    NB   [    18 ]

  @DF-RHF Final Energy: -2572.53366689044287

   => Energetics <=

    Nuclear Repulsion Energy =              0.0000000000000000
    One-Electron Energy =               -3593.6833186090848358
    Two-Electron Energy =                1021.1496517186419624
    Total Energy =                      -2572.5336668904428734

Computation Completed


Properties will be evaluated at   0.000000,   0.000000,   0.000000 [a0]

Properties computed using the SCF density matrix


 Multipole Moments:

 ------------------------------------------------------------------------------------
     Multipole            Electronic (a.u.)      Nuclear  (a.u.)        Total (a.u.)
 ------------------------------------------------------------------------------------

 L = 1.  Multiply by 2.5417464519 to convert [e a0] to [Debye]
 Dipole X            :       -359.0630775          349.0891072           -9.9739704
 Dipole Y            :          0.0000000            0.0000000            0.0000000
 Dipole Z            :         -0.0000000            0.0000000           -0.0000000
 Magnitude           :                                                    9.9739704

 ------------------------------------------------------------------------------------

*** tstop() called on moses-razer at Wed Jan  3 23:08:26 2024
Module time:
	user time   =       7.86 seconds =       0.13 minutes
	system time =       1.11 seconds =       0.02 minutes
	total time  =          3 seconds =       0.05 minutes
Total time:
	user time   =       7.86 seconds =       0.13 minutes
	system time =       1.11 seconds =       0.02 minutes
	total time  =          3 seconds =       0.05 minutes

*** tstart() called on moses-razer
*** at Wed Jan  3 23:08:26 2024


  //>>>>>>>>>>>>>>>>>>>>>>>>>>>>>>>>>>>//
  //               DFMP2               //
  //<<<<<<<<<<<<<<<<<<<<<<<<<<<<<<<<<<<//

   => Loading Basis Set <=

    Name: (AUG-CC-PVTZ AUX)
    Role: RIFIT
    Keyword: DF_BASIS_MP2
    atoms 1 entry CL         line   742 file /home/kchung25/anaconda3/envs/p415env/share/psi4/basis/aug-cc-pvtz-ri.gbs 
    atoms 2 entry BR         line  1248 file /home/kchung25/anaconda3/envs/p415env/share/psi4/basis/aug-cc-pvtz-ri.gbs 

	 --------------------------------------------------------
	                          DF-MP2                         
	      2nd-Order Density-Fitted Moller-Plesset Theory     
	              RMP2 Wavefunction,   6 Threads             
	                                                         
	        Rob Parrish, Justin Turney, Andy Simmonett,      
	           Ed Hohenstein, and C. David Sherrill          
	 --------------------------------------------------------

   => Auxiliary Basis Set <=

  Basis Set: (AUG-CC-PVTZ AUX)
    Blend: AUG-CC-PVTZ-RI
    Number of shells: 80
    Number of basis functions: 338
    Number of Cartesian functions: 452
    Spherical Harmonics?: true
    Max angular momentum: 5

	 --------------------------------------------------------
	                 NBF =   109, NAUX =   338
	 --------------------------------------------------------
	   CLASS    FOCC     OCC    AOCC    AVIR     VIR    FVIR
	   PAIRS       0      18      18      91      91       0
	 --------------------------------------------------------

	-----------------------------------------------------------
	 ==================> DF-MP2 Energies <==================== 
	-----------------------------------------------------------
	 Reference Energy          =   -2572.5336668904428734 [Eh]
	 Singles Energy            =      -0.0000000000000000 [Eh]
	 Same-Spin Energy          =      -0.0866942748975147 [Eh]
	 Opposite-Spin Energy      =      -0.2010305960097446 [Eh]
	 Correlation Energy        =      -0.2877248709072593 [Eh]
	 Total Energy              =   -2572.8213917613502417 [Eh]
	-----------------------------------------------------------
	 ================> DF-SCS-MP2 Energies <================== 
	-----------------------------------------------------------
	 SCS Same-Spin Scale       =       0.3333333333333333 [-]
	 SCS Opposite-Spin Scale   =       1.2000000000000000 [-]
	 SCS Same-Spin Energy      =      -0.0288980916325049 [Eh]
	 SCS Opposite-Spin Energy  =      -0.2412367152116935 [Eh]
	 SCS Correlation Energy    =      -0.2701348068441984 [Eh]
	 SCS Total Energy          =   -2572.8038016972868718 [Eh]
	-----------------------------------------------------------


*** tstop() called on moses-razer at Wed Jan  3 23:08:28 2024
Module time:
	user time   =       3.39 seconds =       0.06 minutes
	system time =       0.33 seconds =       0.01 minutes
	total time  =          2 seconds =       0.03 minutes
Total time:
	user time   =      11.26 seconds =       0.19 minutes
	system time =       1.44 seconds =       0.02 minutes
	total time  =          5 seconds =       0.08 minutes

    Psi4 stopped on: Wednesday, 03 January 2024 11:08PM
    Psi4 wall time for execution: 0:00:04.85


    -----------------------------------------------------------------------
          Psi4: An Open-Source Ab Initio Electronic Structure Package
                               Psi4 1.9 release

                         Git: Rev {} zzzzzzz 


    D. G. A. Smith, L. A. Burns, A. C. Simmonett, R. M. Parrish,
    M. C. Schieber, R. Galvelis, P. Kraus, H. Kruse, R. Di Remigio,
    A. Alenaizan, A. M. James, S. Lehtola, J. P. Misiewicz, M. Scheurer,
    R. A. Shaw, J. B. Schriber, Y. Xie, Z. L. Glick, D. A. Sirianni,
    J. S. O'Brien, J. M. Waldrop, A. Kumar, E. G. Hohenstein,
    B. P. Pritchard, B. R. Brooks, H. F. Schaefer III, A. Yu. Sokolov,
    K. Patkowski, A. E. DePrince III, U. Bozkaya, R. A. King,
    F. A. Evangelista, J. M. Turney, T. D. Crawford, C. D. Sherrill,
    J. Chem. Phys. 152(18) 184108 (2020). https://doi.org/10.1063/5.0006002

                            Additional Code Authors
    E. T. Seidl, C. L. Janssen, E. F. Valeev, M. L. Leininger,
    J. F. Gonthier, R. M. Richard, H. R. McAlexander, M. Saitow, X. Wang,
    P. Verma, M. H. Lechner, A. Jiang, S. Behnle, A. G. Heide,
    M. F. Herbst, and D. L. Poole

             Previous Authors, Complete List of Code Contributors,
                       and Citations for Specific Modules
    https://github.com/psi4/psi4/blob/master/codemeta.json
    https://github.com/psi4/psi4/graphs/contributors
    http://psicode.org/psi4manual/master/introduction.html#citing-psifour

    -----------------------------------------------------------------------


    Psi4 started on: Wednesday, 03 January 2024 11:08PM

    Process ID: 448767
    Host:       moses-razer
    PSIDATADIR: /home/kchung25/anaconda3/envs/psi4_19/share/psi4
    Memory:     55.9 GiB
    Threads:    6
    
  ==> Input QCSchema <==

--------------------------------------------------------------------------
{'driver': 'energy',
 'extras': {'psiapi': True, 'wfn_qcvars_only': True},
 'id': None,
 'keywords': {'SCF_TYPE': 'DF', 'function_kwargs': {}},
 'model': {'basis': 'aug-cc-pvtz', 'method': 'mp2'},
 'molecule': {'atom_labels': ['', ''],
              'atomic_numbers': [17, 35],
              'extras': {},
              'fix_com': True,
              'fix_orientation': True,
              'fix_symmetry': 'c1',
              'fragment_charges': [-1.0, 0.0],
              'fragment_multiplicities': [1, 1],
              'fragments': [[0], [1]],
              'geometry': [0.0, 0.0, 0.0, 9.973974490166416, 0.0, 0.0],
              'mass_numbers': [35, 79],
              'masses': [34.968852682, 78.9183376],
              'molecular_charge': -1.0,
              'molecular_multiplicity': 1,
              'name': 'dimer',
              'provenance': {'creator': 'QCElemental',
                             'routine': 'qcelemental.molparse.from_string',
                             'version': '0.27.1'},
              'real': [True, False],
              'schema_name': 'qcschema_molecule',
              'schema_version': 2,
              'symbols': ['Cl', 'Br'],
              'validated': True},
 'protocols': {'stdout': True},
 'provenance': {'creator': 'QCElemental', 'routine': 'qcelemental.models.results', 'version': '0.27.1'},
 'schema_name': 'qcschema_input',
 'schema_version': 1}
--------------------------------------------------------------------------

Scratch directory: /scratch/
   => Libint2 <=

    Primary   basis highest AM E, G, H:  5, 4, 3
    Auxiliary basis highest AM E, G, H:  6, 5, 4
    Onebody   basis highest AM E, G, H:  6, 5, 4
    Solid Harmonics ordering:            gaussian

*** tstart() called on moses-razer
*** at Wed Jan  3 23:08:28 2024

   => Loading Basis Set <=

    Name: AUG-CC-PVTZ
    Role: ORBITAL
    Keyword: BASIS
    atoms 1 entry CL         line   988 file /home/kchung25/anaconda3/envs/p415env/share/psi4/basis/aug-cc-pvtz.gbs 
    atoms 2 entry BR         line  4564 file /home/kchung25/anaconda3/envs/p415env/share/psi4/basis/aug-cc-pvtz.gbs 


         ---------------------------------------------------------
                                   SCF
               by Justin Turney, Rob Parrish, Andy Simmonett
                          and Daniel G. A. Smith
                              RHF Reference
                        6 Threads,  57220 MiB Core
         ---------------------------------------------------------

  ==> Geometry <==

    Molecular point group: c1
    Full point group: C_inf_v

    Geometry (in Bohr), charge = -1, multiplicity = 1:

       Center              X                  Y                   Z               Mass       
    ------------   -----------------  -----------------  -----------------  -----------------
         CL           0.000000000000     0.000000000000     0.000000000000    34.968852682000
      Gh(BR)          9.973974490166     0.000000000000     0.000000000000    78.918337600000

  Running in c1 symmetry.

  Rotational constants: A = ************  B =      0.00767  C =      0.00767 [cm^-1]
  Rotational constants: A = ************  B =    229.87964  C =    229.87964 [MHz]
  Nuclear repulsion =    0.000000000000000

  Charge       = -1
  Multiplicity = 1
  Electrons    = 18
  Nalpha       = 9
  Nbeta        = 9

  ==> Algorithm <==

  SCF Algorithm Type is DF.
  DIIS enabled.
  MOM disabled.
  Fractional occupation disabled.
  Guess Type is SAD.
  Energy threshold   = 1.00e-08
  Density threshold  = 1.00e-08
  Integral threshold = 1.00e-12

  ==> Primary Basis <==

  Basis Set: AUG-CC-PVTZ
    Blend: AUG-CC-PVTZ
    Number of shells: 35
    Number of basis functions: 109
    Number of Cartesian functions: 128
    Spherical Harmonics?: true
    Max angular momentum: 3

   => Loading Basis Set <=

    Name: (AUG-CC-PVTZ AUX)
    Role: JKFIT
    Keyword: DF_BASIS_SCF
    atoms 1 entry CL         line   816 file /home/kchung25/anaconda3/envs/p415env/share/psi4/basis/aug-cc-pvtz-jkfit.gbs 
    atoms 2 entry BR         line  1492 file /home/kchung25/anaconda3/envs/p415env/share/psi4/basis/aug-cc-pvtz-jkfit.gbs 

  ==> Integral Setup <==

  DFHelper Memory: AOs need 0.036 GiB; user supplied 41.910 GiB. 
  Using in-core AOs.

  ==> MemDFJK: Density-Fitted J/K Matrices <==

    J tasked:                   Yes
    K tasked:                   Yes
    wK tasked:                   No
    OpenMP threads:               6
    Memory [MiB]:             42915
    Algorithm:                 Core
    Schwarz Cutoff:           1E-12
    Mask sparsity (%):       7.3731
    Fitting Condition:        1E-10

   => Auxiliary Basis Set <=

  Basis Set: (AUG-CC-PVTZ AUX)
    Blend: AUG-CC-PVTZ-JKFIT
    Number of shells: 100
    Number of basis functions: 394
    Number of Cartesian functions: 509
    Spherical Harmonics?: true
    Max angular momentum: 4

  Minimum eigenvalue in the overlap matrix is 7.1638476896E-03.
  Reciprocal condition number of the overlap matrix is 2.4815570191E-03.
    Using symmetric orthogonalization.

  ==> Pre-Iterations <==

  SCF Guess: Superposition of Atomic Densities via on-the-fly atomic UHF (no occupation information).

   -------------------------
    Irrep   Nso     Nmo    
   -------------------------
     A        109     109 
   -------------------------
    Total     109     109
   -------------------------

  ==> Iterations <==

                           Total Energy        Delta E     RMS |[F,P]|

   @DF-RHF iter SAD:  -459.11248994417315   -4.59112e+02   0.00000e+00 
   @DF-RHF iter   1:  -459.51389886336312   -4.01409e-01   2.73486e-03 DIIS/ADIIS
   @DF-RHF iter   2:  -459.56472969888119   -5.08308e-02   1.39625e-03 DIIS/ADIIS
   @DF-RHF iter   3:  -459.57342640577951   -8.69671e-03   8.94370e-05 DIIS
   @DF-RHF iter   4:  -459.57347945270357   -5.30469e-05   1.89365e-05 DIIS
   @DF-RHF iter   5:  -459.57348321633020   -3.76363e-06   1.94280e-06 DIIS
   @DF-RHF iter   6:  -459.57348328696798   -7.06378e-08   9.90642e-08 DIIS
   @DF-RHF iter   7:  -459.57348328714221   -1.74225e-10   1.27563e-08 DIIS
   @DF-RHF iter   8:  -459.57348328714659   -4.37694e-12   2.23359e-09 DIIS
  Energy and wave function converged.


  ==> Post-Iterations <==

    Orbital Energies [Eh]
    ---------------------

    Doubly Occupied:                                                      

       1A   -104.505975     2A    -10.229744     3A     -7.695775  
       4A     -7.695775     5A     -7.695773     6A     -0.733511  
       7A     -0.150336     8A     -0.150336     9A     -0.150336  

    Virtual:                                                              

      10A      0.139296    11A      0.168945    12A      0.168945  
      13A      0.197389    14A      0.291406    15A      0.291406  
      16A      0.301502    17A      0.348905    18A      0.392113  
      19A      0.412514    20A      0.412514    21A      0.426042  
      22A      0.426042    23A      0.431343    24A      0.438648  
      25A      0.438648    26A      0.474998    27A      0.595472  
      28A      0.595472    29A      0.600055    30A      0.600055  
      31A      0.635220    32A      0.898371    33A      0.898371  
      34A      0.908721    35A      1.092129    36A      1.092129  
      37A      1.094437    38A      1.131430    39A      1.156077  
      40A      1.156077    41A      1.157324    42A      1.158656  
      43A      1.158656    44A      1.160646    45A      1.160646  
      46A      1.207175    47A      1.207175    48A      1.210374  
      49A      1.212326    50A      1.212326    51A      1.215090  
      52A      1.222061    53A      1.222061    54A      1.239139  
      55A      1.239139    56A      1.328312    57A      1.468119  
      58A      1.468119    59A      1.468126    60A      1.468126  
      61A      1.468848    62A      1.468848    63A      1.477087  
      64A      2.828725    65A      2.828725    66A      2.830757  
      67A      2.830757    68A      2.841540    69A      2.937224  
      70A      2.959441    71A      2.959441    72A      2.972330  
      73A      2.986638    74A      2.986638    75A      2.997216  
      76A      3.223142    77A      3.223142    78A      3.224509  
      79A      3.224509    80A      3.226189    81A      3.226189  
      82A      3.231219    83A      3.369753    84A      3.372396  
      85A      3.372396    86A      3.373528    87A      3.373528  
      88A      3.373559    89A      3.373559    90A      3.390487  
      91A      3.390487    92A      3.396453    93A      3.396453  
      94A      3.426723    95A      5.425464    96A      9.229948  
      97A     13.548925    98A     13.548925    99A     13.555627  
     100A     26.234652   101A     26.234652   102A     26.237117  
     103A     26.237117   104A     26.256530   105A     45.246780  
     106A    138.494715   107A    138.494715   108A    138.504481  
     109A    707.843608  

    Final Occupation by Irrep:
              A 
    DOCC [     9 ]
    NA   [     9 ]
    NB   [     9 ]

  @DF-RHF Final Energy:  -459.57348328714659

   => Energetics <=

    Nuclear Repulsion Energy =              0.0000000000000000
    One-Electron Energy =                -641.1318417238298935
    Two-Electron Energy =                 181.5583584366832781
    Total Energy =                       -459.5734832871465869

Computation Completed


Properties will be evaluated at   0.000000,   0.000000,   0.000000 [a0]

Properties computed using the SCF density matrix


 Multipole Moments:

 ------------------------------------------------------------------------------------
     Multipole            Electronic (a.u.)      Nuclear  (a.u.)        Total (a.u.)
 ------------------------------------------------------------------------------------

 L = 1.  Multiply by 2.5417464519 to convert [e a0] to [Debye]
 Dipole X            :         -0.0000551            0.0000000           -0.0000551
 Dipole Y            :          0.0000000            0.0000000            0.0000000
 Dipole Z            :         -0.0000000            0.0000000           -0.0000000
 Magnitude           :                                                    0.0000551

 ------------------------------------------------------------------------------------

*** tstop() called on moses-razer at Wed Jan  3 23:08:30 2024
Module time:
	user time   =       5.81 seconds =       0.10 minutes
	system time =       0.62 seconds =       0.01 minutes
	total time  =          2 seconds =       0.03 minutes
Total time:
	user time   =      17.30 seconds =       0.29 minutes
	system time =       2.07 seconds =       0.03 minutes
	total time  =          7 seconds =       0.12 minutes

*** tstart() called on moses-razer
*** at Wed Jan  3 23:08:30 2024


  //>>>>>>>>>>>>>>>>>>>>>>>>>>>>>>>>>>>//
  //               DFMP2               //
  //<<<<<<<<<<<<<<<<<<<<<<<<<<<<<<<<<<<//

   => Loading Basis Set <=

    Name: (AUG-CC-PVTZ AUX)
    Role: RIFIT
    Keyword: DF_BASIS_MP2
    atoms 1 entry CL         line   742 file /home/kchung25/anaconda3/envs/p415env/share/psi4/basis/aug-cc-pvtz-ri.gbs 
    atoms 2 entry BR         line  1248 file /home/kchung25/anaconda3/envs/p415env/share/psi4/basis/aug-cc-pvtz-ri.gbs 

	 --------------------------------------------------------
	                          DF-MP2                         
	      2nd-Order Density-Fitted Moller-Plesset Theory     
	              RMP2 Wavefunction,   6 Threads             
	                                                         
	        Rob Parrish, Justin Turney, Andy Simmonett,      
	           Ed Hohenstein, and C. David Sherrill          
	 --------------------------------------------------------

   => Auxiliary Basis Set <=

  Basis Set: (AUG-CC-PVTZ AUX)
    Blend: AUG-CC-PVTZ-RI
    Number of shells: 80
    Number of basis functions: 338
    Number of Cartesian functions: 452
    Spherical Harmonics?: true
    Max angular momentum: 5

	 --------------------------------------------------------
	                 NBF =   109, NAUX =   338
	 --------------------------------------------------------
	   CLASS    FOCC     OCC    AOCC    AVIR     VIR    FVIR
	   PAIRS       0       9       9     100     100       0
	 --------------------------------------------------------

	-----------------------------------------------------------
	 ==================> DF-MP2 Energies <==================== 
	-----------------------------------------------------------
	 Reference Energy          =    -459.5734832871465869 [Eh]
	 Singles Energy            =      -0.0000000000000000 [Eh]
	 Same-Spin Energy          =      -0.0622736722012372 [Eh]
	 Opposite-Spin Energy      =      -0.1786591536942470 [Eh]
	 Correlation Energy        =      -0.2409328258954841 [Eh]
	 Total Energy              =    -459.8144161130420571 [Eh]
	-----------------------------------------------------------
	 ================> DF-SCS-MP2 Energies <================== 
	-----------------------------------------------------------
	 SCS Same-Spin Scale       =       0.3333333333333333 [-]
	 SCS Opposite-Spin Scale   =       1.2000000000000000 [-]
	 SCS Same-Spin Energy      =      -0.0207578907337457 [Eh]
	 SCS Opposite-Spin Energy  =      -0.2143909844330963 [Eh]
	 SCS Correlation Energy    =      -0.2351488751668421 [Eh]
	 SCS Total Energy          =    -459.8086321623134154 [Eh]
	-----------------------------------------------------------


*** tstop() called on moses-razer at Wed Jan  3 23:08:32 2024
Module time:
	user time   =       3.35 seconds =       0.06 minutes
	system time =       0.31 seconds =       0.01 minutes
	total time  =          2 seconds =       0.03 minutes
Total time:
	user time   =      20.66 seconds =       0.34 minutes
	system time =       2.38 seconds =       0.04 minutes
	total time  =          9 seconds =       0.15 minutes

    Psi4 stopped on: Wednesday, 03 January 2024 11:08PM
    Psi4 wall time for execution: 0:00:03.97


    -----------------------------------------------------------------------
          Psi4: An Open-Source Ab Initio Electronic Structure Package
                               Psi4 1.9 release

                         Git: Rev {} zzzzzzz 


    D. G. A. Smith, L. A. Burns, A. C. Simmonett, R. M. Parrish,
    M. C. Schieber, R. Galvelis, P. Kraus, H. Kruse, R. Di Remigio,
    A. Alenaizan, A. M. James, S. Lehtola, J. P. Misiewicz, M. Scheurer,
    R. A. Shaw, J. B. Schriber, Y. Xie, Z. L. Glick, D. A. Sirianni,
    J. S. O'Brien, J. M. Waldrop, A. Kumar, E. G. Hohenstein,
    B. P. Pritchard, B. R. Brooks, H. F. Schaefer III, A. Yu. Sokolov,
    K. Patkowski, A. E. DePrince III, U. Bozkaya, R. A. King,
    F. A. Evangelista, J. M. Turney, T. D. Crawford, C. D. Sherrill,
    J. Chem. Phys. 152(18) 184108 (2020). https://doi.org/10.1063/5.0006002

                            Additional Code Authors
    E. T. Seidl, C. L. Janssen, E. F. Valeev, M. L. Leininger,
    J. F. Gonthier, R. M. Richard, H. R. McAlexander, M. Saitow, X. Wang,
    P. Verma, M. H. Lechner, A. Jiang, S. Behnle, A. G. Heide,
    M. F. Herbst, and D. L. Poole

             Previous Authors, Complete List of Code Contributors,
                       and Citations for Specific Modules
    https://github.com/psi4/psi4/blob/master/codemeta.json
    https://github.com/psi4/psi4/graphs/contributors
    http://psicode.org/psi4manual/master/introduction.html#citing-psifour

    -----------------------------------------------------------------------


    Psi4 started on: Wednesday, 03 January 2024 11:08PM

    Process ID: 448767
    Host:       moses-razer
    PSIDATADIR: /home/kchung25/anaconda3/envs/psi4_19/share/psi4
    Memory:     55.9 GiB
    Threads:    6
    
  ==> Input QCSchema <==

--------------------------------------------------------------------------
{'driver': 'energy',
 'extras': {'psiapi': True, 'wfn_qcvars_only': True},
 'id': None,
 'keywords': {'SCF_TYPE': 'DF', 'function_kwargs': {}},
 'model': {'basis': 'aug-cc-pvtz', 'method': 'mp2'},
 'molecule': {'atom_labels': ['', ''],
              'atomic_numbers': [17, 35],
              'extras': {},
              'fix_com': True,
              'fix_orientation': True,
              'fix_symmetry': 'c1',
              'fragment_charges': [-1.0, -1.0],
              'fragment_multiplicities': [1, 1],
              'fragments': [[0], [1]],
              'geometry': [0.0, 0.0, 0.0, 9.973974490166416, 0.0, 0.0],
              'mass_numbers': [35, 79],
              'masses': [34.968852682, 78.9183376],
              'molecular_charge': -2.0,
              'molecular_multiplicity': 1,
              'name': 'dimer',
              'provenance': {'creator': 'QCElemental',
                             'routine': 'qcelemental.molparse.from_string',
                             'version': '0.27.1'},
              'real': [True, True],
              'schema_name': 'qcschema_molecule',
              'schema_version': 2,
              'symbols': ['Cl', 'Br'],
              'validated': True},
 'protocols': {'stdout': True},
 'provenance': {'creator': 'QCElemental', 'routine': 'qcelemental.models.results', 'version': '0.27.1'},
 'schema_name': 'qcschema_input',
 'schema_version': 1}
--------------------------------------------------------------------------

Scratch directory: /scratch/
   => Libint2 <=

    Primary   basis highest AM E, G, H:  5, 4, 3
    Auxiliary basis highest AM E, G, H:  6, 5, 4
    Onebody   basis highest AM E, G, H:  6, 5, 4
    Solid Harmonics ordering:            gaussian

*** tstart() called on moses-razer
*** at Wed Jan  3 23:08:32 2024

   => Loading Basis Set <=

    Name: AUG-CC-PVTZ
    Role: ORBITAL
    Keyword: BASIS
    atoms 1 entry CL         line   988 file /home/kchung25/anaconda3/envs/p415env/share/psi4/basis/aug-cc-pvtz.gbs 
    atoms 2 entry BR         line  4564 file /home/kchung25/anaconda3/envs/p415env/share/psi4/basis/aug-cc-pvtz.gbs 


         ---------------------------------------------------------
                                   SCF
               by Justin Turney, Rob Parrish, Andy Simmonett
                          and Daniel G. A. Smith
                              RHF Reference
                        6 Threads,  57220 MiB Core
         ---------------------------------------------------------

  ==> Geometry <==

    Molecular point group: c1
    Full point group: C_inf_v

    Geometry (in Bohr), charge = -2, multiplicity = 1:

       Center              X                  Y                   Z               Mass       
    ------------   -----------------  -----------------  -----------------  -----------------
         CL           0.000000000000     0.000000000000     0.000000000000    34.968852682000
         BR           9.973974490166     0.000000000000     0.000000000000    78.918337600000

  Running in c1 symmetry.

  Rotational constants: A = ************  B =      0.00767  C =      0.00767 [cm^-1]
  Rotational constants: A = ************  B =    229.87964  C =    229.87964 [MHz]
  Nuclear repulsion =   59.655255844761278

  Charge       = -2
  Multiplicity = 1
  Electrons    = 54
  Nalpha       = 27
  Nbeta        = 27

  ==> Algorithm <==

  SCF Algorithm Type is DF.
  DIIS enabled.
  MOM disabled.
  Fractional occupation disabled.
  Guess Type is SAD.
  Energy threshold   = 1.00e-08
  Density threshold  = 1.00e-08
  Integral threshold = 1.00e-12

  ==> Primary Basis <==

  Basis Set: AUG-CC-PVTZ
    Blend: AUG-CC-PVTZ
    Number of shells: 35
    Number of basis functions: 109
    Number of Cartesian functions: 128
    Spherical Harmonics?: true
    Max angular momentum: 3

   => Loading Basis Set <=

    Name: (AUG-CC-PVTZ AUX)
    Role: JKFIT
    Keyword: DF_BASIS_SCF
    atoms 1 entry CL         line   816 file /home/kchung25/anaconda3/envs/p415env/share/psi4/basis/aug-cc-pvtz-jkfit.gbs 
    atoms 2 entry BR         line  1492 file /home/kchung25/anaconda3/envs/p415env/share/psi4/basis/aug-cc-pvtz-jkfit.gbs 

  ==> Integral Setup <==

  DFHelper Memory: AOs need 0.036 GiB; user supplied 41.910 GiB. 
  Using in-core AOs.

  ==> MemDFJK: Density-Fitted J/K Matrices <==

    J tasked:                   Yes
    K tasked:                   Yes
    wK tasked:                   No
    OpenMP threads:               6
    Memory [MiB]:             42915
    Algorithm:                 Core
    Schwarz Cutoff:           1E-12
    Mask sparsity (%):       7.3731
    Fitting Condition:        1E-10

   => Auxiliary Basis Set <=

  Basis Set: (AUG-CC-PVTZ AUX)
    Blend: AUG-CC-PVTZ-JKFIT
    Number of shells: 100
    Number of basis functions: 394
    Number of Cartesian functions: 509
    Spherical Harmonics?: true
    Max angular momentum: 4

  Minimum eigenvalue in the overlap matrix is 7.1638476896E-03.
  Reciprocal condition number of the overlap matrix is 2.4815570191E-03.
    Using symmetric orthogonalization.

  ==> Pre-Iterations <==

  SCF Guess: Superposition of Atomic Densities via on-the-fly atomic UHF (no occupation information).

   -------------------------
    Irrep   Nso     Nmo    
   -------------------------
     A        109     109 
   -------------------------
    Total     109     109
   -------------------------

  ==> Iterations <==

                           Total Energy        Delta E     RMS |[F,P]|

   @DF-RHF iter SAD: -3029.52676571058055   -3.02953e+03   0.00000e+00 
   @DF-RHF iter   1: -3031.66961803426875   -2.14285e+00   9.98241e-03 DIIS/ADIIS
   @DF-RHF iter   2: -3031.93069653599241   -2.61079e-01   5.53077e-03 DIIS/ADIIS
   @DF-RHF iter   3: -3032.01003398727926   -7.93375e-02   1.69375e-04 DIIS/ADIIS
   @DF-RHF iter   4: -3032.01017889982222   -1.44913e-04   4.07408e-05 DIIS
   @DF-RHF iter   5: -3032.01019317567443   -1.42759e-05   1.25205e-05 DIIS
   @DF-RHF iter   6: -3032.01019514849759   -1.97282e-06   2.27866e-06 DIIS
   @DF-RHF iter   7: -3032.01019530024723   -1.51750e-07   5.23890e-07 DIIS
   @DF-RHF iter   8: -3032.01019530581925   -5.57202e-09   1.43483e-07 DIIS
   @DF-RHF iter   9: -3032.01019530642179   -6.02540e-10   2.61456e-08 DIIS
   @DF-RHF iter  10: -3032.01019530643680   -1.50067e-11   7.05619e-09 DIIS
  Energy and wave function converged.


  ==> Post-Iterations <==

    Orbital Energies [Eh]
    ---------------------

    Doubly Occupied:                                                      

       1A   -489.624954     2A   -104.411201     3A    -64.764989  
       4A    -58.119464     5A    -58.119464     6A    -58.119436  
       7A    -10.134846     8A     -9.437347     9A     -7.600879  
      10A     -7.600879    11A     -7.600835    12A     -7.044726  
      13A     -7.044726    14A     -7.044543    15A     -2.786485  
      16A     -2.786485    17A     -2.786269    18A     -2.786269  
      19A     -2.786195    20A     -0.638145    21A     -0.589935  
      22A     -0.055363    23A     -0.055363    24A     -0.054328  
      25A     -0.043806    26A     -0.043806    27A     -0.041208  

    Virtual:                                                              

      28A      0.331946    29A      0.339655    30A      0.339655  
      31A      0.381409    32A      0.381409    33A      0.383110  
      34A      0.395787    35A      0.476644    36A      0.583305  
      37A      0.583305    38A      0.589857    39A      0.589857  
      40A      0.603730    41A      0.688203    42A      0.688203  
      43A      0.697897    44A      0.697897    45A      0.731299  
      46A      0.836450    47A      0.836450    48A      0.851418  
      49A      0.991550    50A      0.991550    51A      1.002627  
      52A      1.025031    53A      1.128502    54A      1.128502  
      55A      1.134084    56A      1.134084    57A      1.156879  
      58A      1.300348    59A      1.304134    60A      1.304134  
      61A      1.305988    62A      1.305988    63A      1.306436  
      64A      1.306436    65A      1.308014    66A      1.315860  
      67A      1.315860    68A      1.325185    69A      1.325185  
      70A      1.399201    71A      1.561862    72A      1.561862  
      73A      1.563792    74A      1.563792    75A      1.565780  
      76A      1.565780    77A      1.572273    78A      2.504401  
      79A      2.504401    80A      2.513665    81A      2.661212  
      82A      2.661212    83A      2.665046    84A      2.665046  
      85A      2.679290    86A      2.680579    87A      2.680579  
      88A      2.681764    89A      2.681764    90A      2.682872  
      91A      2.682872    92A      2.691095    93A      2.923166  
      94A      2.923166    95A      2.927916    96A      2.927916  
      97A      2.955741    98A      3.081094    99A      3.081094  
     100A      3.092843   101A      3.467952   102A      3.467952  
     103A      3.468868   104A      3.468868   105A      3.469882  
     106A      3.469882   107A      3.472753   108A      3.869926  
     109A      5.522187  

    Final Occupation by Irrep:
              A 
    DOCC [    27 ]
    NA   [    27 ]
    NB   [    27 ]

  @DF-RHF Final Energy: -3032.01019530643680

   => Energetics <=

    Nuclear Repulsion Energy =             59.6552558447612782
    One-Electron Energy =               -4359.0870037740987755
    Two-Electron Energy =                1267.4215526229006628
    Total Energy =                      -3032.0101953064367990

Computation Completed


Properties will be evaluated at   0.000000,   0.000000,   0.000000 [a0]

Properties computed using the SCF density matrix


 Multipole Moments:

 ------------------------------------------------------------------------------------
     Multipole            Electronic (a.u.)      Nuclear  (a.u.)        Total (a.u.)
 ------------------------------------------------------------------------------------

 L = 1.  Multiply by 2.5417464519 to convert [e a0] to [Debye]
 Dipole X            :       -359.1703879          349.0891072          -10.0812808
 Dipole Y            :         -0.0000000            0.0000000           -0.0000000
 Dipole Z            :          0.0000000            0.0000000            0.0000000
 Magnitude           :                                                   10.0812808

 ------------------------------------------------------------------------------------

*** tstop() called on moses-razer at Wed Jan  3 23:08:35 2024
Module time:
	user time   =       8.51 seconds =       0.14 minutes
	system time =       1.17 seconds =       0.02 minutes
	total time  =          3 seconds =       0.05 minutes
Total time:
	user time   =      29.40 seconds =       0.49 minutes
	system time =       3.55 seconds =       0.06 minutes
	total time  =         12 seconds =       0.20 minutes

*** tstart() called on moses-razer
*** at Wed Jan  3 23:08:35 2024


  //>>>>>>>>>>>>>>>>>>>>>>>>>>>>>>>>>>>//
  //               DFMP2               //
  //<<<<<<<<<<<<<<<<<<<<<<<<<<<<<<<<<<<//

   => Loading Basis Set <=

    Name: (AUG-CC-PVTZ AUX)
    Role: RIFIT
    Keyword: DF_BASIS_MP2
    atoms 1 entry CL         line   742 file /home/kchung25/anaconda3/envs/p415env/share/psi4/basis/aug-cc-pvtz-ri.gbs 
    atoms 2 entry BR         line  1248 file /home/kchung25/anaconda3/envs/p415env/share/psi4/basis/aug-cc-pvtz-ri.gbs 

	 --------------------------------------------------------
	                          DF-MP2                         
	      2nd-Order Density-Fitted Moller-Plesset Theory     
	              RMP2 Wavefunction,   6 Threads             
	                                                         
	        Rob Parrish, Justin Turney, Andy Simmonett,      
	           Ed Hohenstein, and C. David Sherrill          
	 --------------------------------------------------------

   => Auxiliary Basis Set <=

  Basis Set: (AUG-CC-PVTZ AUX)
    Blend: AUG-CC-PVTZ-RI
    Number of shells: 80
    Number of basis functions: 338
    Number of Cartesian functions: 452
    Spherical Harmonics?: true
    Max angular momentum: 5

	 --------------------------------------------------------
	                 NBF =   109, NAUX =   338
	 --------------------------------------------------------
	   CLASS    FOCC     OCC    AOCC    AVIR     VIR    FVIR
	   PAIRS       0      27      27      82      82       0
	 --------------------------------------------------------

	-----------------------------------------------------------
	 ==================> DF-MP2 Energies <==================== 
	-----------------------------------------------------------
	 Reference Energy          =   -3032.0101953064367990 [Eh]
	 Singles Energy            =      -0.0000000000000000 [Eh]
	 Same-Spin Energy          =      -0.1492558091299770 [Eh]
	 Opposite-Spin Energy      =      -0.3801486615658596 [Eh]
	 Correlation Energy        =      -0.5294044706958365 [Eh]
	 Total Energy              =   -3032.5395997771324801 [Eh]
	-----------------------------------------------------------
	 ================> DF-SCS-MP2 Energies <================== 
	-----------------------------------------------------------
	 SCS Same-Spin Scale       =       0.3333333333333333 [-]
	 SCS Opposite-Spin Scale   =       1.2000000000000000 [-]
	 SCS Same-Spin Energy      =      -0.0497519363766590 [Eh]
	 SCS Opposite-Spin Energy  =      -0.4561783938790315 [Eh]
	 SCS Correlation Energy    =      -0.5059303302556905 [Eh]
	 SCS Total Energy          =   -3032.5161256366923226 [Eh]
	-----------------------------------------------------------


*** tstop() called on moses-razer at Wed Jan  3 23:08:37 2024
Module time:
	user time   =       3.52 seconds =       0.06 minutes
	system time =       0.33 seconds =       0.01 minutes
	total time  =          2 seconds =       0.03 minutes
Total time:
	user time   =      32.93 seconds =       0.55 minutes
	system time =       3.88 seconds =       0.06 minutes
	total time  =         14 seconds =       0.23 minutes

    Psi4 stopped on: Wednesday, 03 January 2024 11:08PM
    Psi4 wall time for execution: 0:00:04.96


  //>>>>>>>>>>>>>>>>>>>>>>>>>>>>>>>>>>>//
  //          ManyBody Results         //
  //<<<<<<<<<<<<<<<<<<<<<<<<<<<<<<<<<<<//


   ==> N-Body: Counterpoise Corrected (CP) energies <==

        n-Body     Total Energy            Interaction Energy                          N-body Contribution to Interaction Energy
                   [Eh]                    [Eh]                  [kcal/mol]            [Eh]                  [kcal/mol]
             1  N/A                         0.000000000000        0.000000000000        0.000000000000        0.000000000000
  FULL/RTN   2  N/A                         0.096208097260       60.371492484718        0.096208097260       60.371492484718


    Psi4 stopped on: Wednesday, 03 January 2024 11:08PM
    Psi4 wall time for execution: 0:00:15.30

*** Psi4 exiting successfully. Buy a developer a beer!
