
    -----------------------------------------------------------------------
          Psi4: An Open-Source Ab Initio Electronic Structure Package
                               Psi4 1.9 release

                         Git: Rev {} zzzzzzz 


    D. G. A. Smith, L. A. Burns, A. C. Simmonett, R. M. Parrish,
    M. C. Schieber, R. Galvelis, P. Kraus, H. Kruse, R. Di Remigio,
    A. Alenaizan, A. M. James, S. Lehtola, J. P. Misiewicz, M. Scheurer,
    R. A. Shaw, J. B. Schriber, Y. Xie, Z. L. Glick, D. A. Sirianni,
    J. S. O'Brien, J. M. Waldrop, A. Kumar, E. G. Hohenstein,
    B. P. Pritchard, B. R. Brooks, H. F. Schaefer III, A. Yu. Sokolov,
    K. Patkowski, A. E. DePrince III, U. Bozkaya, R. A. King,
    F. A. Evangelista, J. M. Turney, T. D. Crawford, C. D. Sherrill,
    J. Chem. Phys. 152(18) 184108 (2020). https://doi.org/10.1063/5.0006002

                            Additional Code Authors
    E. T. Seidl, C. L. Janssen, E. F. Valeev, M. L. Leininger,
    J. F. Gonthier, R. M. Richard, H. R. McAlexander, M. Saitow, X. Wang,
    P. Verma, M. H. Lechner, A. Jiang, S. Behnle, A. G. Heide,
    M. F. Herbst, and D. L. Poole

             Previous Authors, Complete List of Code Contributors,
                       and Citations for Specific Modules
    https://github.com/psi4/psi4/blob/master/codemeta.json
    https://github.com/psi4/psi4/graphs/contributors
    http://psicode.org/psi4manual/master/introduction.html#citing-psifour

    -----------------------------------------------------------------------


    Psi4 started on: Thursday, 04 January 2024 04:40PM

    Process ID: 490503
    Host:       moses-razer
    PSIDATADIR: /home/kchung25/anaconda3/envs/psi4_19/share/psi4
    Memory:     500.0 MiB
    Threads:    6
    
  ==> Input File <==

--------------------------------------------------------------------------
MEMORY 60 GB

molecule dimer {
0 1
O      0.000000     0.000000     0.000000
H     -0.588538     0.756918     0.000000
H     -0.588538    -0.756918     0.000000
--
-1 1
Cl     3.852000     0.000000     0.000000

units ang
no_reorient
no_com
symmetry c1
}

set {
basis        aug-cc-pVTZ
scf_type     df
}

energy("mp2", bsse_type="cp")
--------------------------------------------------------------------------

  Memory set to  55.879 GiB by Python driver.

Scratch directory: /scratch/

  //>>>>>>>>>>>>>>>>>>>>>>>>>>>>>>>>>>>>>//
  // ManyBody Setup: N-Body Levels [1, 2]//
  //<<<<<<<<<<<<<<<<<<<<<<<<<<<<<<<<<<<<<//

        Number of 1-body computations:     2
        Number of 2-body computations:     1

    -----------------------------------------------------------------------
          Psi4: An Open-Source Ab Initio Electronic Structure Package
                               Psi4 1.9 release

                         Git: Rev {} zzzzzzz 


    D. G. A. Smith, L. A. Burns, A. C. Simmonett, R. M. Parrish,
    M. C. Schieber, R. Galvelis, P. Kraus, H. Kruse, R. Di Remigio,
    A. Alenaizan, A. M. James, S. Lehtola, J. P. Misiewicz, M. Scheurer,
    R. A. Shaw, J. B. Schriber, Y. Xie, Z. L. Glick, D. A. Sirianni,
    J. S. O'Brien, J. M. Waldrop, A. Kumar, E. G. Hohenstein,
    B. P. Pritchard, B. R. Brooks, H. F. Schaefer III, A. Yu. Sokolov,
    K. Patkowski, A. E. DePrince III, U. Bozkaya, R. A. King,
    F. A. Evangelista, J. M. Turney, T. D. Crawford, C. D. Sherrill,
    J. Chem. Phys. 152(18) 184108 (2020). https://doi.org/10.1063/5.0006002

                            Additional Code Authors
    E. T. Seidl, C. L. Janssen, E. F. Valeev, M. L. Leininger,
    J. F. Gonthier, R. M. Richard, H. R. McAlexander, M. Saitow, X. Wang,
    P. Verma, M. H. Lechner, A. Jiang, S. Behnle, A. G. Heide,
    M. F. Herbst, and D. L. Poole

             Previous Authors, Complete List of Code Contributors,
                       and Citations for Specific Modules
    https://github.com/psi4/psi4/blob/master/codemeta.json
    https://github.com/psi4/psi4/graphs/contributors
    http://psicode.org/psi4manual/master/introduction.html#citing-psifour

    -----------------------------------------------------------------------


    Psi4 started on: Thursday, 04 January 2024 04:40PM

    Process ID: 490503
    Host:       moses-razer
    PSIDATADIR: /home/kchung25/anaconda3/envs/psi4_19/share/psi4
    Memory:     55.9 GiB
    Threads:    6
    
  ==> Input QCSchema <==

--------------------------------------------------------------------------
{'driver': 'energy',
 'extras': {'psiapi': True, 'wfn_qcvars_only': True},
 'id': None,
 'keywords': {'SCF_TYPE': 'DF', 'function_kwargs': {}},
 'model': {'basis': 'aug-cc-pvtz', 'method': 'mp2'},
 'molecule': {'atom_labels': ['', '', '', ''],
              'atomic_numbers': [8, 1, 1, 17],
              'extras': {},
              'fix_com': True,
              'fix_orientation': True,
              'fix_symmetry': 'c1',
              'fragment_charges': [0.0, -1.0],
              'fragment_multiplicities': [1, 1],
              'fragments': [[0, 1, 2], [3]],
              'geometry': [0.0, 0.0, 0.0, -1.1121756344246994, 1.4303677194292883, 0.0, -1.1121756344246994,
                           -1.4303677194292883, 0.0, 7.279225035263554, 0.0, 0.0],
              'mass_numbers': [16, 1, 1, 35],
              'masses': [15.99491461957, 1.00782503223, 1.00782503223, 34.968852682],
              'molecular_charge': -1.0,
              'molecular_multiplicity': 1,
              'name': 'dimer',
              'provenance': {'creator': 'QCElemental',
                             'routine': 'qcelemental.molparse.from_string',
                             'version': '0.27.1'},
              'real': [False, False, False, True],
              'schema_name': 'qcschema_molecule',
              'schema_version': 2,
              'symbols': ['O', 'H', 'H', 'Cl'],
              'validated': True},
 'protocols': {'stdout': True},
 'provenance': {'creator': 'QCElemental', 'routine': 'qcelemental.models.results', 'version': '0.27.1'},
 'schema_name': 'qcschema_input',
 'schema_version': 1}
--------------------------------------------------------------------------

Scratch directory: /scratch/
   => Libint2 <=

    Primary   basis highest AM E, G, H:  5, 4, 3
    Auxiliary basis highest AM E, G, H:  6, 5, 4
    Onebody   basis highest AM E, G, H:  6, 5, 4
    Solid Harmonics ordering:            gaussian

*** tstart() called on moses-razer
*** at Thu Jan  4 16:40:31 2024

   => Loading Basis Set <=

    Name: AUG-CC-PVTZ
    Role: ORBITAL
    Keyword: BASIS
    atoms 1   entry O          line   331 file /home/kchung25/anaconda3/envs/p415env/share/psi4/basis/aug-cc-pvtz.gbs 
    atoms 2-3 entry H          line    40 file /home/kchung25/anaconda3/envs/p415env/share/psi4/basis/aug-cc-pvtz.gbs 
    atoms 4   entry CL         line   988 file /home/kchung25/anaconda3/envs/p415env/share/psi4/basis/aug-cc-pvtz.gbs 


         ---------------------------------------------------------
                                   SCF
               by Justin Turney, Rob Parrish, Andy Simmonett
                          and Daniel G. A. Smith
                              RHF Reference
                        6 Threads,  57220 MiB Core
         ---------------------------------------------------------

  ==> Geometry <==

    Molecular point group: c1
    Full point group: C2v

    Geometry (in Bohr), charge = -1, multiplicity = 1:

       Center              X                  Y                   Z               Mass       
    ------------   -----------------  -----------------  -----------------  -----------------
      Gh(O)           0.000000000000     0.000000000000     0.000000000000    15.994914619570
      Gh(H)          -1.112175634425     1.430367719429     0.000000000000     1.007825032230
      Gh(H)          -1.112175634425    -1.430367719429     0.000000000000     1.007825032230
         CL           7.279225035264     0.000000000000     0.000000000000    34.968852682000

  Running in c1 symmetry.

  Rotational constants: A =     14.59768  B =      0.03245  C =      0.03237 [cm^-1]
  Rotational constants: A = 437627.28990  B =    972.70080  C =    970.54360 [MHz]
  Nuclear repulsion =    0.000000000000000

  Charge       = -1
  Multiplicity = 1
  Electrons    = 18
  Nalpha       = 9
  Nbeta        = 9

  ==> Algorithm <==

  SCF Algorithm Type is DF.
  DIIS enabled.
  MOM disabled.
  Fractional occupation disabled.
  Guess Type is SAD.
  Energy threshold   = 1.00e-08
  Density threshold  = 1.00e-08
  Integral threshold = 1.00e-12

  ==> Primary Basis <==

  Basis Set: AUG-CC-PVTZ
    Blend: AUG-CC-PVTZ
    Number of shells: 48
    Number of basis functions: 142
    Number of Cartesian functions: 164
    Spherical Harmonics?: true
    Max angular momentum: 3

   => Loading Basis Set <=

    Name: (AUG-CC-PVTZ AUX)
    Role: JKFIT
    Keyword: DF_BASIS_SCF
    atoms 1   entry O          line   286 file /home/kchung25/anaconda3/envs/p415env/share/psi4/basis/aug-cc-pvtz-jkfit.gbs 
    atoms 2-3 entry H          line    70 file /home/kchung25/anaconda3/envs/p415env/share/psi4/basis/aug-cc-pvtz-jkfit.gbs 
    atoms 4   entry CL         line   816 file /home/kchung25/anaconda3/envs/p415env/share/psi4/basis/aug-cc-pvtz-jkfit.gbs 

  ==> Integral Setup <==

  DFHelper Memory: AOs need 0.056 GiB; user supplied 41.910 GiB. 
  Using in-core AOs.

  ==> MemDFJK: Density-Fitted J/K Matrices <==

    J tasked:                   Yes
    K tasked:                   Yes
    wK tasked:                   No
    OpenMP threads:               6
    Memory [MiB]:             42915
    Algorithm:                 Core
    Schwarz Cutoff:           1E-12
    Mask sparsity (%):       3.2434
    Fitting Condition:        1E-10

   => Auxiliary Basis Set <=

  Basis Set: (AUG-CC-PVTZ AUX)
    Blend: AUG-CC-PVTZ-JKFIT
    Number of shells: 100
    Number of basis functions: 342
    Number of Cartesian functions: 421
    Spherical Harmonics?: true
    Max angular momentum: 4

  Minimum eigenvalue in the overlap matrix is 3.7175162096E-04.
  Reciprocal condition number of the overlap matrix is 5.3534978240E-05.
    Using symmetric orthogonalization.

  ==> Pre-Iterations <==

  SCF Guess: Superposition of Atomic Densities via on-the-fly atomic UHF (no occupation information).

   -------------------------
    Irrep   Nso     Nmo    
   -------------------------
     A        142     142 
   -------------------------
    Total     142     142
   -------------------------

  ==> Iterations <==

                           Total Energy        Delta E     RMS |[F,P]|

   @DF-RHF iter SAD:  -459.11248994644887   -4.59112e+02   0.00000e+00 
   @DF-RHF iter   1:  -459.51389359982539   -4.01404e-01   2.09942e-03 DIIS/ADIIS
   @DF-RHF iter   2:  -459.56473216094787   -5.08386e-02   1.07205e-03 DIIS/ADIIS
   @DF-RHF iter   3:  -459.57342878607358   -8.69663e-03   7.00888e-05 DIIS
   @DF-RHF iter   4:  -459.57348290127453   -5.41152e-05   1.45509e-05 DIIS
   @DF-RHF iter   5:  -459.57348666221270   -3.76094e-06   1.49920e-06 DIIS
   @DF-RHF iter   6:  -459.57348673494602   -7.27333e-08   8.01085e-08 DIIS
   @DF-RHF iter   7:  -459.57348673516429   -2.18279e-10   1.04551e-08 DIIS
   @DF-RHF iter   8:  -459.57348673517214   -7.84439e-12   1.95371e-09 DIIS
  Energy and wave function converged.


  ==> Post-Iterations <==

    Orbital Energies [Eh]
    ---------------------

    Doubly Occupied:                                                      

       1A   -104.506011     2A    -10.229752     3A     -7.695786  
       4A     -7.695786     5A     -7.695780     6A     -0.733509  
       7A     -0.150338     8A     -0.150333     9A     -0.150333  

    Virtual:                                                              

      10A      0.126529    11A      0.138954    12A      0.236884  
      13A      0.256237    14A      0.284741    15A      0.285346  
      16A      0.294750    17A      0.294918    18A      0.299273  
      19A      0.382332    20A      0.388271    21A      0.396274  
      22A      0.413803    23A      0.430991    24A      0.473033  
      25A      0.497098    26A      0.512608    27A      0.545534  
      28A      0.595667    29A      0.595698    30A      0.617925  
      31A      0.636831    32A      0.661232    33A      0.740774  
      34A      0.784666    35A      0.874929    36A      0.881838  
      37A      0.886883    38A      0.892776    39A      0.923541  
      40A      0.925154    41A      0.943762    42A      0.953448  
      43A      0.979765    44A      1.027404    45A      1.029348  
      46A      1.086133    47A      1.086471    48A      1.116297  
      49A      1.153806    50A      1.165917    51A      1.199343  
      52A      1.221418    53A      1.221760    54A      1.230606  
      55A      1.233612    56A      1.268420    57A      1.299368  
      58A      1.328926    59A      1.330479    60A      1.362715  
      61A      1.468022    62A      1.468126    63A      1.469006  
      64A      1.469636    65A      1.469911    66A      1.484517  
      67A      1.525925    68A      1.578458    69A      1.637429  
      70A      1.811564    71A      1.815879    72A      1.842475  
      73A      1.966146    74A      1.986361    75A      2.173024  
      76A      2.494564    77A      2.515264    78A      2.648071  
      79A      2.677760    80A      2.681311    81A      2.681973  
      82A      2.683845    83A      2.791904    84A      2.829143  
      85A      2.829946    86A      2.848341    87A      2.856518  
      88A      2.900737    89A      2.987890    90A      2.990368  
      91A      3.011138    92A      3.058745    93A      3.276337  
      94A      3.285891    95A      3.287920    96A      3.373571  
      97A      3.373583    98A      3.373739    99A      3.375066  
     100A      3.382677   101A      3.417804   102A      3.433766  
     103A      3.438301   104A      3.468299   105A      3.662225  
     106A      3.782070   107A      4.468455   108A      4.548325  
     109A      4.608459   110A      4.727067   111A      4.765816  
     112A      4.769972   113A      4.980066   114A      4.990991  
     115A      4.998520   116A      5.312160   117A      5.498792  
     118A      5.668986   119A      5.731505   120A      5.778757  
     121A      5.963870   122A      6.222360   123A      6.513624  
     124A      6.746533   125A      7.196624   126A      7.800433  
     127A      7.949129   128A      8.184801   129A      8.297508  
     130A      8.417440   131A      8.868264   132A      8.963906  
     133A      9.784520   134A      9.965889   135A     10.123625  
     136A     10.359289   137A     11.375598   138A     11.741044  
     139A     12.241124   140A     13.626179   141A     13.906022  
     142A     64.721805  

    Final Occupation by Irrep:
              A 
    DOCC [     9 ]
    NA   [     9 ]
    NB   [     9 ]

  @DF-RHF Final Energy:  -459.57348673517214

   => Energetics <=

    Nuclear Repulsion Energy =              0.0000000000000000
    One-Electron Energy =                -641.1317135531257918
    Two-Electron Energy =                 181.5582268179536527
    Total Energy =                       -459.5734867351721391

Computation Completed


Properties will be evaluated at   0.000000,   0.000000,   0.000000 [a0]

Properties computed using the SCF density matrix


 Multipole Moments:

 ------------------------------------------------------------------------------------
     Multipole            Electronic (a.u.)      Nuclear  (a.u.)        Total (a.u.)
 ------------------------------------------------------------------------------------

 L = 1.  Multiply by 2.5417464519 to convert [e a0] to [Debye]
 Dipole X            :       -131.0257265          123.7468256           -7.2789009
 Dipole Y            :          0.0000000            0.0000000            0.0000000
 Dipole Z            :         -0.0000000            0.0000000           -0.0000000
 Magnitude           :                                                    7.2789009

 ------------------------------------------------------------------------------------

*** tstop() called on moses-razer at Thu Jan  4 16:40:32 2024
Module time:
	user time   =       4.28 seconds =       0.07 minutes
	system time =       0.34 seconds =       0.01 minutes
	total time  =          1 seconds =       0.02 minutes
Total time:
	user time   =       4.28 seconds =       0.07 minutes
	system time =       0.34 seconds =       0.01 minutes
	total time  =          1 seconds =       0.02 minutes

*** tstart() called on moses-razer
*** at Thu Jan  4 16:40:32 2024


  //>>>>>>>>>>>>>>>>>>>>>>>>>>>>>>>>>>>//
  //               DFMP2               //
  //<<<<<<<<<<<<<<<<<<<<<<<<<<<<<<<<<<<//

   => Loading Basis Set <=

    Name: (AUG-CC-PVTZ AUX)
    Role: RIFIT
    Keyword: DF_BASIS_MP2
    atoms 1   entry O          line   264 file /home/kchung25/anaconda3/envs/p415env/share/psi4/basis/aug-cc-pvtz-ri.gbs 
    atoms 2-3 entry H          line    30 file /home/kchung25/anaconda3/envs/p415env/share/psi4/basis/aug-cc-pvtz-ri.gbs 
    atoms 4   entry CL         line   742 file /home/kchung25/anaconda3/envs/p415env/share/psi4/basis/aug-cc-pvtz-ri.gbs 

	 --------------------------------------------------------
	                          DF-MP2                         
	      2nd-Order Density-Fitted Moller-Plesset Theory     
	              RMP2 Wavefunction,   6 Threads             
	                                                         
	        Rob Parrish, Justin Turney, Andy Simmonett,      
	           Ed Hohenstein, and C. David Sherrill          
	 --------------------------------------------------------

   => Auxiliary Basis Set <=

  Basis Set: (AUG-CC-PVTZ AUX)
    Blend: AUG-CC-PVTZ-RI
    Number of shells: 93
    Number of basis functions: 345
    Number of Cartesian functions: 437
    Spherical Harmonics?: true
    Max angular momentum: 4

	 --------------------------------------------------------
	                 NBF =   142, NAUX =   345
	 --------------------------------------------------------
	   CLASS    FOCC     OCC    AOCC    AVIR     VIR    FVIR
	   PAIRS       0       9       9     133     133       0
	 --------------------------------------------------------

	-----------------------------------------------------------
	 ==================> DF-MP2 Energies <==================== 
	-----------------------------------------------------------
	 Reference Energy          =    -459.5734867351721391 [Eh]
	 Singles Energy            =      -0.0000000000000000 [Eh]
	 Same-Spin Energy          =      -0.0623155003704418 [Eh]
	 Opposite-Spin Energy      =      -0.1787961454505862 [Eh]
	 Correlation Energy        =      -0.2411116458210280 [Eh]
	 Total Energy              =    -459.8145983809931749 [Eh]
	-----------------------------------------------------------
	 ================> DF-SCS-MP2 Energies <================== 
	-----------------------------------------------------------
	 SCS Same-Spin Scale       =       0.3333333333333333 [-]
	 SCS Opposite-Spin Scale   =       1.2000000000000000 [-]
	 SCS Same-Spin Energy      =      -0.0207718334568139 [Eh]
	 SCS Opposite-Spin Energy  =      -0.2145553745407034 [Eh]
	 SCS Correlation Energy    =      -0.2353272079975174 [Eh]
	 SCS Total Energy          =    -459.8088139431696391 [Eh]
	-----------------------------------------------------------


*** tstop() called on moses-razer at Thu Jan  4 16:40:32 2024
Module time:
	user time   =       1.75 seconds =       0.03 minutes
	system time =       0.14 seconds =       0.00 minutes
	total time  =          0 seconds =       0.00 minutes
Total time:
	user time   =       6.04 seconds =       0.10 minutes
	system time =       0.48 seconds =       0.01 minutes
	total time  =          1 seconds =       0.02 minutes

    Psi4 stopped on: Thursday, 04 January 2024 04:40PM
    Psi4 wall time for execution: 0:00:01.22


    -----------------------------------------------------------------------
          Psi4: An Open-Source Ab Initio Electronic Structure Package
                               Psi4 1.9 release

                         Git: Rev {} zzzzzzz 


    D. G. A. Smith, L. A. Burns, A. C. Simmonett, R. M. Parrish,
    M. C. Schieber, R. Galvelis, P. Kraus, H. Kruse, R. Di Remigio,
    A. Alenaizan, A. M. James, S. Lehtola, J. P. Misiewicz, M. Scheurer,
    R. A. Shaw, J. B. Schriber, Y. Xie, Z. L. Glick, D. A. Sirianni,
    J. S. O'Brien, J. M. Waldrop, A. Kumar, E. G. Hohenstein,
    B. P. Pritchard, B. R. Brooks, H. F. Schaefer III, A. Yu. Sokolov,
    K. Patkowski, A. E. DePrince III, U. Bozkaya, R. A. King,
    F. A. Evangelista, J. M. Turney, T. D. Crawford, C. D. Sherrill,
    J. Chem. Phys. 152(18) 184108 (2020). https://doi.org/10.1063/5.0006002

                            Additional Code Authors
    E. T. Seidl, C. L. Janssen, E. F. Valeev, M. L. Leininger,
    J. F. Gonthier, R. M. Richard, H. R. McAlexander, M. Saitow, X. Wang,
    P. Verma, M. H. Lechner, A. Jiang, S. Behnle, A. G. Heide,
    M. F. Herbst, and D. L. Poole

             Previous Authors, Complete List of Code Contributors,
                       and Citations for Specific Modules
    https://github.com/psi4/psi4/blob/master/codemeta.json
    https://github.com/psi4/psi4/graphs/contributors
    http://psicode.org/psi4manual/master/introduction.html#citing-psifour

    -----------------------------------------------------------------------


    Psi4 started on: Thursday, 04 January 2024 04:40PM

    Process ID: 490503
    Host:       moses-razer
    PSIDATADIR: /home/kchung25/anaconda3/envs/psi4_19/share/psi4
    Memory:     55.9 GiB
    Threads:    6
    
  ==> Input QCSchema <==

--------------------------------------------------------------------------
{'driver': 'energy',
 'extras': {'psiapi': True, 'wfn_qcvars_only': True},
 'id': None,
 'keywords': {'SCF_TYPE': 'DF', 'function_kwargs': {}},
 'model': {'basis': 'aug-cc-pvtz', 'method': 'mp2'},
 'molecule': {'atom_labels': ['', '', '', ''],
              'atomic_numbers': [8, 1, 1, 17],
              'extras': {},
              'fix_com': True,
              'fix_orientation': True,
              'fix_symmetry': 'c1',
              'fragment_charges': [0.0, 0.0],
              'fragment_multiplicities': [1, 1],
              'fragments': [[0, 1, 2], [3]],
              'geometry': [0.0, 0.0, 0.0, -1.1121756344246994, 1.4303677194292883, 0.0, -1.1121756344246994,
                           -1.4303677194292883, 0.0, 7.279225035263554, 0.0, 0.0],
              'mass_numbers': [16, 1, 1, 35],
              'masses': [15.99491461957, 1.00782503223, 1.00782503223, 34.968852682],
              'molecular_charge': 0.0,
              'molecular_multiplicity': 1,
              'name': 'dimer',
              'provenance': {'creator': 'QCElemental',
                             'routine': 'qcelemental.molparse.from_string',
                             'version': '0.27.1'},
              'real': [True, True, True, False],
              'schema_name': 'qcschema_molecule',
              'schema_version': 2,
              'symbols': ['O', 'H', 'H', 'Cl'],
              'validated': True},
 'protocols': {'stdout': True},
 'provenance': {'creator': 'QCElemental', 'routine': 'qcelemental.models.results', 'version': '0.27.1'},
 'schema_name': 'qcschema_input',
 'schema_version': 1}
--------------------------------------------------------------------------

Scratch directory: /scratch/
   => Libint2 <=

    Primary   basis highest AM E, G, H:  5, 4, 3
    Auxiliary basis highest AM E, G, H:  6, 5, 4
    Onebody   basis highest AM E, G, H:  6, 5, 4
    Solid Harmonics ordering:            gaussian

*** tstart() called on moses-razer
*** at Thu Jan  4 16:40:32 2024

   => Loading Basis Set <=

    Name: AUG-CC-PVTZ
    Role: ORBITAL
    Keyword: BASIS
    atoms 1   entry O          line   331 file /home/kchung25/anaconda3/envs/p415env/share/psi4/basis/aug-cc-pvtz.gbs 
    atoms 2-3 entry H          line    40 file /home/kchung25/anaconda3/envs/p415env/share/psi4/basis/aug-cc-pvtz.gbs 
    atoms 4   entry CL         line   988 file /home/kchung25/anaconda3/envs/p415env/share/psi4/basis/aug-cc-pvtz.gbs 


         ---------------------------------------------------------
                                   SCF
               by Justin Turney, Rob Parrish, Andy Simmonett
                          and Daniel G. A. Smith
                              RHF Reference
                        6 Threads,  57220 MiB Core
         ---------------------------------------------------------

  ==> Geometry <==

    Molecular point group: c1
    Full point group: C2v

    Geometry (in Bohr), charge = 0, multiplicity = 1:

       Center              X                  Y                   Z               Mass       
    ------------   -----------------  -----------------  -----------------  -----------------
         O            0.000000000000     0.000000000000     0.000000000000    15.994914619570
         H           -1.112175634425     1.430367719429     0.000000000000     1.007825032230
         H           -1.112175634425    -1.430367719429     0.000000000000     1.007825032230
      Gh(CL)          7.279225035264     0.000000000000     0.000000000000    34.968852682000

  Running in c1 symmetry.

  Rotational constants: A =     14.59768  B =      0.03245  C =      0.03237 [cm^-1]
  Rotational constants: A = 437627.28990  B =    972.70080  C =    970.54360 [MHz]
  Nuclear repulsion =    9.180197847927069

  Charge       = 0
  Multiplicity = 1
  Electrons    = 10
  Nalpha       = 5
  Nbeta        = 5

  ==> Algorithm <==

  SCF Algorithm Type is DF.
  DIIS enabled.
  MOM disabled.
  Fractional occupation disabled.
  Guess Type is SAD.
  Energy threshold   = 1.00e-08
  Density threshold  = 1.00e-08
  Integral threshold = 1.00e-12

  ==> Primary Basis <==

  Basis Set: AUG-CC-PVTZ
    Blend: AUG-CC-PVTZ
    Number of shells: 48
    Number of basis functions: 142
    Number of Cartesian functions: 164
    Spherical Harmonics?: true
    Max angular momentum: 3

   => Loading Basis Set <=

    Name: (AUG-CC-PVTZ AUX)
    Role: JKFIT
    Keyword: DF_BASIS_SCF
    atoms 1   entry O          line   286 file /home/kchung25/anaconda3/envs/p415env/share/psi4/basis/aug-cc-pvtz-jkfit.gbs 
    atoms 2-3 entry H          line    70 file /home/kchung25/anaconda3/envs/p415env/share/psi4/basis/aug-cc-pvtz-jkfit.gbs 
    atoms 4   entry CL         line   816 file /home/kchung25/anaconda3/envs/p415env/share/psi4/basis/aug-cc-pvtz-jkfit.gbs 

  ==> Integral Setup <==

  DFHelper Memory: AOs need 0.056 GiB; user supplied 41.910 GiB. 
  Using in-core AOs.

  ==> MemDFJK: Density-Fitted J/K Matrices <==

    J tasked:                   Yes
    K tasked:                   Yes
    wK tasked:                   No
    OpenMP threads:               6
    Memory [MiB]:             42915
    Algorithm:                 Core
    Schwarz Cutoff:           1E-12
    Mask sparsity (%):       3.2434
    Fitting Condition:        1E-10

   => Auxiliary Basis Set <=

  Basis Set: (AUG-CC-PVTZ AUX)
    Blend: AUG-CC-PVTZ-JKFIT
    Number of shells: 100
    Number of basis functions: 342
    Number of Cartesian functions: 421
    Spherical Harmonics?: true
    Max angular momentum: 4

  Minimum eigenvalue in the overlap matrix is 3.7175162096E-04.
  Reciprocal condition number of the overlap matrix is 5.3534978240E-05.
    Using symmetric orthogonalization.

  ==> Pre-Iterations <==

  SCF Guess: Superposition of Atomic Densities via on-the-fly atomic UHF (no occupation information).

   -------------------------
    Irrep   Nso     Nmo    
   -------------------------
     A        142     142 
   -------------------------
    Total     142     142
   -------------------------

  ==> Iterations <==

                           Total Energy        Delta E     RMS |[F,P]|

   @DF-RHF iter SAD:   -75.47651207591034   -7.54765e+01   0.00000e+00 
   @DF-RHF iter   1:   -75.97615451902777   -4.99642e-01   3.29963e-03 DIIS/ADIIS
   @DF-RHF iter   2:   -76.02867541796455   -5.25209e-02   2.24760e-03 DIIS/ADIIS
   @DF-RHF iter   3:   -76.06006667747479   -3.13913e-02   1.54021e-04 DIIS/ADIIS
   @DF-RHF iter   4:   -76.06045835189001   -3.91674e-04   3.63360e-05 DIIS
   @DF-RHF iter   5:   -76.06048243527157   -2.40834e-05   8.28149e-06 DIIS
   @DF-RHF iter   6:   -76.06048441095777   -1.97569e-06   1.81224e-06 DIIS
   @DF-RHF iter   7:   -76.06048451513786   -1.04180e-07   3.26595e-07 DIIS
   @DF-RHF iter   8:   -76.06048451810298   -2.96512e-09   5.42032e-08 DIIS
   @DF-RHF iter   9:   -76.06048451816726   -6.42757e-11   1.33947e-08 DIIS
   @DF-RHF iter  10:   -76.06048451817125   -3.99325e-12   1.96172e-09 DIIS
  Energy and wave function converged.


  ==> Post-Iterations <==

    Orbital Energies [Eh]
    ---------------------

    Doubly Occupied:                                                      

       1A    -20.567591     2A     -1.352980     3A     -0.716514  
       4A     -0.585133     5A     -0.510308  

    Virtual:                                                              

       6A      0.028261     7A      0.047453     8A      0.080310  
       9A      0.104317    10A      0.109050    11A      0.128409  
      12A      0.150430    13A      0.171160    14A      0.182981  
      15A      0.212580    16A      0.241334    17A      0.265140  
      18A      0.280657    19A      0.310576    20A      0.336036  
      21A      0.368513    22A      0.406051    23A      0.412032  
      24A      0.417343    25A      0.426499    26A      0.439690  
      27A      0.441676    28A      0.465366    29A      0.468225  
      30A      0.478497    31A      0.496912    32A      0.562011  
      33A      0.607831    34A      0.667906    35A      0.722525  
      36A      0.738135    37A      0.755062    38A      0.843598  
      39A      0.848165    40A      0.887060    41A      0.914253  
      42A      0.922863    43A      0.929469    44A      0.952543  
      45A      1.002926    46A      1.046802    47A      1.058494  
      48A      1.087967    49A      1.104510    50A      1.176180  
      51A      1.192232    52A      1.237187    53A      1.307228  
      54A      1.307263    55A      1.309524    56A      1.310062  
      57A      1.314440    58A      1.316728    59A      1.319189  
      60A      1.323783    61A      1.373737    62A      1.375221  
      63A      1.424551    64A      1.480696    65A      1.482724  
      66A      1.511911    67A      1.512821    68A      1.529552  
      69A      1.591640    70A      1.592600    71A      1.655814  
      72A      1.820401    73A      1.828501    74A      1.989160  
      75A      2.120855    76A      2.265077    77A      2.316710  
      78A      2.364166    79A      2.422987    80A      2.446465  
      81A      2.446734    82A      2.487504    83A      2.681970  
      84A      2.703096    85A      2.786531    86A      2.835565  
      87A      2.885486    88A      3.664125    89A      3.746761  
      90A      3.937097    91A      3.937108    92A      3.937911  
      93A      3.938408    94A      3.944632    95A      3.953865  
      96A      3.955431    97A      3.956351    98A      3.964660  
      99A      4.001089   100A      4.019800   101A      4.024085  
     102A      4.088118   103A      4.192003   104A      4.254318  
     105A      4.290910   106A      4.378981   107A      4.411145  
     108A      4.411500   109A      4.521529   110A      4.673999  
     111A      4.674236   112A      4.692728   113A      4.700204  
     114A      4.722852   115A      4.773316   116A      4.850477  
     117A      5.151615   118A      5.156124   119A      5.258078  
     120A      5.336175   121A      5.529057   122A      5.684046  
     123A      6.188953   124A      6.525011   125A      6.715693  
     126A      6.906394   127A      7.140934   128A      7.264570  
     129A      7.317763   130A      7.320728   131A      7.355705  
     132A      7.362635   133A      7.545869   134A      7.914600  
     135A      7.932772   136A      8.818651   137A     13.753265  
     138A     15.810599   139A     27.724844   140A     27.729242  
     141A     27.775135   142A    160.727613  

    Final Occupation by Irrep:
              A 
    DOCC [     5 ]
    NA   [     5 ]
    NB   [     5 ]

  @DF-RHF Final Energy:   -76.06048451817125

   => Energetics <=

    Nuclear Repulsion Energy =              9.1801978479270687
    One-Electron Energy =                -123.0163136068230472
    Two-Electron Energy =                  37.7756312407247208
    Total Energy =                        -76.0604845181712506

Computation Completed


Properties will be evaluated at   0.000000,   0.000000,   0.000000 [a0]

Properties computed using the SCF density matrix


 Multipole Moments:

 ------------------------------------------------------------------------------------
     Multipole            Electronic (a.u.)      Nuclear  (a.u.)        Total (a.u.)
 ------------------------------------------------------------------------------------

 L = 1.  Multiply by 2.5417464519 to convert [e a0] to [Debye]
 Dipole X            :          1.4420480           -2.2243513           -0.7823032
 Dipole Y            :          0.0000000            0.0000000            0.0000000
 Dipole Z            :         -0.0000000            0.0000000           -0.0000000
 Magnitude           :                                                    0.7823032

 ------------------------------------------------------------------------------------

*** tstop() called on moses-razer at Thu Jan  4 16:40:33 2024
Module time:
	user time   =       3.49 seconds =       0.06 minutes
	system time =       0.19 seconds =       0.00 minutes
	total time  =          1 seconds =       0.02 minutes
Total time:
	user time   =       9.79 seconds =       0.16 minutes
	system time =       0.67 seconds =       0.01 minutes
	total time  =          2 seconds =       0.03 minutes

*** tstart() called on moses-razer
*** at Thu Jan  4 16:40:33 2024


  //>>>>>>>>>>>>>>>>>>>>>>>>>>>>>>>>>>>//
  //               DFMP2               //
  //<<<<<<<<<<<<<<<<<<<<<<<<<<<<<<<<<<<//

   => Loading Basis Set <=

    Name: (AUG-CC-PVTZ AUX)
    Role: RIFIT
    Keyword: DF_BASIS_MP2
    atoms 1   entry O          line   264 file /home/kchung25/anaconda3/envs/p415env/share/psi4/basis/aug-cc-pvtz-ri.gbs 
    atoms 2-3 entry H          line    30 file /home/kchung25/anaconda3/envs/p415env/share/psi4/basis/aug-cc-pvtz-ri.gbs 
    atoms 4   entry CL         line   742 file /home/kchung25/anaconda3/envs/p415env/share/psi4/basis/aug-cc-pvtz-ri.gbs 

	 --------------------------------------------------------
	                          DF-MP2                         
	      2nd-Order Density-Fitted Moller-Plesset Theory     
	              RMP2 Wavefunction,   6 Threads             
	                                                         
	        Rob Parrish, Justin Turney, Andy Simmonett,      
	           Ed Hohenstein, and C. David Sherrill          
	 --------------------------------------------------------

   => Auxiliary Basis Set <=

  Basis Set: (AUG-CC-PVTZ AUX)
    Blend: AUG-CC-PVTZ-RI
    Number of shells: 93
    Number of basis functions: 345
    Number of Cartesian functions: 437
    Spherical Harmonics?: true
    Max angular momentum: 4

	 --------------------------------------------------------
	                 NBF =   142, NAUX =   345
	 --------------------------------------------------------
	   CLASS    FOCC     OCC    AOCC    AVIR     VIR    FVIR
	   PAIRS       0       5       5     137     137       0
	 --------------------------------------------------------

	-----------------------------------------------------------
	 ==================> DF-MP2 Energies <==================== 
	-----------------------------------------------------------
	 Reference Energy          =     -76.0604845181712506 [Eh]
	 Singles Energy            =      -0.0000000000000000 [Eh]
	 Same-Spin Energy          =      -0.0683694278355269 [Eh]
	 Opposite-Spin Energy      =      -0.2152684312614575 [Eh]
	 Correlation Energy        =      -0.2836378590969844 [Eh]
	 Total Energy              =     -76.3441223772682349 [Eh]
	-----------------------------------------------------------
	 ================> DF-SCS-MP2 Energies <================== 
	-----------------------------------------------------------
	 SCS Same-Spin Scale       =       0.3333333333333333 [-]
	 SCS Opposite-Spin Scale   =       1.2000000000000000 [-]
	 SCS Same-Spin Energy      =      -0.0227898092785090 [Eh]
	 SCS Opposite-Spin Energy  =      -0.2583221175137490 [Eh]
	 SCS Correlation Energy    =      -0.2811119267922579 [Eh]
	 SCS Total Energy          =     -76.3415964449635140 [Eh]
	-----------------------------------------------------------


*** tstop() called on moses-razer at Thu Jan  4 16:40:33 2024
Module time:
	user time   =       1.71 seconds =       0.03 minutes
	system time =       0.13 seconds =       0.00 minutes
	total time  =          0 seconds =       0.00 minutes
Total time:
	user time   =      11.50 seconds =       0.19 minutes
	system time =       0.80 seconds =       0.01 minutes
	total time  =          2 seconds =       0.03 minutes

    Psi4 stopped on: Thursday, 04 January 2024 04:40PM
    Psi4 wall time for execution: 0:00:01.04


    -----------------------------------------------------------------------
          Psi4: An Open-Source Ab Initio Electronic Structure Package
                               Psi4 1.9 release

                         Git: Rev {} zzzzzzz 


    D. G. A. Smith, L. A. Burns, A. C. Simmonett, R. M. Parrish,
    M. C. Schieber, R. Galvelis, P. Kraus, H. Kruse, R. Di Remigio,
    A. Alenaizan, A. M. James, S. Lehtola, J. P. Misiewicz, M. Scheurer,
    R. A. Shaw, J. B. Schriber, Y. Xie, Z. L. Glick, D. A. Sirianni,
    J. S. O'Brien, J. M. Waldrop, A. Kumar, E. G. Hohenstein,
    B. P. Pritchard, B. R. Brooks, H. F. Schaefer III, A. Yu. Sokolov,
    K. Patkowski, A. E. DePrince III, U. Bozkaya, R. A. King,
    F. A. Evangelista, J. M. Turney, T. D. Crawford, C. D. Sherrill,
    J. Chem. Phys. 152(18) 184108 (2020). https://doi.org/10.1063/5.0006002

                            Additional Code Authors
    E. T. Seidl, C. L. Janssen, E. F. Valeev, M. L. Leininger,
    J. F. Gonthier, R. M. Richard, H. R. McAlexander, M. Saitow, X. Wang,
    P. Verma, M. H. Lechner, A. Jiang, S. Behnle, A. G. Heide,
    M. F. Herbst, and D. L. Poole

             Previous Authors, Complete List of Code Contributors,
                       and Citations for Specific Modules
    https://github.com/psi4/psi4/blob/master/codemeta.json
    https://github.com/psi4/psi4/graphs/contributors
    http://psicode.org/psi4manual/master/introduction.html#citing-psifour

    -----------------------------------------------------------------------


    Psi4 started on: Thursday, 04 January 2024 04:40PM

    Process ID: 490503
    Host:       moses-razer
    PSIDATADIR: /home/kchung25/anaconda3/envs/psi4_19/share/psi4
    Memory:     55.9 GiB
    Threads:    6
    
  ==> Input QCSchema <==

--------------------------------------------------------------------------
{'driver': 'energy',
 'extras': {'psiapi': True, 'wfn_qcvars_only': True},
 'id': None,
 'keywords': {'SCF_TYPE': 'DF', 'function_kwargs': {}},
 'model': {'basis': 'aug-cc-pvtz', 'method': 'mp2'},
 'molecule': {'atom_labels': ['', '', '', ''],
              'atomic_numbers': [8, 1, 1, 17],
              'extras': {},
              'fix_com': True,
              'fix_orientation': True,
              'fix_symmetry': 'c1',
              'fragment_charges': [0.0, -1.0],
              'fragment_multiplicities': [1, 1],
              'fragments': [[0, 1, 2], [3]],
              'geometry': [0.0, 0.0, 0.0, -1.1121756344246994, 1.4303677194292883, 0.0, -1.1121756344246994,
                           -1.4303677194292883, 0.0, 7.279225035263554, 0.0, 0.0],
              'mass_numbers': [16, 1, 1, 35],
              'masses': [15.99491461957, 1.00782503223, 1.00782503223, 34.968852682],
              'molecular_charge': -1.0,
              'molecular_multiplicity': 1,
              'name': 'dimer',
              'provenance': {'creator': 'QCElemental',
                             'routine': 'qcelemental.molparse.from_string',
                             'version': '0.27.1'},
              'real': [True, True, True, True],
              'schema_name': 'qcschema_molecule',
              'schema_version': 2,
              'symbols': ['O', 'H', 'H', 'Cl'],
              'validated': True},
 'protocols': {'stdout': True},
 'provenance': {'creator': 'QCElemental', 'routine': 'qcelemental.models.results', 'version': '0.27.1'},
 'schema_name': 'qcschema_input',
 'schema_version': 1}
--------------------------------------------------------------------------

Scratch directory: /scratch/
   => Libint2 <=

    Primary   basis highest AM E, G, H:  5, 4, 3
    Auxiliary basis highest AM E, G, H:  6, 5, 4
    Onebody   basis highest AM E, G, H:  6, 5, 4
    Solid Harmonics ordering:            gaussian

*** tstart() called on moses-razer
*** at Thu Jan  4 16:40:33 2024

   => Loading Basis Set <=

    Name: AUG-CC-PVTZ
    Role: ORBITAL
    Keyword: BASIS
    atoms 1   entry O          line   331 file /home/kchung25/anaconda3/envs/p415env/share/psi4/basis/aug-cc-pvtz.gbs 
    atoms 2-3 entry H          line    40 file /home/kchung25/anaconda3/envs/p415env/share/psi4/basis/aug-cc-pvtz.gbs 
    atoms 4   entry CL         line   988 file /home/kchung25/anaconda3/envs/p415env/share/psi4/basis/aug-cc-pvtz.gbs 


         ---------------------------------------------------------
                                   SCF
               by Justin Turney, Rob Parrish, Andy Simmonett
                          and Daniel G. A. Smith
                              RHF Reference
                        6 Threads,  57220 MiB Core
         ---------------------------------------------------------

  ==> Geometry <==

    Molecular point group: c1
    Full point group: C2v

    Geometry (in Bohr), charge = -1, multiplicity = 1:

       Center              X                  Y                   Z               Mass       
    ------------   -----------------  -----------------  -----------------  -----------------
         O            0.000000000000     0.000000000000     0.000000000000    15.994914619570
         H           -1.112175634425     1.430367719429     0.000000000000     1.007825032230
         H           -1.112175634425    -1.430367719429     0.000000000000     1.007825032230
         CL           7.279225035264     0.000000000000     0.000000000000    34.968852682000

  Running in c1 symmetry.

  Rotational constants: A =     14.59768  B =      0.03245  C =      0.03237 [cm^-1]
  Rotational constants: A = 437627.28990  B =    972.70080  C =    970.54360 [MHz]
  Nuclear repulsion =   31.857661969856757

  Charge       = -1
  Multiplicity = 1
  Electrons    = 28
  Nalpha       = 14
  Nbeta        = 14

  ==> Algorithm <==

  SCF Algorithm Type is DF.
  DIIS enabled.
  MOM disabled.
  Fractional occupation disabled.
  Guess Type is SAD.
  Energy threshold   = 1.00e-08
  Density threshold  = 1.00e-08
  Integral threshold = 1.00e-12

  ==> Primary Basis <==

  Basis Set: AUG-CC-PVTZ
    Blend: AUG-CC-PVTZ
    Number of shells: 48
    Number of basis functions: 142
    Number of Cartesian functions: 164
    Spherical Harmonics?: true
    Max angular momentum: 3

   => Loading Basis Set <=

    Name: (AUG-CC-PVTZ AUX)
    Role: JKFIT
    Keyword: DF_BASIS_SCF
    atoms 1   entry O          line   286 file /home/kchung25/anaconda3/envs/p415env/share/psi4/basis/aug-cc-pvtz-jkfit.gbs 
    atoms 2-3 entry H          line    70 file /home/kchung25/anaconda3/envs/p415env/share/psi4/basis/aug-cc-pvtz-jkfit.gbs 
    atoms 4   entry CL         line   816 file /home/kchung25/anaconda3/envs/p415env/share/psi4/basis/aug-cc-pvtz-jkfit.gbs 

  ==> Integral Setup <==

  DFHelper Memory: AOs need 0.056 GiB; user supplied 41.910 GiB. 
  Using in-core AOs.

  ==> MemDFJK: Density-Fitted J/K Matrices <==

    J tasked:                   Yes
    K tasked:                   Yes
    wK tasked:                   No
    OpenMP threads:               6
    Memory [MiB]:             42915
    Algorithm:                 Core
    Schwarz Cutoff:           1E-12
    Mask sparsity (%):       3.2434
    Fitting Condition:        1E-10

   => Auxiliary Basis Set <=

  Basis Set: (AUG-CC-PVTZ AUX)
    Blend: AUG-CC-PVTZ-JKFIT
    Number of shells: 100
    Number of basis functions: 342
    Number of Cartesian functions: 421
    Spherical Harmonics?: true
    Max angular momentum: 4

  Minimum eigenvalue in the overlap matrix is 3.7175162096E-04.
  Reciprocal condition number of the overlap matrix is 5.3534978240E-05.
    Using symmetric orthogonalization.

  ==> Pre-Iterations <==

  SCF Guess: Superposition of Atomic Densities via on-the-fly atomic UHF (no occupation information).

   -------------------------
    Irrep   Nso     Nmo    
   -------------------------
     A        142     142 
   -------------------------
    Total     142     142
   -------------------------

  ==> Iterations <==

                           Total Energy        Delta E     RMS |[F,P]|

   @DF-RHF iter SAD:  -534.59035846964071   -5.34590e+02   0.00000e+00 
   @DF-RHF iter   1:  -535.46842547264043   -8.78067e-01   3.99023e-03 DIIS/ADIIS
   @DF-RHF iter   2:  -535.57680286221523   -1.08377e-01   2.59108e-03 DIIS/ADIIS
   @DF-RHF iter   3:  -535.62040237337862   -4.35995e-02   2.33783e-04 DIIS/ADIIS
   @DF-RHF iter   4:  -535.62098942607508   -5.87053e-04   9.38656e-05 DIIS
   @DF-RHF iter   5:  -535.62109202445720   -1.02598e-04   1.82605e-05 DIIS
   @DF-RHF iter   6:  -535.62109994920547   -7.92475e-06   4.44075e-06 DIIS
   @DF-RHF iter   7:  -535.62110054433663   -5.95131e-07   1.13528e-06 DIIS
   @DF-RHF iter   8:  -535.62110058675728   -4.24207e-08   2.41182e-07 DIIS
   @DF-RHF iter   9:  -535.62110058846997   -1.71269e-09   4.06605e-08 DIIS
   @DF-RHF iter  10:  -535.62110058851420   -4.42242e-11   1.01197e-08 DIIS
   @DF-RHF iter  11:  -535.62110058851624   -2.04636e-12   2.39252e-09 DIIS
  Energy and wave function converged.


  ==> Post-Iterations <==

    Orbital Energies [Eh]
    ---------------------

    Doubly Occupied:                                                      

       1A   -104.494381     2A    -20.442447     3A    -10.218127  
       4A     -7.684176     5A     -7.684172     6A     -7.684130  
       7A     -1.226928     8A     -0.722006     9A     -0.590482  
      10A     -0.453003    11A     -0.382718    12A     -0.139106  
      13A     -0.139012    14A     -0.138216  

    Virtual:                                                              

      15A      0.122868    16A      0.134429    17A      0.243445  
      18A      0.282075    19A      0.283508    20A      0.292969  
      21A      0.302139    22A      0.308812    23A      0.315081  
      24A      0.370269    25A      0.371441    26A      0.376328  
      27A      0.425917    28A      0.435643    29A      0.480782  
      30A      0.485897    31A      0.558045    32A      0.575159  
      33A      0.605049    34A      0.605347    35A      0.629776  
      36A      0.643528    37A      0.677511    38A      0.739403  
      39A      0.781539    40A      0.840245    41A      0.860048  
      42A      0.865209    43A      0.901346    44A      0.907304  
      45A      0.908955    46A      0.962647    47A      0.989279  
      48A      1.031512    49A      1.037575    50A      1.040109  
      51A      1.055703    52A      1.064596    53A      1.127692  
      54A      1.161957    55A      1.187203    56A      1.197892  
      57A      1.217646    58A      1.231704    59A      1.232978  
      60A      1.251174    61A      1.272907    62A      1.292392  
      63A      1.293966    64A      1.312431    65A      1.363077  
      66A      1.375394    67A      1.478331    68A      1.478363  
      69A      1.479671    70A      1.481115    71A      1.493337  
      72A      1.533575    73A      1.538081    74A      1.632914  
      75A      1.710478    76A      1.735723    77A      1.943561  
      78A      1.945402    79A      2.107832    80A      2.245014  
      81A      2.394621    82A      2.448612    83A      2.494622  
      84A      2.556122    85A      2.562068    86A      2.578782  
      87A      2.617270    88A      2.807855    89A      2.821093  
      90A      2.840025    91A      2.840719    92A      2.864410  
      93A      2.870328    94A      2.886746    95A      2.930864  
      96A      2.960342    97A      2.998609    98A      3.011677  
      99A      3.015819   100A      3.075801   101A      3.384431  
     102A      3.384445   103A      3.385194   104A      3.385872  
     105A      3.393157   106A      3.412145   107A      3.447868  
     108A      3.790869   109A      3.880615   110A      4.140603  
     111A      4.212161   112A      4.310930   113A      4.375303  
     114A      4.414237   115A      4.500420   116A      4.524629  
     117A      4.533770   118A      4.644215   119A      4.863370  
     120A      4.972021   121A      5.273028   122A      5.280401  
     123A      5.385630   124A      5.459890   125A      5.505089  
     126A      5.652744   127A      5.815584   128A      6.315558  
     129A      6.651779   130A      6.844313   131A      7.033800  
     132A      7.269292   133A      7.391974   134A      7.444779  
     135A      7.448842   136A      7.483652   137A      7.488614  
     138A      7.672037   139A      8.042069   140A      8.060895  
     141A      8.943900   142A     15.934693  

    Final Occupation by Irrep:
              A 
    DOCC [    14 ]
    NA   [    14 ]
    NB   [    14 ]

  @DF-RHF Final Energy:  -535.62110058851624

   => Energetics <=

    Nuclear Repulsion Energy =             31.8576619698567569
    One-Electron Energy =                -810.9597189864487063
    Two-Electron Energy =                 243.4809564280757286
    Total Energy =                       -535.6211005885162422

Computation Completed


Properties will be evaluated at   0.000000,   0.000000,   0.000000 [a0]

Properties computed using the SCF density matrix


 Multipole Moments:

 ------------------------------------------------------------------------------------
     Multipole            Electronic (a.u.)      Nuclear  (a.u.)        Total (a.u.)
 ------------------------------------------------------------------------------------

 L = 1.  Multiply by 2.5417464519 to convert [e a0] to [Debye]
 Dipole X            :       -129.5399741          121.5224743           -8.0174997
 Dipole Y            :          0.0000000            0.0000000            0.0000000
 Dipole Z            :         -0.0000000            0.0000000           -0.0000000
 Magnitude           :                                                    8.0174997

 ------------------------------------------------------------------------------------

*** tstop() called on moses-razer at Thu Jan  4 16:40:34 2024
Module time:
	user time   =       4.52 seconds =       0.08 minutes
	system time =       0.34 seconds =       0.01 minutes
	total time  =          1 seconds =       0.02 minutes
Total time:
	user time   =      16.27 seconds =       0.27 minutes
	system time =       1.14 seconds =       0.02 minutes
	total time  =          3 seconds =       0.05 minutes

*** tstart() called on moses-razer
*** at Thu Jan  4 16:40:34 2024


  //>>>>>>>>>>>>>>>>>>>>>>>>>>>>>>>>>>>//
  //               DFMP2               //
  //<<<<<<<<<<<<<<<<<<<<<<<<<<<<<<<<<<<//

   => Loading Basis Set <=

    Name: (AUG-CC-PVTZ AUX)
    Role: RIFIT
    Keyword: DF_BASIS_MP2
    atoms 1   entry O          line   264 file /home/kchung25/anaconda3/envs/p415env/share/psi4/basis/aug-cc-pvtz-ri.gbs 
    atoms 2-3 entry H          line    30 file /home/kchung25/anaconda3/envs/p415env/share/psi4/basis/aug-cc-pvtz-ri.gbs 
    atoms 4   entry CL         line   742 file /home/kchung25/anaconda3/envs/p415env/share/psi4/basis/aug-cc-pvtz-ri.gbs 

	 --------------------------------------------------------
	                          DF-MP2                         
	      2nd-Order Density-Fitted Moller-Plesset Theory     
	              RMP2 Wavefunction,   6 Threads             
	                                                         
	        Rob Parrish, Justin Turney, Andy Simmonett,      
	           Ed Hohenstein, and C. David Sherrill          
	 --------------------------------------------------------

   => Auxiliary Basis Set <=

  Basis Set: (AUG-CC-PVTZ AUX)
    Blend: AUG-CC-PVTZ-RI
    Number of shells: 93
    Number of basis functions: 345
    Number of Cartesian functions: 437
    Spherical Harmonics?: true
    Max angular momentum: 4

	 --------------------------------------------------------
	                 NBF =   142, NAUX =   345
	 --------------------------------------------------------
	   CLASS    FOCC     OCC    AOCC    AVIR     VIR    FVIR
	   PAIRS       0      14      14     128     128       0
	 --------------------------------------------------------

	-----------------------------------------------------------
	 ==================> DF-MP2 Energies <==================== 
	-----------------------------------------------------------
	 Reference Energy          =    -535.6211005885162422 [Eh]
	 Singles Energy            =      -0.0000000000000000 [Eh]
	 Same-Spin Energy          =      -0.1313225091951473 [Eh]
	 Opposite-Spin Energy      =      -0.3952328852418472 [Eh]
	 Correlation Energy        =      -0.5265553944369945 [Eh]
	 Total Energy              =    -536.1476559829532107 [Eh]
	-----------------------------------------------------------
	 ================> DF-SCS-MP2 Energies <================== 
	-----------------------------------------------------------
	 SCS Same-Spin Scale       =       0.3333333333333333 [-]
	 SCS Opposite-Spin Scale   =       1.2000000000000000 [-]
	 SCS Same-Spin Energy      =      -0.0437741697317158 [Eh]
	 SCS Opposite-Spin Energy  =      -0.4742794622902167 [Eh]
	 SCS Correlation Energy    =      -0.5180536320219324 [Eh]
	 SCS Total Energy          =    -536.1391542205382166 [Eh]
	-----------------------------------------------------------


*** tstop() called on moses-razer at Thu Jan  4 16:40:35 2024
Module time:
	user time   =       1.91 seconds =       0.03 minutes
	system time =       0.14 seconds =       0.00 minutes
	total time  =          1 seconds =       0.02 minutes
Total time:
	user time   =      18.18 seconds =       0.30 minutes
	system time =       1.28 seconds =       0.02 minutes
	total time  =          4 seconds =       0.07 minutes

    Psi4 stopped on: Thursday, 04 January 2024 04:40PM
    Psi4 wall time for execution: 0:00:01.27


  //>>>>>>>>>>>>>>>>>>>>>>>>>>>>>>>>>>>//
  //          ManyBody Results         //
  //<<<<<<<<<<<<<<<<<<<<<<<<<<<<<<<<<<<//


   ==> N-Body: Counterpoise Corrected (CP) energies <==

        n-Body     Total Energy            Interaction Energy                          N-body Contribution to Interaction Energy
                   [Eh]                    [Eh]                  [kcal/mol]            [Eh]                  [kcal/mol]
             1  N/A                         0.000000000000        0.000000000000        0.000000000000        0.000000000000
  FULL/RTN   2  N/A                         0.011064775308        6.943251331133        0.011064775308        6.943251331133


    Psi4 stopped on: Thursday, 04 January 2024 04:40PM
    Psi4 wall time for execution: 0:00:05.10

*** Psi4 exiting successfully. Buy a developer a beer!
