
    -----------------------------------------------------------------------
          Psi4: An Open-Source Ab Initio Electronic Structure Package
                               Psi4 1.9 release

                         Git: Rev {} zzzzzzz 


    D. G. A. Smith, L. A. Burns, A. C. Simmonett, R. M. Parrish,
    M. C. Schieber, R. Galvelis, P. Kraus, H. Kruse, R. Di Remigio,
    A. Alenaizan, A. M. James, S. Lehtola, J. P. Misiewicz, M. Scheurer,
    R. A. Shaw, J. B. Schriber, Y. Xie, Z. L. Glick, D. A. Sirianni,
    J. S. O'Brien, J. M. Waldrop, A. Kumar, E. G. Hohenstein,
    B. P. Pritchard, B. R. Brooks, H. F. Schaefer III, A. Yu. Sokolov,
    K. Patkowski, A. E. DePrince III, U. Bozkaya, R. A. King,
    F. A. Evangelista, J. M. Turney, T. D. Crawford, C. D. Sherrill,
    J. Chem. Phys. 152(18) 184108 (2020). https://doi.org/10.1063/5.0006002

                            Additional Code Authors
    E. T. Seidl, C. L. Janssen, E. F. Valeev, M. L. Leininger,
    J. F. Gonthier, R. M. Richard, H. R. McAlexander, M. Saitow, X. Wang,
    P. Verma, M. H. Lechner, A. Jiang, S. Behnle, A. G. Heide,
    M. F. Herbst, and D. L. Poole

             Previous Authors, Complete List of Code Contributors,
                       and Citations for Specific Modules
    https://github.com/psi4/psi4/blob/master/codemeta.json
    https://github.com/psi4/psi4/graphs/contributors
    http://psicode.org/psi4manual/master/introduction.html#citing-psifour

    -----------------------------------------------------------------------


    Psi4 started on: Thursday, 04 January 2024 04:40PM

    Process ID: 490481
    Host:       moses-razer
    PSIDATADIR: /home/kchung25/anaconda3/envs/psi4_19/share/psi4
    Memory:     500.0 MiB
    Threads:    6
    
  ==> Input File <==

--------------------------------------------------------------------------
MEMORY 60 GB

molecule dimer {
0 1
O      0.000000     0.000000     0.000000
H     -0.588538     0.756918     0.000000
H     -0.588538    -0.756918     0.000000
--
-1 1
Cl     3.531000     0.000000     0.000000

units ang
no_reorient
no_com
symmetry c1
}

set {
basis        aug-cc-pVTZ
scf_type     df
}

energy("mp2", bsse_type="cp")
--------------------------------------------------------------------------

  Memory set to  55.879 GiB by Python driver.

Scratch directory: /scratch/

  //>>>>>>>>>>>>>>>>>>>>>>>>>>>>>>>>>>>>>//
  // ManyBody Setup: N-Body Levels [1, 2]//
  //<<<<<<<<<<<<<<<<<<<<<<<<<<<<<<<<<<<<<//

        Number of 1-body computations:     2
        Number of 2-body computations:     1

    -----------------------------------------------------------------------
          Psi4: An Open-Source Ab Initio Electronic Structure Package
                               Psi4 1.9 release

                         Git: Rev {} zzzzzzz 


    D. G. A. Smith, L. A. Burns, A. C. Simmonett, R. M. Parrish,
    M. C. Schieber, R. Galvelis, P. Kraus, H. Kruse, R. Di Remigio,
    A. Alenaizan, A. M. James, S. Lehtola, J. P. Misiewicz, M. Scheurer,
    R. A. Shaw, J. B. Schriber, Y. Xie, Z. L. Glick, D. A. Sirianni,
    J. S. O'Brien, J. M. Waldrop, A. Kumar, E. G. Hohenstein,
    B. P. Pritchard, B. R. Brooks, H. F. Schaefer III, A. Yu. Sokolov,
    K. Patkowski, A. E. DePrince III, U. Bozkaya, R. A. King,
    F. A. Evangelista, J. M. Turney, T. D. Crawford, C. D. Sherrill,
    J. Chem. Phys. 152(18) 184108 (2020). https://doi.org/10.1063/5.0006002

                            Additional Code Authors
    E. T. Seidl, C. L. Janssen, E. F. Valeev, M. L. Leininger,
    J. F. Gonthier, R. M. Richard, H. R. McAlexander, M. Saitow, X. Wang,
    P. Verma, M. H. Lechner, A. Jiang, S. Behnle, A. G. Heide,
    M. F. Herbst, and D. L. Poole

             Previous Authors, Complete List of Code Contributors,
                       and Citations for Specific Modules
    https://github.com/psi4/psi4/blob/master/codemeta.json
    https://github.com/psi4/psi4/graphs/contributors
    http://psicode.org/psi4manual/master/introduction.html#citing-psifour

    -----------------------------------------------------------------------


    Psi4 started on: Thursday, 04 January 2024 04:40PM

    Process ID: 490481
    Host:       moses-razer
    PSIDATADIR: /home/kchung25/anaconda3/envs/psi4_19/share/psi4
    Memory:     55.9 GiB
    Threads:    6
    
  ==> Input QCSchema <==

--------------------------------------------------------------------------
{'driver': 'energy',
 'extras': {'psiapi': True, 'wfn_qcvars_only': True},
 'id': None,
 'keywords': {'SCF_TYPE': 'DF', 'function_kwargs': {}},
 'model': {'basis': 'aug-cc-pvtz', 'method': 'mp2'},
 'molecule': {'atom_labels': ['', '', '', ''],
              'atomic_numbers': [8, 1, 1, 17],
              'extras': {},
              'fix_com': True,
              'fix_orientation': True,
              'fix_symmetry': 'c1',
              'fragment_charges': [0.0, -1.0],
              'fragment_multiplicities': [1, 1],
              'fragments': [[0, 1, 2], [3]],
              'geometry': [0.0, 0.0, 0.0, -1.1121756344246994, 1.4303677194292883, 0.0, -1.1121756344246994,
                           -1.4303677194292883, 0.0, 6.672622948991592, 0.0, 0.0],
              'mass_numbers': [16, 1, 1, 35],
              'masses': [15.99491461957, 1.00782503223, 1.00782503223, 34.968852682],
              'molecular_charge': -1.0,
              'molecular_multiplicity': 1,
              'name': 'dimer',
              'provenance': {'creator': 'QCElemental',
                             'routine': 'qcelemental.molparse.from_string',
                             'version': '0.27.1'},
              'real': [False, False, False, True],
              'schema_name': 'qcschema_molecule',
              'schema_version': 2,
              'symbols': ['O', 'H', 'H', 'Cl'],
              'validated': True},
 'protocols': {'stdout': True},
 'provenance': {'creator': 'QCElemental', 'routine': 'qcelemental.models.results', 'version': '0.27.1'},
 'schema_name': 'qcschema_input',
 'schema_version': 1}
--------------------------------------------------------------------------

Scratch directory: /scratch/
   => Libint2 <=

    Primary   basis highest AM E, G, H:  5, 4, 3
    Auxiliary basis highest AM E, G, H:  6, 5, 4
    Onebody   basis highest AM E, G, H:  6, 5, 4
    Solid Harmonics ordering:            gaussian

*** tstart() called on moses-razer
*** at Thu Jan  4 16:40:26 2024

   => Loading Basis Set <=

    Name: AUG-CC-PVTZ
    Role: ORBITAL
    Keyword: BASIS
    atoms 1   entry O          line   331 file /home/kchung25/anaconda3/envs/p415env/share/psi4/basis/aug-cc-pvtz.gbs 
    atoms 2-3 entry H          line    40 file /home/kchung25/anaconda3/envs/p415env/share/psi4/basis/aug-cc-pvtz.gbs 
    atoms 4   entry CL         line   988 file /home/kchung25/anaconda3/envs/p415env/share/psi4/basis/aug-cc-pvtz.gbs 


         ---------------------------------------------------------
                                   SCF
               by Justin Turney, Rob Parrish, Andy Simmonett
                          and Daniel G. A. Smith
                              RHF Reference
                        6 Threads,  57220 MiB Core
         ---------------------------------------------------------

  ==> Geometry <==

    Molecular point group: c1
    Full point group: C2v

    Geometry (in Bohr), charge = -1, multiplicity = 1:

       Center              X                  Y                   Z               Mass       
    ------------   -----------------  -----------------  -----------------  -----------------
      Gh(O)           0.000000000000     0.000000000000     0.000000000000    15.994914619570
      Gh(H)          -1.112175634425     1.430367719429     0.000000000000     1.007825032230
      Gh(H)          -1.112175634425    -1.430367719429     0.000000000000     1.007825032230
         CL           6.672622948992     0.000000000000     0.000000000000    34.968852682000

  Running in c1 symmetry.

  Rotational constants: A =     14.59768  B =      0.03860  C =      0.03850 [cm^-1]
  Rotational constants: A = 437627.28990  B =   1157.29873  C =   1154.24635 [MHz]
  Nuclear repulsion =    0.000000000000000

  Charge       = -1
  Multiplicity = 1
  Electrons    = 18
  Nalpha       = 9
  Nbeta        = 9

  ==> Algorithm <==

  SCF Algorithm Type is DF.
  DIIS enabled.
  MOM disabled.
  Fractional occupation disabled.
  Guess Type is SAD.
  Energy threshold   = 1.00e-08
  Density threshold  = 1.00e-08
  Integral threshold = 1.00e-12

  ==> Primary Basis <==

  Basis Set: AUG-CC-PVTZ
    Blend: AUG-CC-PVTZ
    Number of shells: 48
    Number of basis functions: 142
    Number of Cartesian functions: 164
    Spherical Harmonics?: true
    Max angular momentum: 3

   => Loading Basis Set <=

    Name: (AUG-CC-PVTZ AUX)
    Role: JKFIT
    Keyword: DF_BASIS_SCF
    atoms 1   entry O          line   286 file /home/kchung25/anaconda3/envs/p415env/share/psi4/basis/aug-cc-pvtz-jkfit.gbs 
    atoms 2-3 entry H          line    70 file /home/kchung25/anaconda3/envs/p415env/share/psi4/basis/aug-cc-pvtz-jkfit.gbs 
    atoms 4   entry CL         line   816 file /home/kchung25/anaconda3/envs/p415env/share/psi4/basis/aug-cc-pvtz-jkfit.gbs 

  ==> Integral Setup <==

  DFHelper Memory: AOs need 0.056 GiB; user supplied 41.910 GiB. 
  Using in-core AOs.

  ==> MemDFJK: Density-Fitted J/K Matrices <==

    J tasked:                   Yes
    K tasked:                   Yes
    wK tasked:                   No
    OpenMP threads:               6
    Memory [MiB]:             42915
    Algorithm:                 Core
    Schwarz Cutoff:           1E-12
    Mask sparsity (%):       1.8250
    Fitting Condition:        1E-10

   => Auxiliary Basis Set <=

  Basis Set: (AUG-CC-PVTZ AUX)
    Blend: AUG-CC-PVTZ-JKFIT
    Number of shells: 100
    Number of basis functions: 342
    Number of Cartesian functions: 421
    Spherical Harmonics?: true
    Max angular momentum: 4

  Minimum eigenvalue in the overlap matrix is 3.6584430058E-04.
  Reciprocal condition number of the overlap matrix is 5.2225755453E-05.
    Using symmetric orthogonalization.

  ==> Pre-Iterations <==

  SCF Guess: Superposition of Atomic Densities via on-the-fly atomic UHF (no occupation information).

   -------------------------
    Irrep   Nso     Nmo    
   -------------------------
     A        142     142 
   -------------------------
    Total     142     142
   -------------------------

  ==> Iterations <==

                           Total Energy        Delta E     RMS |[F,P]|

   @DF-RHF iter SAD:  -459.11248994849637   -4.59112e+02   0.00000e+00 
   @DF-RHF iter   1:  -459.51389418579959   -4.01404e-01   2.09951e-03 DIIS/ADIIS
   @DF-RHF iter   2:  -459.56473533150279   -5.08411e-02   1.07221e-03 DIIS/ADIIS
   @DF-RHF iter   3:  -459.57343187774353   -8.69655e-03   7.01517e-05 DIIS
   @DF-RHF iter   4:  -459.57348601846945   -5.41407e-05   1.45588e-05 DIIS
   @DF-RHF iter   5:  -459.57348977531268   -3.75684e-06   1.49885e-06 DIIS
   @DF-RHF iter   6:  -459.57348984841559   -7.31029e-08   8.23597e-08 DIIS
   @DF-RHF iter   7:  -459.57348984865519   -2.39595e-10   1.08129e-08 DIIS
   @DF-RHF iter   8:  -459.57348984866360   -8.41283e-12   2.05158e-09 DIIS
  Energy and wave function converged.


  ==> Post-Iterations <==

    Orbital Energies [Eh]
    ---------------------

    Doubly Occupied:                                                      

       1A   -104.506039     2A    -10.229758     3A     -7.695794  
       4A     -7.695793     5A     -7.695784     6A     -0.733507  
       7A     -0.150340     8A     -0.150331     9A     -0.150330  

    Virtual:                                                              

      10A      0.130262    11A      0.141984    12A      0.240426  
      13A      0.263370    14A      0.281747    15A      0.289690  
      16A      0.297191    17A      0.300724    18A      0.305758  
      19A      0.390660    20A      0.394357    21A      0.406132  
      22A      0.422410    23A      0.440594    24A      0.477776  
      25A      0.504991    26A      0.530407    27A      0.552627  
      28A      0.596072    29A      0.596923    30A      0.622755  
      31A      0.645552    32A      0.651700    33A      0.754761  
      34A      0.798537    35A      0.877368    36A      0.879450  
      37A      0.888950    38A      0.911034    39A      0.932324  
      40A      0.942919    41A      0.954884    42A      0.963282  
      43A      1.013316    44A      1.034879    45A      1.042605  
      46A      1.093540    47A      1.094934    48A      1.131480  
      49A      1.162650    50A      1.180377    51A      1.217056  
      52A      1.222744    53A      1.225176    54A      1.249899  
      55A      1.250383    56A      1.277335    57A      1.299205  
      58A      1.337638    59A      1.345485    60A      1.370574  
      61A      1.468153    62A      1.468224    63A      1.471709  
      64A      1.474179    65A      1.482493    66A      1.511043  
      67A      1.535374    68A      1.651496    69A      1.704628  
      70A      1.828267    71A      1.828758    72A      1.852345  
      73A      1.977882    74A      2.036947    75A      2.181379  
      76A      2.508286    77A      2.527306    78A      2.667493  
      79A      2.690738    80A      2.691266    81A      2.691873  
      82A      2.701359    83A      2.829311    84A      2.829662  
      85A      2.841451    86A      2.856446    87A      2.864035  
      88A      2.900792    89A      2.989991    90A      2.995123  
      91A      3.024106    92A      3.098715    93A      3.296995  
      94A      3.297873    95A      3.305611    96A      3.373606  
      97A      3.373659    98A      3.374501    99A      3.380694  
     100A      3.398416   101A      3.442545   102A      3.444301  
     103A      3.451707   104A      3.558044   105A      3.683519  
     106A      3.800726   107A      4.477119   108A      4.562160  
     109A      4.628908   110A      4.738725   111A      4.776046  
     112A      4.787921   113A      4.989706   114A      5.004990  
     115A      5.014399   116A      5.323257   117A      5.523895  
     118A      5.678842   119A      5.741703   120A      5.788717  
     121A      5.976077   122A      6.235308   123A      6.530533  
     124A      6.766718   125A      7.214228   126A      7.812799  
     127A      7.961737   128A      8.197668   129A      8.308964  
     130A      8.429433   131A      8.879890   132A      8.977763  
     133A      9.832693   134A      9.984175   135A     10.135694  
     136A     10.376073   137A     11.387359   138A     11.753389  
     139A     12.255451   140A     13.645936   141A     13.930241  
     142A     64.758415  

    Final Occupation by Irrep:
              A 
    DOCC [     9 ]
    NA   [     9 ]
    NB   [     9 ]

  @DF-RHF Final Energy:  -459.57348984866360

   => Energetics <=

    Nuclear Repulsion Energy =              0.0000000000000000
    One-Electron Energy =                -641.1316236392640349
    Two-Electron Energy =                 181.5581337906004364
    Total Energy =                       -459.5734898486635984

Computation Completed


Properties will be evaluated at   0.000000,   0.000000,   0.000000 [a0]

Properties computed using the SCF density matrix


 Multipole Moments:

 ------------------------------------------------------------------------------------
     Multipole            Electronic (a.u.)      Nuclear  (a.u.)        Total (a.u.)
 ------------------------------------------------------------------------------------

 L = 1.  Multiply by 2.5417464519 to convert [e a0] to [Debye]
 Dipole X            :       -120.1069109          113.4345901           -6.6723208
 Dipole Y            :         -0.0000000            0.0000000           -0.0000000
 Dipole Z            :         -0.0000000            0.0000000           -0.0000000
 Magnitude           :                                                    6.6723208

 ------------------------------------------------------------------------------------

*** tstop() called on moses-razer at Thu Jan  4 16:40:26 2024
Module time:
	user time   =       4.10 seconds =       0.07 minutes
	system time =       0.34 seconds =       0.01 minutes
	total time  =          0 seconds =       0.00 minutes
Total time:
	user time   =       4.10 seconds =       0.07 minutes
	system time =       0.34 seconds =       0.01 minutes
	total time  =          0 seconds =       0.00 minutes

*** tstart() called on moses-razer
*** at Thu Jan  4 16:40:26 2024


  //>>>>>>>>>>>>>>>>>>>>>>>>>>>>>>>>>>>//
  //               DFMP2               //
  //<<<<<<<<<<<<<<<<<<<<<<<<<<<<<<<<<<<//

   => Loading Basis Set <=

    Name: (AUG-CC-PVTZ AUX)
    Role: RIFIT
    Keyword: DF_BASIS_MP2
    atoms 1   entry O          line   264 file /home/kchung25/anaconda3/envs/p415env/share/psi4/basis/aug-cc-pvtz-ri.gbs 
    atoms 2-3 entry H          line    30 file /home/kchung25/anaconda3/envs/p415env/share/psi4/basis/aug-cc-pvtz-ri.gbs 
    atoms 4   entry CL         line   742 file /home/kchung25/anaconda3/envs/p415env/share/psi4/basis/aug-cc-pvtz-ri.gbs 

	 --------------------------------------------------------
	                          DF-MP2                         
	      2nd-Order Density-Fitted Moller-Plesset Theory     
	              RMP2 Wavefunction,   6 Threads             
	                                                         
	        Rob Parrish, Justin Turney, Andy Simmonett,      
	           Ed Hohenstein, and C. David Sherrill          
	 --------------------------------------------------------

   => Auxiliary Basis Set <=

  Basis Set: (AUG-CC-PVTZ AUX)
    Blend: AUG-CC-PVTZ-RI
    Number of shells: 93
    Number of basis functions: 345
    Number of Cartesian functions: 437
    Spherical Harmonics?: true
    Max angular momentum: 4

	 --------------------------------------------------------
	                 NBF =   142, NAUX =   345
	 --------------------------------------------------------
	   CLASS    FOCC     OCC    AOCC    AVIR     VIR    FVIR
	   PAIRS       0       9       9     133     133       0
	 --------------------------------------------------------

	-----------------------------------------------------------
	 ==================> DF-MP2 Energies <==================== 
	-----------------------------------------------------------
	 Reference Energy          =    -459.5734898486635984 [Eh]
	 Singles Energy            =      -0.0000000000000000 [Eh]
	 Same-Spin Energy          =      -0.0623421386282556 [Eh]
	 Opposite-Spin Energy      =      -0.1788909438267752 [Eh]
	 Correlation Energy        =      -0.2412330824550308 [Eh]
	 Total Energy              =    -459.8147229311186379 [Eh]
	-----------------------------------------------------------
	 ================> DF-SCS-MP2 Energies <================== 
	-----------------------------------------------------------
	 SCS Same-Spin Scale       =       0.3333333333333333 [-]
	 SCS Opposite-Spin Scale   =       1.2000000000000000 [-]
	 SCS Same-Spin Energy      =      -0.0207807128760852 [Eh]
	 SCS Opposite-Spin Energy  =      -0.2146691325921302 [Eh]
	 SCS Correlation Energy    =      -0.2354498454682154 [Eh]
	 SCS Total Energy          =    -459.8089396941318228 [Eh]
	-----------------------------------------------------------


*** tstop() called on moses-razer at Thu Jan  4 16:40:27 2024
Module time:
	user time   =       1.72 seconds =       0.03 minutes
	system time =       0.11 seconds =       0.00 minutes
	total time  =          1 seconds =       0.02 minutes
Total time:
	user time   =       5.82 seconds =       0.10 minutes
	system time =       0.45 seconds =       0.01 minutes
	total time  =          1 seconds =       0.02 minutes

    Psi4 stopped on: Thursday, 04 January 2024 04:40PM
    Psi4 wall time for execution: 0:00:01.18


    -----------------------------------------------------------------------
          Psi4: An Open-Source Ab Initio Electronic Structure Package
                               Psi4 1.9 release

                         Git: Rev {} zzzzzzz 


    D. G. A. Smith, L. A. Burns, A. C. Simmonett, R. M. Parrish,
    M. C. Schieber, R. Galvelis, P. Kraus, H. Kruse, R. Di Remigio,
    A. Alenaizan, A. M. James, S. Lehtola, J. P. Misiewicz, M. Scheurer,
    R. A. Shaw, J. B. Schriber, Y. Xie, Z. L. Glick, D. A. Sirianni,
    J. S. O'Brien, J. M. Waldrop, A. Kumar, E. G. Hohenstein,
    B. P. Pritchard, B. R. Brooks, H. F. Schaefer III, A. Yu. Sokolov,
    K. Patkowski, A. E. DePrince III, U. Bozkaya, R. A. King,
    F. A. Evangelista, J. M. Turney, T. D. Crawford, C. D. Sherrill,
    J. Chem. Phys. 152(18) 184108 (2020). https://doi.org/10.1063/5.0006002

                            Additional Code Authors
    E. T. Seidl, C. L. Janssen, E. F. Valeev, M. L. Leininger,
    J. F. Gonthier, R. M. Richard, H. R. McAlexander, M. Saitow, X. Wang,
    P. Verma, M. H. Lechner, A. Jiang, S. Behnle, A. G. Heide,
    M. F. Herbst, and D. L. Poole

             Previous Authors, Complete List of Code Contributors,
                       and Citations for Specific Modules
    https://github.com/psi4/psi4/blob/master/codemeta.json
    https://github.com/psi4/psi4/graphs/contributors
    http://psicode.org/psi4manual/master/introduction.html#citing-psifour

    -----------------------------------------------------------------------


    Psi4 started on: Thursday, 04 January 2024 04:40PM

    Process ID: 490481
    Host:       moses-razer
    PSIDATADIR: /home/kchung25/anaconda3/envs/psi4_19/share/psi4
    Memory:     55.9 GiB
    Threads:    6
    
  ==> Input QCSchema <==

--------------------------------------------------------------------------
{'driver': 'energy',
 'extras': {'psiapi': True, 'wfn_qcvars_only': True},
 'id': None,
 'keywords': {'SCF_TYPE': 'DF', 'function_kwargs': {}},
 'model': {'basis': 'aug-cc-pvtz', 'method': 'mp2'},
 'molecule': {'atom_labels': ['', '', '', ''],
              'atomic_numbers': [8, 1, 1, 17],
              'extras': {},
              'fix_com': True,
              'fix_orientation': True,
              'fix_symmetry': 'c1',
              'fragment_charges': [0.0, 0.0],
              'fragment_multiplicities': [1, 1],
              'fragments': [[0, 1, 2], [3]],
              'geometry': [0.0, 0.0, 0.0, -1.1121756344246994, 1.4303677194292883, 0.0, -1.1121756344246994,
                           -1.4303677194292883, 0.0, 6.672622948991592, 0.0, 0.0],
              'mass_numbers': [16, 1, 1, 35],
              'masses': [15.99491461957, 1.00782503223, 1.00782503223, 34.968852682],
              'molecular_charge': 0.0,
              'molecular_multiplicity': 1,
              'name': 'dimer',
              'provenance': {'creator': 'QCElemental',
                             'routine': 'qcelemental.molparse.from_string',
                             'version': '0.27.1'},
              'real': [True, True, True, False],
              'schema_name': 'qcschema_molecule',
              'schema_version': 2,
              'symbols': ['O', 'H', 'H', 'Cl'],
              'validated': True},
 'protocols': {'stdout': True},
 'provenance': {'creator': 'QCElemental', 'routine': 'qcelemental.models.results', 'version': '0.27.1'},
 'schema_name': 'qcschema_input',
 'schema_version': 1}
--------------------------------------------------------------------------

Scratch directory: /scratch/
   => Libint2 <=

    Primary   basis highest AM E, G, H:  5, 4, 3
    Auxiliary basis highest AM E, G, H:  6, 5, 4
    Onebody   basis highest AM E, G, H:  6, 5, 4
    Solid Harmonics ordering:            gaussian

*** tstart() called on moses-razer
*** at Thu Jan  4 16:40:27 2024

   => Loading Basis Set <=

    Name: AUG-CC-PVTZ
    Role: ORBITAL
    Keyword: BASIS
    atoms 1   entry O          line   331 file /home/kchung25/anaconda3/envs/p415env/share/psi4/basis/aug-cc-pvtz.gbs 
    atoms 2-3 entry H          line    40 file /home/kchung25/anaconda3/envs/p415env/share/psi4/basis/aug-cc-pvtz.gbs 
    atoms 4   entry CL         line   988 file /home/kchung25/anaconda3/envs/p415env/share/psi4/basis/aug-cc-pvtz.gbs 


         ---------------------------------------------------------
                                   SCF
               by Justin Turney, Rob Parrish, Andy Simmonett
                          and Daniel G. A. Smith
                              RHF Reference
                        6 Threads,  57220 MiB Core
         ---------------------------------------------------------

  ==> Geometry <==

    Molecular point group: c1
    Full point group: C2v

    Geometry (in Bohr), charge = 0, multiplicity = 1:

       Center              X                  Y                   Z               Mass       
    ------------   -----------------  -----------------  -----------------  -----------------
         O            0.000000000000     0.000000000000     0.000000000000    15.994914619570
         H           -1.112175634425     1.430367719429     0.000000000000     1.007825032230
         H           -1.112175634425    -1.430367719429     0.000000000000     1.007825032230
      Gh(CL)          6.672622948992     0.000000000000     0.000000000000    34.968852682000

  Running in c1 symmetry.

  Rotational constants: A =     14.59768  B =      0.03860  C =      0.03850 [cm^-1]
  Rotational constants: A = 437627.28990  B =   1157.29873  C =   1154.24635 [MHz]
  Nuclear repulsion =    9.180197847927069

  Charge       = 0
  Multiplicity = 1
  Electrons    = 10
  Nalpha       = 5
  Nbeta        = 5

  ==> Algorithm <==

  SCF Algorithm Type is DF.
  DIIS enabled.
  MOM disabled.
  Fractional occupation disabled.
  Guess Type is SAD.
  Energy threshold   = 1.00e-08
  Density threshold  = 1.00e-08
  Integral threshold = 1.00e-12

  ==> Primary Basis <==

  Basis Set: AUG-CC-PVTZ
    Blend: AUG-CC-PVTZ
    Number of shells: 48
    Number of basis functions: 142
    Number of Cartesian functions: 164
    Spherical Harmonics?: true
    Max angular momentum: 3

   => Loading Basis Set <=

    Name: (AUG-CC-PVTZ AUX)
    Role: JKFIT
    Keyword: DF_BASIS_SCF
    atoms 1   entry O          line   286 file /home/kchung25/anaconda3/envs/p415env/share/psi4/basis/aug-cc-pvtz-jkfit.gbs 
    atoms 2-3 entry H          line    70 file /home/kchung25/anaconda3/envs/p415env/share/psi4/basis/aug-cc-pvtz-jkfit.gbs 
    atoms 4   entry CL         line   816 file /home/kchung25/anaconda3/envs/p415env/share/psi4/basis/aug-cc-pvtz-jkfit.gbs 

  ==> Integral Setup <==

  DFHelper Memory: AOs need 0.056 GiB; user supplied 41.910 GiB. 
  Using in-core AOs.

  ==> MemDFJK: Density-Fitted J/K Matrices <==

    J tasked:                   Yes
    K tasked:                   Yes
    wK tasked:                   No
    OpenMP threads:               6
    Memory [MiB]:             42915
    Algorithm:                 Core
    Schwarz Cutoff:           1E-12
    Mask sparsity (%):       1.8250
    Fitting Condition:        1E-10

   => Auxiliary Basis Set <=

  Basis Set: (AUG-CC-PVTZ AUX)
    Blend: AUG-CC-PVTZ-JKFIT
    Number of shells: 100
    Number of basis functions: 342
    Number of Cartesian functions: 421
    Spherical Harmonics?: true
    Max angular momentum: 4

  Minimum eigenvalue in the overlap matrix is 3.6584430058E-04.
  Reciprocal condition number of the overlap matrix is 5.2225755453E-05.
    Using symmetric orthogonalization.

  ==> Pre-Iterations <==

  SCF Guess: Superposition of Atomic Densities via on-the-fly atomic UHF (no occupation information).

   -------------------------
    Irrep   Nso     Nmo    
   -------------------------
     A        142     142 
   -------------------------
    Total     142     142
   -------------------------

  ==> Iterations <==

                           Total Energy        Delta E     RMS |[F,P]|

   @DF-RHF iter SAD:   -75.47651207733800   -7.54765e+01   0.00000e+00 
   @DF-RHF iter   1:   -75.97615237040429   -4.99640e-01   3.29966e-03 DIIS/ADIIS
   @DF-RHF iter   2:   -76.02867355358302   -5.25212e-02   2.24769e-03 DIIS/ADIIS
   @DF-RHF iter   3:   -76.06006752930583   -3.13940e-02   1.54021e-04 DIIS/ADIIS
   @DF-RHF iter   4:   -76.06045920654299   -3.91677e-04   3.63363e-05 DIIS
   @DF-RHF iter   5:   -76.06048329050161   -2.40840e-05   8.28181e-06 DIIS
   @DF-RHF iter   6:   -76.06048526619081   -1.97569e-06   1.81200e-06 DIIS
   @DF-RHF iter   7:   -76.06048537034754   -1.04157e-07   3.26623e-07 DIIS
   @DF-RHF iter   8:   -76.06048537331402   -2.96649e-09   5.42314e-08 DIIS
   @DF-RHF iter   9:   -76.06048537337873   -6.47020e-11   1.33997e-08 DIIS
   @DF-RHF iter  10:   -76.06048537338239   -3.66640e-12   1.96185e-09 DIIS
  Energy and wave function converged.


  ==> Post-Iterations <==

    Orbital Energies [Eh]
    ---------------------

    Doubly Occupied:                                                      

       1A    -20.567589     2A     -1.352980     3A     -0.716513  
       4A     -0.585133     5A     -0.510307  

    Virtual:                                                              

       6A      0.027968     7A      0.047402     8A      0.080818  
       9A      0.105590    10A      0.110894    11A      0.133197  
      12A      0.149791    13A      0.173226    14A      0.182559  
      15A      0.214390    16A      0.245711    17A      0.264914  
      18A      0.286228    19A      0.314441    20A      0.339096  
      21A      0.371479    22A      0.411093    23A      0.412995  
      24A      0.421092    25A      0.433105    26A      0.439882  
      27A      0.443631    28A      0.467636    29A      0.468523  
      30A      0.489695    31A      0.509735    32A      0.570392  
      33A      0.607582    34A      0.670373    35A      0.722478  
      36A      0.737953    37A      0.768315    38A      0.848598  
      39A      0.855369    40A      0.886444    41A      0.916221  
      42A      0.923208    43A      0.937737    44A      0.956731  
      45A      1.011712    46A      1.045371    47A      1.075737  
      48A      1.090925    49A      1.104068    50A      1.174724  
      51A      1.194517    52A      1.230931    53A      1.309088  
      54A      1.309220    55A      1.313376    56A      1.314551  
      57A      1.317049    58A      1.320179    59A      1.336899  
      60A      1.343511    61A      1.418848    62A      1.436816  
      63A      1.443057    64A      1.482326    65A      1.486530  
      66A      1.516369    67A      1.526443    68A      1.550349  
      69A      1.606088    70A      1.648422    71A      1.676374  
      72A      1.830041    73A      1.830554    74A      1.990333  
      75A      2.121883    76A      2.269484    77A      2.316894  
      78A      2.372205    79A      2.423898    80A      2.453366  
      81A      2.484969    82A      2.517159    83A      2.691866  
      84A      2.706010    85A      2.789521    86A      2.851276  
      87A      2.885536    88A      3.668804    89A      3.752537  
      90A      3.939336    91A      3.939384    92A      3.940655  
      93A      3.942251    94A      3.954239    95A      3.958518  
      96A      3.959403    97A      3.971536    98A      3.994950  
      99A      4.017761   100A      4.019791   101A      4.086005  
     102A      4.088476   103A      4.205178   104A      4.261832  
     105A      4.290809   106A      4.380428   107A      4.420401  
     108A      4.423025   109A      4.522395   110A      4.676999  
     111A      4.677599   112A      4.703329   113A      4.709981  
     114A      4.724179   115A      4.797447   116A      4.852215  
     117A      5.151938   118A      5.156180   119A      5.258595  
     120A      5.341525   121A      5.529463   122A      5.692363  
     123A      6.197550   124A      6.538938   125A      6.715641  
     126A      6.909406   127A      7.142445   128A      7.269894  
     129A      7.320597   130A      7.320741   131A      7.362762  
     132A      7.390046   133A      7.548731   134A      7.916093  
     135A      7.933179   136A      8.820784   137A     13.778205  
     138A     15.823961   139A     27.728761   140A     27.736229  
     141A     27.819695   142A    160.735391  

    Final Occupation by Irrep:
              A 
    DOCC [     5 ]
    NA   [     5 ]
    NB   [     5 ]

  @DF-RHF Final Energy:   -76.06048537338239

   => Energetics <=

    Nuclear Repulsion Energy =              9.1801978479270687
    One-Electron Energy =                -123.0163226912576135
    Two-Electron Energy =                  37.7756394699481461
    Total Energy =                        -76.0604853733823916

Computation Completed


Properties will be evaluated at   0.000000,   0.000000,   0.000000 [a0]

Properties computed using the SCF density matrix


 Multipole Moments:

 ------------------------------------------------------------------------------------
     Multipole            Electronic (a.u.)      Nuclear  (a.u.)        Total (a.u.)
 ------------------------------------------------------------------------------------

 L = 1.  Multiply by 2.5417464519 to convert [e a0] to [Debye]
 Dipole X            :          1.4420586           -2.2243513           -0.7822926
 Dipole Y            :         -0.0000000            0.0000000           -0.0000000
 Dipole Z            :         -0.0000000            0.0000000           -0.0000000
 Magnitude           :                                                    0.7822926

 ------------------------------------------------------------------------------------

*** tstop() called on moses-razer at Thu Jan  4 16:40:28 2024
Module time:
	user time   =       3.50 seconds =       0.06 minutes
	system time =       0.17 seconds =       0.00 minutes
	total time  =          1 seconds =       0.02 minutes
Total time:
	user time   =       9.58 seconds =       0.16 minutes
	system time =       0.62 seconds =       0.01 minutes
	total time  =          2 seconds =       0.03 minutes

*** tstart() called on moses-razer
*** at Thu Jan  4 16:40:28 2024


  //>>>>>>>>>>>>>>>>>>>>>>>>>>>>>>>>>>>//
  //               DFMP2               //
  //<<<<<<<<<<<<<<<<<<<<<<<<<<<<<<<<<<<//

   => Loading Basis Set <=

    Name: (AUG-CC-PVTZ AUX)
    Role: RIFIT
    Keyword: DF_BASIS_MP2
    atoms 1   entry O          line   264 file /home/kchung25/anaconda3/envs/p415env/share/psi4/basis/aug-cc-pvtz-ri.gbs 
    atoms 2-3 entry H          line    30 file /home/kchung25/anaconda3/envs/p415env/share/psi4/basis/aug-cc-pvtz-ri.gbs 
    atoms 4   entry CL         line   742 file /home/kchung25/anaconda3/envs/p415env/share/psi4/basis/aug-cc-pvtz-ri.gbs 

	 --------------------------------------------------------
	                          DF-MP2                         
	      2nd-Order Density-Fitted Moller-Plesset Theory     
	              RMP2 Wavefunction,   6 Threads             
	                                                         
	        Rob Parrish, Justin Turney, Andy Simmonett,      
	           Ed Hohenstein, and C. David Sherrill          
	 --------------------------------------------------------

   => Auxiliary Basis Set <=

  Basis Set: (AUG-CC-PVTZ AUX)
    Blend: AUG-CC-PVTZ-RI
    Number of shells: 93
    Number of basis functions: 345
    Number of Cartesian functions: 437
    Spherical Harmonics?: true
    Max angular momentum: 4

	 --------------------------------------------------------
	                 NBF =   142, NAUX =   345
	 --------------------------------------------------------
	   CLASS    FOCC     OCC    AOCC    AVIR     VIR    FVIR
	   PAIRS       0       5       5     137     137       0
	 --------------------------------------------------------

	-----------------------------------------------------------
	 ==================> DF-MP2 Energies <==================== 
	-----------------------------------------------------------
	 Reference Energy          =     -76.0604853733823916 [Eh]
	 Singles Energy            =      -0.0000000000000000 [Eh]
	 Same-Spin Energy          =      -0.0683722054482099 [Eh]
	 Opposite-Spin Energy      =      -0.2152894796429240 [Eh]
	 Correlation Energy        =      -0.2836616850911339 [Eh]
	 Total Energy              =     -76.3441470584735242 [Eh]
	-----------------------------------------------------------
	 ================> DF-SCS-MP2 Energies <================== 
	-----------------------------------------------------------
	 SCS Same-Spin Scale       =       0.3333333333333333 [-]
	 SCS Opposite-Spin Scale   =       1.2000000000000000 [-]
	 SCS Same-Spin Energy      =      -0.0227907351494033 [Eh]
	 SCS Opposite-Spin Energy  =      -0.2583473755715088 [Eh]
	 SCS Correlation Energy    =      -0.2811381107209121 [Eh]
	 SCS Total Energy          =     -76.3416234841033088 [Eh]
	-----------------------------------------------------------


*** tstop() called on moses-razer at Thu Jan  4 16:40:28 2024
Module time:
	user time   =       1.68 seconds =       0.03 minutes
	system time =       0.14 seconds =       0.00 minutes
	total time  =          0 seconds =       0.00 minutes
Total time:
	user time   =      11.26 seconds =       0.19 minutes
	system time =       0.76 seconds =       0.01 minutes
	total time  =          2 seconds =       0.03 minutes

    Psi4 stopped on: Thursday, 04 January 2024 04:40PM
    Psi4 wall time for execution: 0:00:01.05


    -----------------------------------------------------------------------
          Psi4: An Open-Source Ab Initio Electronic Structure Package
                               Psi4 1.9 release

                         Git: Rev {} zzzzzzz 


    D. G. A. Smith, L. A. Burns, A. C. Simmonett, R. M. Parrish,
    M. C. Schieber, R. Galvelis, P. Kraus, H. Kruse, R. Di Remigio,
    A. Alenaizan, A. M. James, S. Lehtola, J. P. Misiewicz, M. Scheurer,
    R. A. Shaw, J. B. Schriber, Y. Xie, Z. L. Glick, D. A. Sirianni,
    J. S. O'Brien, J. M. Waldrop, A. Kumar, E. G. Hohenstein,
    B. P. Pritchard, B. R. Brooks, H. F. Schaefer III, A. Yu. Sokolov,
    K. Patkowski, A. E. DePrince III, U. Bozkaya, R. A. King,
    F. A. Evangelista, J. M. Turney, T. D. Crawford, C. D. Sherrill,
    J. Chem. Phys. 152(18) 184108 (2020). https://doi.org/10.1063/5.0006002

                            Additional Code Authors
    E. T. Seidl, C. L. Janssen, E. F. Valeev, M. L. Leininger,
    J. F. Gonthier, R. M. Richard, H. R. McAlexander, M. Saitow, X. Wang,
    P. Verma, M. H. Lechner, A. Jiang, S. Behnle, A. G. Heide,
    M. F. Herbst, and D. L. Poole

             Previous Authors, Complete List of Code Contributors,
                       and Citations for Specific Modules
    https://github.com/psi4/psi4/blob/master/codemeta.json
    https://github.com/psi4/psi4/graphs/contributors
    http://psicode.org/psi4manual/master/introduction.html#citing-psifour

    -----------------------------------------------------------------------


    Psi4 started on: Thursday, 04 January 2024 04:40PM

    Process ID: 490481
    Host:       moses-razer
    PSIDATADIR: /home/kchung25/anaconda3/envs/psi4_19/share/psi4
    Memory:     55.9 GiB
    Threads:    6
    
  ==> Input QCSchema <==

--------------------------------------------------------------------------
{'driver': 'energy',
 'extras': {'psiapi': True, 'wfn_qcvars_only': True},
 'id': None,
 'keywords': {'SCF_TYPE': 'DF', 'function_kwargs': {}},
 'model': {'basis': 'aug-cc-pvtz', 'method': 'mp2'},
 'molecule': {'atom_labels': ['', '', '', ''],
              'atomic_numbers': [8, 1, 1, 17],
              'extras': {},
              'fix_com': True,
              'fix_orientation': True,
              'fix_symmetry': 'c1',
              'fragment_charges': [0.0, -1.0],
              'fragment_multiplicities': [1, 1],
              'fragments': [[0, 1, 2], [3]],
              'geometry': [0.0, 0.0, 0.0, -1.1121756344246994, 1.4303677194292883, 0.0, -1.1121756344246994,
                           -1.4303677194292883, 0.0, 6.672622948991592, 0.0, 0.0],
              'mass_numbers': [16, 1, 1, 35],
              'masses': [15.99491461957, 1.00782503223, 1.00782503223, 34.968852682],
              'molecular_charge': -1.0,
              'molecular_multiplicity': 1,
              'name': 'dimer',
              'provenance': {'creator': 'QCElemental',
                             'routine': 'qcelemental.molparse.from_string',
                             'version': '0.27.1'},
              'real': [True, True, True, True],
              'schema_name': 'qcschema_molecule',
              'schema_version': 2,
              'symbols': ['O', 'H', 'H', 'Cl'],
              'validated': True},
 'protocols': {'stdout': True},
 'provenance': {'creator': 'QCElemental', 'routine': 'qcelemental.models.results', 'version': '0.27.1'},
 'schema_name': 'qcschema_input',
 'schema_version': 1}
--------------------------------------------------------------------------

Scratch directory: /scratch/
   => Libint2 <=

    Primary   basis highest AM E, G, H:  5, 4, 3
    Auxiliary basis highest AM E, G, H:  6, 5, 4
    Onebody   basis highest AM E, G, H:  6, 5, 4
    Solid Harmonics ordering:            gaussian

*** tstart() called on moses-razer
*** at Thu Jan  4 16:40:28 2024

   => Loading Basis Set <=

    Name: AUG-CC-PVTZ
    Role: ORBITAL
    Keyword: BASIS
    atoms 1   entry O          line   331 file /home/kchung25/anaconda3/envs/p415env/share/psi4/basis/aug-cc-pvtz.gbs 
    atoms 2-3 entry H          line    40 file /home/kchung25/anaconda3/envs/p415env/share/psi4/basis/aug-cc-pvtz.gbs 
    atoms 4   entry CL         line   988 file /home/kchung25/anaconda3/envs/p415env/share/psi4/basis/aug-cc-pvtz.gbs 


         ---------------------------------------------------------
                                   SCF
               by Justin Turney, Rob Parrish, Andy Simmonett
                          and Daniel G. A. Smith
                              RHF Reference
                        6 Threads,  57220 MiB Core
         ---------------------------------------------------------

  ==> Geometry <==

    Molecular point group: c1
    Full point group: C2v

    Geometry (in Bohr), charge = -1, multiplicity = 1:

       Center              X                  Y                   Z               Mass       
    ------------   -----------------  -----------------  -----------------  -----------------
         O            0.000000000000     0.000000000000     0.000000000000    15.994914619570
         H           -1.112175634425     1.430367719429     0.000000000000     1.007825032230
         H           -1.112175634425    -1.430367719429     0.000000000000     1.007825032230
         CL           6.672622948992     0.000000000000     0.000000000000    34.968852682000

  Running in c1 symmetry.

  Rotational constants: A =     14.59768  B =      0.03860  C =      0.03850 [cm^-1]
  Rotational constants: A = 437627.28990  B =   1157.29873  C =   1154.24635 [MHz]
  Nuclear repulsion =   33.857566829069100

  Charge       = -1
  Multiplicity = 1
  Electrons    = 28
  Nalpha       = 14
  Nbeta        = 14

  ==> Algorithm <==

  SCF Algorithm Type is DF.
  DIIS enabled.
  MOM disabled.
  Fractional occupation disabled.
  Guess Type is SAD.
  Energy threshold   = 1.00e-08
  Density threshold  = 1.00e-08
  Integral threshold = 1.00e-12

  ==> Primary Basis <==

  Basis Set: AUG-CC-PVTZ
    Blend: AUG-CC-PVTZ
    Number of shells: 48
    Number of basis functions: 142
    Number of Cartesian functions: 164
    Spherical Harmonics?: true
    Max angular momentum: 3

   => Loading Basis Set <=

    Name: (AUG-CC-PVTZ AUX)
    Role: JKFIT
    Keyword: DF_BASIS_SCF
    atoms 1   entry O          line   286 file /home/kchung25/anaconda3/envs/p415env/share/psi4/basis/aug-cc-pvtz-jkfit.gbs 
    atoms 2-3 entry H          line    70 file /home/kchung25/anaconda3/envs/p415env/share/psi4/basis/aug-cc-pvtz-jkfit.gbs 
    atoms 4   entry CL         line   816 file /home/kchung25/anaconda3/envs/p415env/share/psi4/basis/aug-cc-pvtz-jkfit.gbs 

  ==> Integral Setup <==

  DFHelper Memory: AOs need 0.056 GiB; user supplied 41.910 GiB. 
  Using in-core AOs.

  ==> MemDFJK: Density-Fitted J/K Matrices <==

    J tasked:                   Yes
    K tasked:                   Yes
    wK tasked:                   No
    OpenMP threads:               6
    Memory [MiB]:             42915
    Algorithm:                 Core
    Schwarz Cutoff:           1E-12
    Mask sparsity (%):       1.8250
    Fitting Condition:        1E-10

   => Auxiliary Basis Set <=

  Basis Set: (AUG-CC-PVTZ AUX)
    Blend: AUG-CC-PVTZ-JKFIT
    Number of shells: 100
    Number of basis functions: 342
    Number of Cartesian functions: 421
    Spherical Harmonics?: true
    Max angular momentum: 4

  Minimum eigenvalue in the overlap matrix is 3.6584430058E-04.
  Reciprocal condition number of the overlap matrix is 5.2225755453E-05.
    Using symmetric orthogonalization.

  ==> Pre-Iterations <==

  SCF Guess: Superposition of Atomic Densities via on-the-fly atomic UHF (no occupation information).

   -------------------------
    Irrep   Nso     Nmo    
   -------------------------
     A        142     142 
   -------------------------
    Total     142     142
   -------------------------

  ==> Iterations <==

                           Total Energy        Delta E     RMS |[F,P]|

   @DF-RHF iter SAD:  -534.59233715880816   -5.34592e+02   0.00000e+00 
   @DF-RHF iter   1:  -535.46401015708079   -8.71673e-01   4.00799e-03 DIIS/ADIIS
   @DF-RHF iter   2:  -535.57323190028808   -1.09222e-01   2.61598e-03 DIIS/ADIIS
   @DF-RHF iter   3:  -535.61786372642200   -4.46318e-02   2.35607e-04 DIIS/ADIIS
   @DF-RHF iter   4:  -535.61846358442835   -5.99858e-04   9.48462e-05 DIIS
   @DF-RHF iter   5:  -535.61856879762706   -1.05213e-04   1.85364e-05 DIIS
   @DF-RHF iter   6:  -535.61857705588488   -8.25826e-06   4.52565e-06 DIIS
   @DF-RHF iter   7:  -535.61857767997719   -6.24092e-07   1.16138e-06 DIIS
   @DF-RHF iter   8:  -535.61857772489248   -4.49153e-08   2.49252e-07 DIIS
   @DF-RHF iter   9:  -535.61857772674534   -1.85287e-09   4.34921e-08 DIIS
   @DF-RHF iter  10:  -535.61857772679514   -4.97948e-11   1.18622e-08 DIIS
   @DF-RHF iter  11:  -535.61857772679809   -2.95586e-12   3.43165e-09 DIIS
  Energy and wave function converged.


  ==> Post-Iterations <==

    Orbital Energies [Eh]
    ---------------------

    Doubly Occupied:                                                      

       1A   -104.492445     2A    -20.433036     3A    -10.216219  
       4A     -7.682271     5A     -7.682265     6A     -7.682211  
       7A     -1.217520     8A     -0.720326     9A     -0.581070  
      10A     -0.442789    11A     -0.373071    12A     -0.137486  
      13A     -0.137338    14A     -0.136092  

    Virtual:                                                              

      15A      0.126311    16A      0.137319    17A      0.246178  
      18A      0.286433    19A      0.287350    20A      0.289592  
      21A      0.305278    22A      0.311234    23A      0.321393  
      24A      0.377386    25A      0.379593    26A      0.386703  
      27A      0.434946    28A      0.442756    29A      0.491620  
      30A      0.493131    31A      0.567621    32A      0.581495  
      33A      0.606288    34A      0.607717    35A      0.638269  
      36A      0.654418    37A      0.681136    38A      0.747547  
      39A      0.789660    40A      0.848043    41A      0.868365  
      42A      0.869505    43A      0.910370    44A      0.911147  
      45A      0.915894    46A      0.970542    47A      0.987150  
      48A      1.040986    49A      1.045250    50A      1.067459  
      51A      1.075333    52A      1.076265    53A      1.143175  
      54A      1.169317    55A      1.211606    56A      1.216420  
      57A      1.233483    58A      1.235135    59A      1.237952  
      60A      1.279002    61A      1.281569    62A      1.288332  
      63A      1.301663    64A      1.333076    65A      1.349259  
      66A      1.383377    67A      1.479577    68A      1.479708  
      69A      1.481565    70A      1.486783    71A      1.511596  
      72A      1.606430    73A      1.606957    74A      1.643963  
      75A      1.731521    76A      1.780350    77A      1.955194  
      78A      1.956256    79A      2.117526    80A      2.255152  
      81A      2.408156    82A      2.458957    83A      2.510281  
      84A      2.567556    85A      2.594885    86A      2.618906  
      87A      2.639103    88A      2.826403    89A      2.827004  
      90A      2.842074    91A      2.843627    92A      2.877236  
      93A      2.886964    94A      2.893310    95A      2.935776  
      96A      2.973689    97A      3.002166    98A      3.021132  
      99A      3.027498   100A      3.119630   101A      3.385974  
     102A      3.386031   103A      3.387552   104A      3.389651  
     105A      3.406045   106A      3.442715   107A      3.520263  
     108A      3.810645   109A      3.896344   110A      4.149321  
     111A      4.221388   112A      4.326386   113A      4.388500  
     114A      4.423287   115A      4.510478   116A      4.540987  
     117A      4.552410   118A      4.654154   119A      4.880663  
     120A      4.981642   121A      5.282114   122A      5.289634  
     123A      5.395940   124A      5.470641   125A      5.530107  
     126A      5.662223   127A      5.835451   128A      6.334588  
     129A      6.674875   130A      6.854094   131A      7.046431  
     132A      7.280508   133A      7.406916   134A      7.457196  
     135A      7.458620   136A      7.498175   137A      7.527913  
     138A      7.684476   139A      8.053160   140A      8.071111  
     141A      8.955358   142A     15.956962  

    Final Occupation by Irrep:
              A 
    DOCC [    14 ]
    NA   [    14 ]
    NB   [    14 ]

  @DF-RHF Final Energy:  -535.61857772679809

   => Energetics <=

    Nuclear Repulsion Energy =             33.8575668290690999
    One-Electron Energy =                -815.0840090081771905
    Two-Electron Energy =                 245.6078644523099115
    Total Energy =                       -535.6185777267980939

Computation Completed


Properties will be evaluated at   0.000000,   0.000000,   0.000000 [a0]

Properties computed using the SCF density matrix


 Multipole Moments:

 ------------------------------------------------------------------------------------
     Multipole            Electronic (a.u.)      Nuclear  (a.u.)        Total (a.u.)
 ------------------------------------------------------------------------------------

 L = 1.  Multiply by 2.5417464519 to convert [e a0] to [Debye]
 Dipole X            :       -118.6254134          111.2102389           -7.4151745
 Dipole Y            :         -0.0000000            0.0000000           -0.0000000
 Dipole Z            :         -0.0000000            0.0000000           -0.0000000
 Magnitude           :                                                    7.4151745

 ------------------------------------------------------------------------------------

*** tstop() called on moses-razer at Thu Jan  4 16:40:29 2024
Module time:
	user time   =       4.53 seconds =       0.08 minutes
	system time =       0.31 seconds =       0.01 minutes
	total time  =          1 seconds =       0.02 minutes
Total time:
	user time   =      16.03 seconds =       0.27 minutes
	system time =       1.08 seconds =       0.02 minutes
	total time  =          3 seconds =       0.05 minutes

*** tstart() called on moses-razer
*** at Thu Jan  4 16:40:29 2024


  //>>>>>>>>>>>>>>>>>>>>>>>>>>>>>>>>>>>//
  //               DFMP2               //
  //<<<<<<<<<<<<<<<<<<<<<<<<<<<<<<<<<<<//

   => Loading Basis Set <=

    Name: (AUG-CC-PVTZ AUX)
    Role: RIFIT
    Keyword: DF_BASIS_MP2
    atoms 1   entry O          line   264 file /home/kchung25/anaconda3/envs/p415env/share/psi4/basis/aug-cc-pvtz-ri.gbs 
    atoms 2-3 entry H          line    30 file /home/kchung25/anaconda3/envs/p415env/share/psi4/basis/aug-cc-pvtz-ri.gbs 
    atoms 4   entry CL         line   742 file /home/kchung25/anaconda3/envs/p415env/share/psi4/basis/aug-cc-pvtz-ri.gbs 

	 --------------------------------------------------------
	                          DF-MP2                         
	      2nd-Order Density-Fitted Moller-Plesset Theory     
	              RMP2 Wavefunction,   6 Threads             
	                                                         
	        Rob Parrish, Justin Turney, Andy Simmonett,      
	           Ed Hohenstein, and C. David Sherrill          
	 --------------------------------------------------------

   => Auxiliary Basis Set <=

  Basis Set: (AUG-CC-PVTZ AUX)
    Blend: AUG-CC-PVTZ-RI
    Number of shells: 93
    Number of basis functions: 345
    Number of Cartesian functions: 437
    Spherical Harmonics?: true
    Max angular momentum: 4

	 --------------------------------------------------------
	                 NBF =   142, NAUX =   345
	 --------------------------------------------------------
	   CLASS    FOCC     OCC    AOCC    AVIR     VIR    FVIR
	   PAIRS       0      14      14     128     128       0
	 --------------------------------------------------------

	-----------------------------------------------------------
	 ==================> DF-MP2 Energies <==================== 
	-----------------------------------------------------------
	 Reference Energy          =    -535.6185777267980939 [Eh]
	 Singles Energy            =      -0.0000000000000000 [Eh]
	 Same-Spin Energy          =      -0.1316569308107840 [Eh]
	 Opposite-Spin Energy      =      -0.3957467506120927 [Eh]
	 Correlation Energy        =      -0.5274036814228766 [Eh]
	 Total Energy              =    -536.1459814082210187 [Eh]
	-----------------------------------------------------------
	 ================> DF-SCS-MP2 Energies <================== 
	-----------------------------------------------------------
	 SCS Same-Spin Scale       =       0.3333333333333333 [-]
	 SCS Opposite-Spin Scale   =       1.2000000000000000 [-]
	 SCS Same-Spin Energy      =      -0.0438856436035947 [Eh]
	 SCS Opposite-Spin Energy  =      -0.4748961007345112 [Eh]
	 SCS Correlation Energy    =      -0.5187817443381059 [Eh]
	 SCS Total Energy          =    -536.1373594711361648 [Eh]
	-----------------------------------------------------------


*** tstop() called on moses-razer at Thu Jan  4 16:40:29 2024
Module time:
	user time   =       1.90 seconds =       0.03 minutes
	system time =       0.11 seconds =       0.00 minutes
	total time  =          0 seconds =       0.00 minutes
Total time:
	user time   =      17.93 seconds =       0.30 minutes
	system time =       1.19 seconds =       0.02 minutes
	total time  =          3 seconds =       0.05 minutes

    Psi4 stopped on: Thursday, 04 January 2024 04:40PM
    Psi4 wall time for execution: 0:00:01.27


  //>>>>>>>>>>>>>>>>>>>>>>>>>>>>>>>>>>>//
  //          ManyBody Results         //
  //<<<<<<<<<<<<<<<<<<<<<<<<<<<<<<<<<<<//


   ==> N-Body: Counterpoise Corrected (CP) energies <==

        n-Body     Total Energy            Interaction Energy                          N-body Contribution to Interaction Energy
                   [Eh]                    [Eh]                  [kcal/mol]            [Eh]                  [kcal/mol]
             1  N/A                         0.000000000000        0.000000000000        0.000000000000        0.000000000000
  FULL/RTN   2  N/A                         0.012888581371        8.087706913954        0.012888581371        8.087706913954


    Psi4 stopped on: Thursday, 04 January 2024 04:40PM
    Psi4 wall time for execution: 0:00:05.08

*** Psi4 exiting successfully. Buy a developer a beer!
