
    -----------------------------------------------------------------------
          Psi4: An Open-Source Ab Initio Electronic Structure Package
                               Psi4 1.9 release

                         Git: Rev {} zzzzzzz 


    D. G. A. Smith, L. A. Burns, A. C. Simmonett, R. M. Parrish,
    M. C. Schieber, R. Galvelis, P. Kraus, H. Kruse, R. Di Remigio,
    A. Alenaizan, A. M. James, S. Lehtola, J. P. Misiewicz, M. Scheurer,
    R. A. Shaw, J. B. Schriber, Y. Xie, Z. L. Glick, D. A. Sirianni,
    J. S. O'Brien, J. M. Waldrop, A. Kumar, E. G. Hohenstein,
    B. P. Pritchard, B. R. Brooks, H. F. Schaefer III, A. Yu. Sokolov,
    K. Patkowski, A. E. DePrince III, U. Bozkaya, R. A. King,
    F. A. Evangelista, J. M. Turney, T. D. Crawford, C. D. Sherrill,
    J. Chem. Phys. 152(18) 184108 (2020). https://doi.org/10.1063/5.0006002

                            Additional Code Authors
    E. T. Seidl, C. L. Janssen, E. F. Valeev, M. L. Leininger,
    J. F. Gonthier, R. M. Richard, H. R. McAlexander, M. Saitow, X. Wang,
    P. Verma, M. H. Lechner, A. Jiang, S. Behnle, A. G. Heide,
    M. F. Herbst, and D. L. Poole

             Previous Authors, Complete List of Code Contributors,
                       and Citations for Specific Modules
    https://github.com/psi4/psi4/blob/master/codemeta.json
    https://github.com/psi4/psi4/graphs/contributors
    http://psicode.org/psi4manual/master/introduction.html#citing-psifour

    -----------------------------------------------------------------------


    Psi4 started on: Thursday, 04 January 2024 04:41PM

    Process ID: 490658
    Host:       moses-razer
    PSIDATADIR: /home/kchung25/anaconda3/envs/psi4_19/share/psi4
    Memory:     500.0 MiB
    Threads:    6
    
  ==> Input File <==

--------------------------------------------------------------------------
MEMORY 60 GB

molecule dimer {
0 1
O      0.000000     0.000000     0.000000
H     -0.588538     0.756918     0.000000
H     -0.588538    -0.756918     0.000000
--
-1 1
Br     4.032000     0.000000     0.000000

units ang
no_reorient
no_com
symmetry c1
}

set {
basis        aug-cc-pVTZ
scf_type     df
}

energy("mp2", bsse_type="cp")
--------------------------------------------------------------------------

  Memory set to  55.879 GiB by Python driver.

Scratch directory: /scratch/

  //>>>>>>>>>>>>>>>>>>>>>>>>>>>>>>>>>>>>>//
  // ManyBody Setup: N-Body Levels [1, 2]//
  //<<<<<<<<<<<<<<<<<<<<<<<<<<<<<<<<<<<<<//

        Number of 1-body computations:     2
        Number of 2-body computations:     1

    -----------------------------------------------------------------------
          Psi4: An Open-Source Ab Initio Electronic Structure Package
                               Psi4 1.9 release

                         Git: Rev {} zzzzzzz 


    D. G. A. Smith, L. A. Burns, A. C. Simmonett, R. M. Parrish,
    M. C. Schieber, R. Galvelis, P. Kraus, H. Kruse, R. Di Remigio,
    A. Alenaizan, A. M. James, S. Lehtola, J. P. Misiewicz, M. Scheurer,
    R. A. Shaw, J. B. Schriber, Y. Xie, Z. L. Glick, D. A. Sirianni,
    J. S. O'Brien, J. M. Waldrop, A. Kumar, E. G. Hohenstein,
    B. P. Pritchard, B. R. Brooks, H. F. Schaefer III, A. Yu. Sokolov,
    K. Patkowski, A. E. DePrince III, U. Bozkaya, R. A. King,
    F. A. Evangelista, J. M. Turney, T. D. Crawford, C. D. Sherrill,
    J. Chem. Phys. 152(18) 184108 (2020). https://doi.org/10.1063/5.0006002

                            Additional Code Authors
    E. T. Seidl, C. L. Janssen, E. F. Valeev, M. L. Leininger,
    J. F. Gonthier, R. M. Richard, H. R. McAlexander, M. Saitow, X. Wang,
    P. Verma, M. H. Lechner, A. Jiang, S. Behnle, A. G. Heide,
    M. F. Herbst, and D. L. Poole

             Previous Authors, Complete List of Code Contributors,
                       and Citations for Specific Modules
    https://github.com/psi4/psi4/blob/master/codemeta.json
    https://github.com/psi4/psi4/graphs/contributors
    http://psicode.org/psi4manual/master/introduction.html#citing-psifour

    -----------------------------------------------------------------------


    Psi4 started on: Thursday, 04 January 2024 04:41PM

    Process ID: 490658
    Host:       moses-razer
    PSIDATADIR: /home/kchung25/anaconda3/envs/psi4_19/share/psi4
    Memory:     55.9 GiB
    Threads:    6
    
  ==> Input QCSchema <==

--------------------------------------------------------------------------
{'driver': 'energy',
 'extras': {'psiapi': True, 'wfn_qcvars_only': True},
 'id': None,
 'keywords': {'SCF_TYPE': 'DF', 'function_kwargs': {}},
 'model': {'basis': 'aug-cc-pvtz', 'method': 'mp2'},
 'molecule': {'atom_labels': ['', '', '', ''],
              'atomic_numbers': [8, 1, 1, 35],
              'extras': {},
              'fix_com': True,
              'fix_orientation': True,
              'fix_symmetry': 'c1',
              'fragment_charges': [0.0, -1.0],
              'fragment_multiplicities': [1, 1],
              'fragments': [[0, 1, 2], [3]],
              'geometry': [0.0, 0.0, 0.0, -1.1121756344246994, 1.4303677194292883, 0.0, -1.1121756344246994,
                           -1.4303677194292883, 0.0, 7.619375737845963, 0.0, 0.0],
              'mass_numbers': [16, 1, 1, 79],
              'masses': [15.99491461957, 1.00782503223, 1.00782503223, 78.9183376],
              'molecular_charge': -1.0,
              'molecular_multiplicity': 1,
              'name': 'dimer',
              'provenance': {'creator': 'QCElemental',
                             'routine': 'qcelemental.molparse.from_string',
                             'version': '0.27.1'},
              'real': [False, False, False, True],
              'schema_name': 'qcschema_molecule',
              'schema_version': 2,
              'symbols': ['O', 'H', 'H', 'Br'],
              'validated': True},
 'protocols': {'stdout': True},
 'provenance': {'creator': 'QCElemental', 'routine': 'qcelemental.models.results', 'version': '0.27.1'},
 'schema_name': 'qcschema_input',
 'schema_version': 1}
--------------------------------------------------------------------------

Scratch directory: /scratch/
   => Libint2 <=

    Primary   basis highest AM E, G, H:  5, 4, 3
    Auxiliary basis highest AM E, G, H:  6, 5, 4
    Onebody   basis highest AM E, G, H:  6, 5, 4
    Solid Harmonics ordering:            gaussian

*** tstart() called on moses-razer
*** at Thu Jan  4 16:41:26 2024

   => Loading Basis Set <=

    Name: AUG-CC-PVTZ
    Role: ORBITAL
    Keyword: BASIS
    atoms 1   entry O          line   331 file /home/kchung25/anaconda3/envs/p415env/share/psi4/basis/aug-cc-pvtz.gbs 
    atoms 2-3 entry H          line    40 file /home/kchung25/anaconda3/envs/p415env/share/psi4/basis/aug-cc-pvtz.gbs 
    atoms 4   entry BR         line  4564 file /home/kchung25/anaconda3/envs/p415env/share/psi4/basis/aug-cc-pvtz.gbs 


         ---------------------------------------------------------
                                   SCF
               by Justin Turney, Rob Parrish, Andy Simmonett
                          and Daniel G. A. Smith
                              RHF Reference
                        6 Threads,  57220 MiB Core
         ---------------------------------------------------------

  ==> Geometry <==

    Molecular point group: c1
    Full point group: C2v

    Geometry (in Bohr), charge = -1, multiplicity = 1:

       Center              X                  Y                   Z               Mass       
    ------------   -----------------  -----------------  -----------------  -----------------
      Gh(O)           0.000000000000     0.000000000000     0.000000000000    15.994914619570
      Gh(H)          -1.112175634425     1.430367719429     0.000000000000     1.007825032230
      Gh(H)          -1.112175634425    -1.430367719429     0.000000000000     1.007825032230
         BR           7.619375737846     0.000000000000     0.000000000000    78.918337600000

  Running in c1 symmetry.

  Rotational constants: A =     14.59768  B =      0.01313  C =      0.01312 [cm^-1]
  Rotational constants: A = 437627.28990  B =    393.69686  C =    393.34300 [MHz]
  Nuclear repulsion =    0.000000000000000

  Charge       = -1
  Multiplicity = 1
  Electrons    = 36
  Nalpha       = 18
  Nbeta        = 18

  ==> Algorithm <==

  SCF Algorithm Type is DF.
  DIIS enabled.
  MOM disabled.
  Fractional occupation disabled.
  Guess Type is SAD.
  Energy threshold   = 1.00e-08
  Density threshold  = 1.00e-08
  Integral threshold = 1.00e-12

  ==> Primary Basis <==

  Basis Set: AUG-CC-PVTZ
    Blend: AUG-CC-PVTZ
    Number of shells: 51
    Number of basis functions: 151
    Number of Cartesian functions: 174
    Spherical Harmonics?: true
    Max angular momentum: 3

   => Loading Basis Set <=

    Name: (AUG-CC-PVTZ AUX)
    Role: JKFIT
    Keyword: DF_BASIS_SCF
    atoms 1   entry O          line   286 file /home/kchung25/anaconda3/envs/p415env/share/psi4/basis/aug-cc-pvtz-jkfit.gbs 
    atoms 2-3 entry H          line    70 file /home/kchung25/anaconda3/envs/p415env/share/psi4/basis/aug-cc-pvtz-jkfit.gbs 
    atoms 4   entry BR         line  1492 file /home/kchung25/anaconda3/envs/p415env/share/psi4/basis/aug-cc-pvtz-jkfit.gbs 

  ==> Integral Setup <==

  DFHelper Memory: AOs need 0.080 GiB; user supplied 41.910 GiB. 
  Using in-core AOs.

  ==> MemDFJK: Density-Fitted J/K Matrices <==

    J tasked:                   Yes
    K tasked:                   Yes
    wK tasked:                   No
    OpenMP threads:               6
    Memory [MiB]:             42915
    Algorithm:                 Core
    Schwarz Cutoff:           1E-12
    Mask sparsity (%):       3.2455
    Fitting Condition:        1E-10

   => Auxiliary Basis Set <=

  Basis Set: (AUG-CC-PVTZ AUX)
    Blend: AUG-CC-PVTZ-JKFIT
    Number of shells: 116
    Number of basis functions: 444
    Number of Cartesian functions: 570
    Spherical Harmonics?: true
    Max angular momentum: 4

  Minimum eigenvalue in the overlap matrix is 3.6993481468E-04.
  Reciprocal condition number of the overlap matrix is 5.3134153598E-05.
    Using symmetric orthogonalization.

  ==> Pre-Iterations <==

  SCF Guess: Superposition of Atomic Densities via on-the-fly atomic UHF (no occupation information).

   -------------------------
    Irrep   Nso     Nmo    
   -------------------------
     A        151     151 
   -------------------------
    Total     151     151
   -------------------------

  ==> Iterations <==

                           Total Energy        Delta E     RMS |[F,P]|

   @DF-RHF iter SAD: -2570.41423520918988   -2.57041e+03   0.00000e+00 
   @DF-RHF iter   1: -2572.25585784988425   -1.84162e+00   6.93513e-03 ADIIS/DIIS
   @DF-RHF iter   2: -2572.46477830457843   -2.08920e-01   3.84693e-03 ADIIS/DIIS
   @DF-RHF iter   3: -2572.53363624751364   -6.88579e-02   6.20433e-05 DIIS
   @DF-RHF iter   4: -2572.53366898349532   -3.27360e-05   7.18295e-06 DIIS
   @DF-RHF iter   5: -2572.53367000498793   -1.02149e-06   1.86726e-06 DIIS
   @DF-RHF iter   6: -2572.53367007230918   -6.73213e-08   3.35724e-07 DIIS
   @DF-RHF iter   7: -2572.53367008010855   -7.79937e-09   2.60796e-08 DIIS
   @DF-RHF iter   8: -2572.53367008016039   -5.18412e-11   7.60321e-09 DIIS
  Energy and wave function converged.


  ==> Post-Iterations <==

    Orbital Energies [Eh]
    ---------------------

    Doubly Occupied:                                                      

       1A   -489.720394     2A    -64.860478     3A    -58.214947  
       4A    -58.214947     5A    -58.214946     6A     -9.532861  
       7A     -7.140202     8A     -7.140201     9A     -7.140198  
      10A     -2.881868    11A     -2.881868    12A     -2.881868  
      13A     -2.881868    14A     -2.881861    15A     -0.685999  
      16A     -0.139338    17A     -0.139335    18A     -0.139335  

    Virtual:                                                              

      19A      0.122995    20A      0.137147    21A      0.231305  
      22A      0.243433    23A      0.255415    24A      0.257063  
      25A      0.268896    26A      0.275639    27A      0.281697  
      28A      0.341577    29A      0.384698    30A      0.385285  
      31A      0.392526    32A      0.420938    33A      0.469687  
      34A      0.485099    35A      0.485806    36A      0.491515  
      37A      0.495680    38A      0.524398    39A      0.540533  
      40A      0.548379    41A      0.587850    42A      0.714152  
      43A      0.739468    44A      0.745300    45A      0.778854  
      46A      0.788204    47A      0.871889    48A      0.900896  
      49A      0.918921    50A      0.919283    51A      0.937168  
      52A      0.956636    53A      0.958060    54A      1.016486  
      55A      1.019859    56A      1.032661    57A      1.035306  
      58A      1.043909    59A      1.052330    60A      1.084277  
      61A      1.092430    62A      1.101788    63A      1.106861  
      64A      1.151412    65A      1.165782    66A      1.197080  
      67A      1.198510    68A      1.209598    69A      1.209641  
      70A      1.210062    71A      1.210174    72A      1.259515  
      73A      1.275417    74A      1.315576    75A      1.327247  
      76A      1.409718    77A      1.540830    78A      1.601006  
      79A      1.805382    80A      1.810246    81A      1.837835  
      82A      1.954448    83A      1.960746    84A      2.169111  
      85A      2.409566    86A      2.415149    87A      2.452142  
      88A      2.492135    89A      2.508351    90A      2.566713  
      91A      2.566818    92A      2.576157    93A      2.576579  
      94A      2.584272    95A      2.585766    96A      2.585784  
      97A      2.585805    98A      2.586690    99A      2.598491  
     100A      2.603503   101A      2.658318   102A      2.659284  
     103A      2.671325   104A      2.675919   105A      2.684436  
     106A      2.697721   107A      2.847986   108A      3.004673  
     109A      3.281611   110A      3.292475   111A      3.307690  
     112A      3.428474   113A      3.446235   114A      3.644681  
     115A      3.773867   116A      3.815212   117A      4.464069  
     118A      4.544975   119A      4.607289   120A      4.722222  
     121A      4.761546   122A      4.764623   123A      4.975784  
     124A      4.986131   125A      4.990392   126A      5.307443  
     127A      5.664076   128A      5.726677   129A      5.773719  
     130A      5.958433   131A      6.216724   132A      6.508729  
     133A      6.738599   134A      7.189860   135A      7.794216  
     136A      7.943199   137A      8.179247   138A      8.291821  
     139A      8.411428   140A      8.862770   141A      8.957845  
     142A      9.775187   143A      9.959548   144A     10.117672  
     145A     10.353313   146A     11.369819   147A     11.735180  
     148A     12.235182   149A     13.619374   150A     13.899054  
     151A     64.715849  

    Final Occupation by Irrep:
              A 
    DOCC [    18 ]
    NA   [    18 ]
    NB   [    18 ]

  @DF-RHF Final Energy: -2572.53367008016039

   => Energetics <=

    Nuclear Repulsion Energy =              0.0000000000000000
    One-Electron Energy =               -3593.6823099092089251
    Two-Electron Energy =                1021.1486398290488751
    Total Energy =                      -2572.5336700801599363

Computation Completed


Properties will be evaluated at   0.000000,   0.000000,   0.000000 [a0]

Properties computed using the SCF density matrix


 Multipole Moments:

 ------------------------------------------------------------------------------------
     Multipole            Electronic (a.u.)      Nuclear  (a.u.)        Total (a.u.)
 ------------------------------------------------------------------------------------

 L = 1.  Multiply by 2.5417464519 to convert [e a0] to [Debye]
 Dipole X            :       -274.2972373          266.6781508           -7.6190865
 Dipole Y            :         -0.0000000            0.0000000           -0.0000000
 Dipole Z            :          0.0000000            0.0000000            0.0000000
 Magnitude           :                                                    7.6190865

 ------------------------------------------------------------------------------------

*** tstop() called on moses-razer at Thu Jan  4 16:41:29 2024
Module time:
	user time   =       8.10 seconds =       0.13 minutes
	system time =       1.14 seconds =       0.02 minutes
	total time  =          3 seconds =       0.05 minutes
Total time:
	user time   =       8.10 seconds =       0.13 minutes
	system time =       1.14 seconds =       0.02 minutes
	total time  =          3 seconds =       0.05 minutes

*** tstart() called on moses-razer
*** at Thu Jan  4 16:41:29 2024


  //>>>>>>>>>>>>>>>>>>>>>>>>>>>>>>>>>>>//
  //               DFMP2               //
  //<<<<<<<<<<<<<<<<<<<<<<<<<<<<<<<<<<<//

   => Loading Basis Set <=

    Name: (AUG-CC-PVTZ AUX)
    Role: RIFIT
    Keyword: DF_BASIS_MP2
    atoms 1   entry O          line   264 file /home/kchung25/anaconda3/envs/p415env/share/psi4/basis/aug-cc-pvtz-ri.gbs 
    atoms 2-3 entry H          line    30 file /home/kchung25/anaconda3/envs/p415env/share/psi4/basis/aug-cc-pvtz-ri.gbs 
    atoms 4   entry BR         line  1248 file /home/kchung25/anaconda3/envs/p415env/share/psi4/basis/aug-cc-pvtz-ri.gbs 

	 --------------------------------------------------------
	                          DF-MP2                         
	      2nd-Order Density-Fitted Moller-Plesset Theory     
	              RMP2 Wavefunction,   6 Threads             
	                                                         
	        Rob Parrish, Justin Turney, Andy Simmonett,      
	           Ed Hohenstein, and C. David Sherrill          
	 --------------------------------------------------------

   => Auxiliary Basis Set <=

  Basis Set: (AUG-CC-PVTZ AUX)
    Blend: AUG-CC-PVTZ-RI
    Number of shells: 99
    Number of basis functions: 389
    Number of Cartesian functions: 507
    Spherical Harmonics?: true
    Max angular momentum: 5

	 --------------------------------------------------------
	                 NBF =   151, NAUX =   389
	 --------------------------------------------------------
	   CLASS    FOCC     OCC    AOCC    AVIR     VIR    FVIR
	   PAIRS       0      18      18     133     133       0
	 --------------------------------------------------------

	-----------------------------------------------------------
	 ==================> DF-MP2 Energies <==================== 
	-----------------------------------------------------------
	 Reference Energy          =   -2572.5336700801603911 [Eh]
	 Singles Energy            =      -0.0000000000000000 [Eh]
	 Same-Spin Energy          =      -0.0868462352736551 [Eh]
	 Opposite-Spin Energy      =      -0.2013540808347305 [Eh]
	 Correlation Energy        =      -0.2882003161083856 [Eh]
	 Total Energy              =   -2572.8218703962688778 [Eh]
	-----------------------------------------------------------
	 ================> DF-SCS-MP2 Energies <================== 
	-----------------------------------------------------------
	 SCS Same-Spin Scale       =       0.3333333333333333 [-]
	 SCS Opposite-Spin Scale   =       1.2000000000000000 [-]
	 SCS Same-Spin Energy      =      -0.0289487450912184 [Eh]
	 SCS Opposite-Spin Energy  =      -0.2416248970016766 [Eh]
	 SCS Correlation Energy    =      -0.2705736420928949 [Eh]
	 SCS Total Energy          =   -2572.8042437222534318 [Eh]
	-----------------------------------------------------------


*** tstop() called on moses-razer at Thu Jan  4 16:41:30 2024
Module time:
	user time   =       3.20 seconds =       0.05 minutes
	system time =       0.33 seconds =       0.01 minutes
	total time  =          1 seconds =       0.02 minutes
Total time:
	user time   =      11.30 seconds =       0.19 minutes
	system time =       1.47 seconds =       0.02 minutes
	total time  =          4 seconds =       0.07 minutes

    Psi4 stopped on: Thursday, 04 January 2024 04:41PM
    Psi4 wall time for execution: 0:00:04.33


    -----------------------------------------------------------------------
          Psi4: An Open-Source Ab Initio Electronic Structure Package
                               Psi4 1.9 release

                         Git: Rev {} zzzzzzz 


    D. G. A. Smith, L. A. Burns, A. C. Simmonett, R. M. Parrish,
    M. C. Schieber, R. Galvelis, P. Kraus, H. Kruse, R. Di Remigio,
    A. Alenaizan, A. M. James, S. Lehtola, J. P. Misiewicz, M. Scheurer,
    R. A. Shaw, J. B. Schriber, Y. Xie, Z. L. Glick, D. A. Sirianni,
    J. S. O'Brien, J. M. Waldrop, A. Kumar, E. G. Hohenstein,
    B. P. Pritchard, B. R. Brooks, H. F. Schaefer III, A. Yu. Sokolov,
    K. Patkowski, A. E. DePrince III, U. Bozkaya, R. A. King,
    F. A. Evangelista, J. M. Turney, T. D. Crawford, C. D. Sherrill,
    J. Chem. Phys. 152(18) 184108 (2020). https://doi.org/10.1063/5.0006002

                            Additional Code Authors
    E. T. Seidl, C. L. Janssen, E. F. Valeev, M. L. Leininger,
    J. F. Gonthier, R. M. Richard, H. R. McAlexander, M. Saitow, X. Wang,
    P. Verma, M. H. Lechner, A. Jiang, S. Behnle, A. G. Heide,
    M. F. Herbst, and D. L. Poole

             Previous Authors, Complete List of Code Contributors,
                       and Citations for Specific Modules
    https://github.com/psi4/psi4/blob/master/codemeta.json
    https://github.com/psi4/psi4/graphs/contributors
    http://psicode.org/psi4manual/master/introduction.html#citing-psifour

    -----------------------------------------------------------------------


    Psi4 started on: Thursday, 04 January 2024 04:41PM

    Process ID: 490658
    Host:       moses-razer
    PSIDATADIR: /home/kchung25/anaconda3/envs/psi4_19/share/psi4
    Memory:     55.9 GiB
    Threads:    6
    
  ==> Input QCSchema <==

--------------------------------------------------------------------------
{'driver': 'energy',
 'extras': {'psiapi': True, 'wfn_qcvars_only': True},
 'id': None,
 'keywords': {'SCF_TYPE': 'DF', 'function_kwargs': {}},
 'model': {'basis': 'aug-cc-pvtz', 'method': 'mp2'},
 'molecule': {'atom_labels': ['', '', '', ''],
              'atomic_numbers': [8, 1, 1, 35],
              'extras': {},
              'fix_com': True,
              'fix_orientation': True,
              'fix_symmetry': 'c1',
              'fragment_charges': [0.0, 0.0],
              'fragment_multiplicities': [1, 1],
              'fragments': [[0, 1, 2], [3]],
              'geometry': [0.0, 0.0, 0.0, -1.1121756344246994, 1.4303677194292883, 0.0, -1.1121756344246994,
                           -1.4303677194292883, 0.0, 7.619375737845963, 0.0, 0.0],
              'mass_numbers': [16, 1, 1, 79],
              'masses': [15.99491461957, 1.00782503223, 1.00782503223, 78.9183376],
              'molecular_charge': 0.0,
              'molecular_multiplicity': 1,
              'name': 'dimer',
              'provenance': {'creator': 'QCElemental',
                             'routine': 'qcelemental.molparse.from_string',
                             'version': '0.27.1'},
              'real': [True, True, True, False],
              'schema_name': 'qcschema_molecule',
              'schema_version': 2,
              'symbols': ['O', 'H', 'H', 'Br'],
              'validated': True},
 'protocols': {'stdout': True},
 'provenance': {'creator': 'QCElemental', 'routine': 'qcelemental.models.results', 'version': '0.27.1'},
 'schema_name': 'qcschema_input',
 'schema_version': 1}
--------------------------------------------------------------------------

Scratch directory: /scratch/
   => Libint2 <=

    Primary   basis highest AM E, G, H:  5, 4, 3
    Auxiliary basis highest AM E, G, H:  6, 5, 4
    Onebody   basis highest AM E, G, H:  6, 5, 4
    Solid Harmonics ordering:            gaussian

*** tstart() called on moses-razer
*** at Thu Jan  4 16:41:30 2024

   => Loading Basis Set <=

    Name: AUG-CC-PVTZ
    Role: ORBITAL
    Keyword: BASIS
    atoms 1   entry O          line   331 file /home/kchung25/anaconda3/envs/p415env/share/psi4/basis/aug-cc-pvtz.gbs 
    atoms 2-3 entry H          line    40 file /home/kchung25/anaconda3/envs/p415env/share/psi4/basis/aug-cc-pvtz.gbs 
    atoms 4   entry BR         line  4564 file /home/kchung25/anaconda3/envs/p415env/share/psi4/basis/aug-cc-pvtz.gbs 


         ---------------------------------------------------------
                                   SCF
               by Justin Turney, Rob Parrish, Andy Simmonett
                          and Daniel G. A. Smith
                              RHF Reference
                        6 Threads,  57220 MiB Core
         ---------------------------------------------------------

  ==> Geometry <==

    Molecular point group: c1
    Full point group: C2v

    Geometry (in Bohr), charge = 0, multiplicity = 1:

       Center              X                  Y                   Z               Mass       
    ------------   -----------------  -----------------  -----------------  -----------------
         O            0.000000000000     0.000000000000     0.000000000000    15.994914619570
         H           -1.112175634425     1.430367719429     0.000000000000     1.007825032230
         H           -1.112175634425    -1.430367719429     0.000000000000     1.007825032230
      Gh(BR)          7.619375737846     0.000000000000     0.000000000000    78.918337600000

  Running in c1 symmetry.

  Rotational constants: A =     14.59768  B =      0.01313  C =      0.01312 [cm^-1]
  Rotational constants: A = 437627.28990  B =    393.69686  C =    393.34300 [MHz]
  Nuclear repulsion =    9.180197847927069

  Charge       = 0
  Multiplicity = 1
  Electrons    = 10
  Nalpha       = 5
  Nbeta        = 5

  ==> Algorithm <==

  SCF Algorithm Type is DF.
  DIIS enabled.
  MOM disabled.
  Fractional occupation disabled.
  Guess Type is SAD.
  Energy threshold   = 1.00e-08
  Density threshold  = 1.00e-08
  Integral threshold = 1.00e-12

  ==> Primary Basis <==

  Basis Set: AUG-CC-PVTZ
    Blend: AUG-CC-PVTZ
    Number of shells: 51
    Number of basis functions: 151
    Number of Cartesian functions: 174
    Spherical Harmonics?: true
    Max angular momentum: 3

   => Loading Basis Set <=

    Name: (AUG-CC-PVTZ AUX)
    Role: JKFIT
    Keyword: DF_BASIS_SCF
    atoms 1   entry O          line   286 file /home/kchung25/anaconda3/envs/p415env/share/psi4/basis/aug-cc-pvtz-jkfit.gbs 
    atoms 2-3 entry H          line    70 file /home/kchung25/anaconda3/envs/p415env/share/psi4/basis/aug-cc-pvtz-jkfit.gbs 
    atoms 4   entry BR         line  1492 file /home/kchung25/anaconda3/envs/p415env/share/psi4/basis/aug-cc-pvtz-jkfit.gbs 

  ==> Integral Setup <==

  DFHelper Memory: AOs need 0.080 GiB; user supplied 41.910 GiB. 
  Using in-core AOs.

  ==> MemDFJK: Density-Fitted J/K Matrices <==

    J tasked:                   Yes
    K tasked:                   Yes
    wK tasked:                   No
    OpenMP threads:               6
    Memory [MiB]:             42915
    Algorithm:                 Core
    Schwarz Cutoff:           1E-12
    Mask sparsity (%):       3.2455
    Fitting Condition:        1E-10

   => Auxiliary Basis Set <=

  Basis Set: (AUG-CC-PVTZ AUX)
    Blend: AUG-CC-PVTZ-JKFIT
    Number of shells: 116
    Number of basis functions: 444
    Number of Cartesian functions: 570
    Spherical Harmonics?: true
    Max angular momentum: 4

  Minimum eigenvalue in the overlap matrix is 3.6993481468E-04.
  Reciprocal condition number of the overlap matrix is 5.3134153598E-05.
    Using symmetric orthogonalization.

  ==> Pre-Iterations <==

  SCF Guess: Superposition of Atomic Densities via on-the-fly atomic UHF (no occupation information).

   -------------------------
    Irrep   Nso     Nmo    
   -------------------------
     A        151     151 
   -------------------------
    Total     151     151
   -------------------------

  ==> Iterations <==

                           Total Energy        Delta E     RMS |[F,P]|

   @DF-RHF iter SAD:   -75.47651207531602   -7.54765e+01   0.00000e+00 
   @DF-RHF iter   1:   -75.97615442159542   -4.99642e-01   3.10296e-03 ADIIS/DIIS
   @DF-RHF iter   2:   -76.02867562296775   -5.25212e-02   2.11364e-03 ADIIS/DIIS
   @DF-RHF iter   3:   -76.06006705423771   -3.13914e-02   1.44681e-04 ADIIS/DIIS
   @DF-RHF iter   4:   -76.06045833688444   -3.91283e-04   3.41773e-05 DIIS
   @DF-RHF iter   5:   -76.06048242046843   -2.40836e-05   7.78710e-06 DIIS
   @DF-RHF iter   6:   -76.06048439562417   -1.97516e-06   1.70416e-06 DIIS
   @DF-RHF iter   7:   -76.06048449979212   -1.04168e-07   3.07177e-07 DIIS
   @DF-RHF iter   8:   -76.06048450275901   -2.96689e-09   5.10104e-08 DIIS
   @DF-RHF iter   9:   -76.06048450282381   -6.48015e-11   1.25988e-08 DIIS
   @DF-RHF iter  10:   -76.06048450282771   -3.89377e-12   1.84496e-09 DIIS
  Energy and wave function converged.


  ==> Post-Iterations <==

    Orbital Energies [Eh]
    ---------------------

    Doubly Occupied:                                                      

       1A    -20.567590     2A     -1.352980     3A     -0.716513  
       4A     -0.585133     5A     -0.510308  

    Virtual:                                                              

       6A      0.028049     7A      0.047302     8A      0.067429  
       9A      0.086872    10A      0.091277    11A      0.106116  
      12A      0.150476    13A      0.169526    14A      0.182792  
      15A      0.211096    16A      0.235504    17A      0.264653  
      18A      0.268192    19A      0.300305    20A      0.309973  
      21A      0.324937    22A      0.327274    23A      0.328889  
      24A      0.341330    25A      0.342092    26A      0.361027  
      27A      0.370883    28A      0.391561    29A      0.417328  
      30A      0.444299    31A      0.467690    32A      0.492017  
      33A      0.608911    34A      0.666966    35A      0.722535  
      36A      0.738876    37A      0.742005    38A      0.822379  
      39A      0.847657    40A      0.883081    41A      0.907578  
      42A      0.916745    43A      0.922515    44A      0.948732  
      45A      0.979046    46A      1.005406    47A      1.008967  
      48A      1.024872    49A      1.042054    50A      1.045689  
      51A      1.052622    52A      1.060813    53A      1.069481  
      54A      1.070046    55A      1.070144    56A      1.070907  
      57A      1.080295    58A      1.108426    59A      1.125636  
      60A      1.126268    61A      1.128677    62A      1.136992  
      63A      1.175417    64A      1.179192    65A      1.199668  
      66A      1.202392    67A      1.280616    68A      1.313696  
      69A      1.511383    70A      1.575404    71A      1.588735  
      72A      1.821105    73A      1.828682    74A      1.988743  
      75A      2.120430    76A      2.264449    77A      2.316694  
      78A      2.349833    79A      2.422400    80A      2.429307  
      81A      2.445176    82A      2.489255    83A      2.677611  
      84A      2.702885    85A      2.781995    86A      2.822955  
      87A      2.870972    88A      2.873549    89A      2.883031  
      90A      2.885469    91A      2.922596    92A      3.136360  
      93A      3.136376    94A      3.137356    95A      3.138149  
      96A      3.147042    97A      3.167257    98A      3.197597  
      99A      3.303680   100A      3.304195   101A      3.321773  
     102A      3.326282   103A      3.386941   104A      3.669245  
     105A      3.753301   106A      4.019776   107A      4.088442  
     108A      4.190926   109A      4.252740   110A      4.290831  
     111A      4.379112   112A      4.397782   113A      4.411317  
     114A      4.521447   115A      4.740841   116A      4.850296  
     117A      5.151491   118A      5.156116   119A      5.258101  
     120A      5.334999   121A      5.528979   122A      5.680093  
     123A      6.189141   124A      6.522556   125A      6.715677  
     126A      6.906209   127A      7.141084   128A      7.264555  
     129A      7.317391   130A      7.320727   131A      7.351225  
     132A      7.362659   133A      7.545797   134A      7.914308  
     135A      7.932703   136A      8.818609   137A      9.175971  
     138A     13.461992   139A     13.466017   140A     13.508780  
     141A     15.809954   142A     26.147558   143A     26.147921  
     144A     26.163599   145A     26.169225   146A     26.215776  
     147A     45.186951   148A    138.407770   149A    138.413898  
     150A    138.478083   151A    707.829556  

    Final Occupation by Irrep:
              A 
    DOCC [     5 ]
    NA   [     5 ]
    NB   [     5 ]

  @DF-RHF Final Energy:   -76.06048450282771

   => Energetics <=

    Nuclear Repulsion Energy =              9.1801978479270687
    One-Electron Energy =                -123.0163167709547167
    Two-Electron Energy =                  37.7756344201999283
    Total Energy =                        -76.0604845028277055

Computation Completed


Properties will be evaluated at   0.000000,   0.000000,   0.000000 [a0]

Properties computed using the SCF density matrix


 Multipole Moments:

 ------------------------------------------------------------------------------------
     Multipole            Electronic (a.u.)      Nuclear  (a.u.)        Total (a.u.)
 ------------------------------------------------------------------------------------

 L = 1.  Multiply by 2.5417464519 to convert [e a0] to [Debye]
 Dipole X            :          1.4420450           -2.2243513           -0.7823063
 Dipole Y            :         -0.0000000            0.0000000           -0.0000000
 Dipole Z            :          0.0000000            0.0000000            0.0000000
 Magnitude           :                                                    0.7823063

 ------------------------------------------------------------------------------------

*** tstop() called on moses-razer at Thu Jan  4 16:41:32 2024
Module time:
	user time   =       5.78 seconds =       0.10 minutes
	system time =       0.49 seconds =       0.01 minutes
	total time  =          2 seconds =       0.03 minutes
Total time:
	user time   =      17.31 seconds =       0.29 minutes
	system time =       1.96 seconds =       0.03 minutes
	total time  =          6 seconds =       0.10 minutes

*** tstart() called on moses-razer
*** at Thu Jan  4 16:41:32 2024


  //>>>>>>>>>>>>>>>>>>>>>>>>>>>>>>>>>>>//
  //               DFMP2               //
  //<<<<<<<<<<<<<<<<<<<<<<<<<<<<<<<<<<<//

   => Loading Basis Set <=

    Name: (AUG-CC-PVTZ AUX)
    Role: RIFIT
    Keyword: DF_BASIS_MP2
    atoms 1   entry O          line   264 file /home/kchung25/anaconda3/envs/p415env/share/psi4/basis/aug-cc-pvtz-ri.gbs 
    atoms 2-3 entry H          line    30 file /home/kchung25/anaconda3/envs/p415env/share/psi4/basis/aug-cc-pvtz-ri.gbs 
    atoms 4   entry BR         line  1248 file /home/kchung25/anaconda3/envs/p415env/share/psi4/basis/aug-cc-pvtz-ri.gbs 

	 --------------------------------------------------------
	                          DF-MP2                         
	      2nd-Order Density-Fitted Moller-Plesset Theory     
	              RMP2 Wavefunction,   6 Threads             
	                                                         
	        Rob Parrish, Justin Turney, Andy Simmonett,      
	           Ed Hohenstein, and C. David Sherrill          
	 --------------------------------------------------------

   => Auxiliary Basis Set <=

  Basis Set: (AUG-CC-PVTZ AUX)
    Blend: AUG-CC-PVTZ-RI
    Number of shells: 99
    Number of basis functions: 389
    Number of Cartesian functions: 507
    Spherical Harmonics?: true
    Max angular momentum: 5

	 --------------------------------------------------------
	                 NBF =   151, NAUX =   389
	 --------------------------------------------------------
	   CLASS    FOCC     OCC    AOCC    AVIR     VIR    FVIR
	   PAIRS       0       5       5     146     146       0
	 --------------------------------------------------------

	-----------------------------------------------------------
	 ==================> DF-MP2 Energies <==================== 
	-----------------------------------------------------------
	 Reference Energy          =     -76.0604845028277055 [Eh]
	 Singles Energy            =      -0.0000000000000000 [Eh]
	 Same-Spin Energy          =      -0.0683693304421328 [Eh]
	 Opposite-Spin Energy      =      -0.2152682543117271 [Eh]
	 Correlation Energy        =      -0.2836375847538599 [Eh]
	 Total Energy              =     -76.3441220875815674 [Eh]
	-----------------------------------------------------------
	 ================> DF-SCS-MP2 Energies <================== 
	-----------------------------------------------------------
	 SCS Same-Spin Scale       =       0.3333333333333333 [-]
	 SCS Opposite-Spin Scale   =       1.2000000000000000 [-]
	 SCS Same-Spin Energy      =      -0.0227897768140443 [Eh]
	 SCS Opposite-Spin Energy  =      -0.2583219051740725 [Eh]
	 SCS Correlation Energy    =      -0.2811116819881168 [Eh]
	 SCS Total Energy          =     -76.3415961848158275 [Eh]
	-----------------------------------------------------------


*** tstop() called on moses-razer at Thu Jan  4 16:41:34 2024
Module time:
	user time   =       3.07 seconds =       0.05 minutes
	system time =       0.31 seconds =       0.01 minutes
	total time  =          2 seconds =       0.03 minutes
Total time:
	user time   =      20.38 seconds =       0.34 minutes
	system time =       2.28 seconds =       0.04 minutes
	total time  =          8 seconds =       0.13 minutes

    Psi4 stopped on: Thursday, 04 January 2024 04:41PM
    Psi4 wall time for execution: 0:00:03.32


    -----------------------------------------------------------------------
          Psi4: An Open-Source Ab Initio Electronic Structure Package
                               Psi4 1.9 release

                         Git: Rev {} zzzzzzz 


    D. G. A. Smith, L. A. Burns, A. C. Simmonett, R. M. Parrish,
    M. C. Schieber, R. Galvelis, P. Kraus, H. Kruse, R. Di Remigio,
    A. Alenaizan, A. M. James, S. Lehtola, J. P. Misiewicz, M. Scheurer,
    R. A. Shaw, J. B. Schriber, Y. Xie, Z. L. Glick, D. A. Sirianni,
    J. S. O'Brien, J. M. Waldrop, A. Kumar, E. G. Hohenstein,
    B. P. Pritchard, B. R. Brooks, H. F. Schaefer III, A. Yu. Sokolov,
    K. Patkowski, A. E. DePrince III, U. Bozkaya, R. A. King,
    F. A. Evangelista, J. M. Turney, T. D. Crawford, C. D. Sherrill,
    J. Chem. Phys. 152(18) 184108 (2020). https://doi.org/10.1063/5.0006002

                            Additional Code Authors
    E. T. Seidl, C. L. Janssen, E. F. Valeev, M. L. Leininger,
    J. F. Gonthier, R. M. Richard, H. R. McAlexander, M. Saitow, X. Wang,
    P. Verma, M. H. Lechner, A. Jiang, S. Behnle, A. G. Heide,
    M. F. Herbst, and D. L. Poole

             Previous Authors, Complete List of Code Contributors,
                       and Citations for Specific Modules
    https://github.com/psi4/psi4/blob/master/codemeta.json
    https://github.com/psi4/psi4/graphs/contributors
    http://psicode.org/psi4manual/master/introduction.html#citing-psifour

    -----------------------------------------------------------------------


    Psi4 started on: Thursday, 04 January 2024 04:41PM

    Process ID: 490658
    Host:       moses-razer
    PSIDATADIR: /home/kchung25/anaconda3/envs/psi4_19/share/psi4
    Memory:     55.9 GiB
    Threads:    6
    
  ==> Input QCSchema <==

--------------------------------------------------------------------------
{'driver': 'energy',
 'extras': {'psiapi': True, 'wfn_qcvars_only': True},
 'id': None,
 'keywords': {'SCF_TYPE': 'DF', 'function_kwargs': {}},
 'model': {'basis': 'aug-cc-pvtz', 'method': 'mp2'},
 'molecule': {'atom_labels': ['', '', '', ''],
              'atomic_numbers': [8, 1, 1, 35],
              'extras': {},
              'fix_com': True,
              'fix_orientation': True,
              'fix_symmetry': 'c1',
              'fragment_charges': [0.0, -1.0],
              'fragment_multiplicities': [1, 1],
              'fragments': [[0, 1, 2], [3]],
              'geometry': [0.0, 0.0, 0.0, -1.1121756344246994, 1.4303677194292883, 0.0, -1.1121756344246994,
                           -1.4303677194292883, 0.0, 7.619375737845963, 0.0, 0.0],
              'mass_numbers': [16, 1, 1, 79],
              'masses': [15.99491461957, 1.00782503223, 1.00782503223, 78.9183376],
              'molecular_charge': -1.0,
              'molecular_multiplicity': 1,
              'name': 'dimer',
              'provenance': {'creator': 'QCElemental',
                             'routine': 'qcelemental.molparse.from_string',
                             'version': '0.27.1'},
              'real': [True, True, True, True],
              'schema_name': 'qcschema_molecule',
              'schema_version': 2,
              'symbols': ['O', 'H', 'H', 'Br'],
              'validated': True},
 'protocols': {'stdout': True},
 'provenance': {'creator': 'QCElemental', 'routine': 'qcelemental.models.results', 'version': '0.27.1'},
 'schema_name': 'qcschema_input',
 'schema_version': 1}
--------------------------------------------------------------------------

Scratch directory: /scratch/
   => Libint2 <=

    Primary   basis highest AM E, G, H:  5, 4, 3
    Auxiliary basis highest AM E, G, H:  6, 5, 4
    Onebody   basis highest AM E, G, H:  6, 5, 4
    Solid Harmonics ordering:            gaussian

*** tstart() called on moses-razer
*** at Thu Jan  4 16:41:34 2024

   => Loading Basis Set <=

    Name: AUG-CC-PVTZ
    Role: ORBITAL
    Keyword: BASIS
    atoms 1   entry O          line   331 file /home/kchung25/anaconda3/envs/p415env/share/psi4/basis/aug-cc-pvtz.gbs 
    atoms 2-3 entry H          line    40 file /home/kchung25/anaconda3/envs/p415env/share/psi4/basis/aug-cc-pvtz.gbs 
    atoms 4   entry BR         line  4564 file /home/kchung25/anaconda3/envs/p415env/share/psi4/basis/aug-cc-pvtz.gbs 


         ---------------------------------------------------------
                                   SCF
               by Justin Turney, Rob Parrish, Andy Simmonett
                          and Daniel G. A. Smith
                              RHF Reference
                        6 Threads,  57220 MiB Core
         ---------------------------------------------------------

  ==> Geometry <==

    Molecular point group: c1
    Full point group: C2v

    Geometry (in Bohr), charge = -1, multiplicity = 1:

       Center              X                  Y                   Z               Mass       
    ------------   -----------------  -----------------  -----------------  -----------------
         O            0.000000000000     0.000000000000     0.000000000000    15.994914619570
         H           -1.112175634425     1.430367719429     0.000000000000     1.007825032230
         H           -1.112175634425    -1.430367719429     0.000000000000     1.007825032230
         BR           7.619375737846     0.000000000000     0.000000000000    78.918337600000

  Running in c1 symmetry.

  Rotational constants: A =     14.59768  B =      0.01313  C =      0.01312 [cm^-1]
  Rotational constants: A = 437627.28990  B =    393.69686  C =    393.34300 [MHz]
  Nuclear repulsion =   53.840066416364095

  Charge       = -1
  Multiplicity = 1
  Electrons    = 46
  Nalpha       = 23
  Nbeta        = 23

  ==> Algorithm <==

  SCF Algorithm Type is DF.
  DIIS enabled.
  MOM disabled.
  Fractional occupation disabled.
  Guess Type is SAD.
  Energy threshold   = 1.00e-08
  Density threshold  = 1.00e-08
  Integral threshold = 1.00e-12

  ==> Primary Basis <==

  Basis Set: AUG-CC-PVTZ
    Blend: AUG-CC-PVTZ
    Number of shells: 51
    Number of basis functions: 151
    Number of Cartesian functions: 174
    Spherical Harmonics?: true
    Max angular momentum: 3

   => Loading Basis Set <=

    Name: (AUG-CC-PVTZ AUX)
    Role: JKFIT
    Keyword: DF_BASIS_SCF
    atoms 1   entry O          line   286 file /home/kchung25/anaconda3/envs/p415env/share/psi4/basis/aug-cc-pvtz-jkfit.gbs 
    atoms 2-3 entry H          line    70 file /home/kchung25/anaconda3/envs/p415env/share/psi4/basis/aug-cc-pvtz-jkfit.gbs 
    atoms 4   entry BR         line  1492 file /home/kchung25/anaconda3/envs/p415env/share/psi4/basis/aug-cc-pvtz-jkfit.gbs 

  ==> Integral Setup <==

  DFHelper Memory: AOs need 0.080 GiB; user supplied 41.910 GiB. 
  Using in-core AOs.

  ==> MemDFJK: Density-Fitted J/K Matrices <==

    J tasked:                   Yes
    K tasked:                   Yes
    wK tasked:                   No
    OpenMP threads:               6
    Memory [MiB]:             42915
    Algorithm:                 Core
    Schwarz Cutoff:           1E-12
    Mask sparsity (%):       3.2455
    Fitting Condition:        1E-10

   => Auxiliary Basis Set <=

  Basis Set: (AUG-CC-PVTZ AUX)
    Blend: AUG-CC-PVTZ-JKFIT
    Number of shells: 116
    Number of basis functions: 444
    Number of Cartesian functions: 570
    Spherical Harmonics?: true
    Max angular momentum: 4

  Minimum eigenvalue in the overlap matrix is 3.6993481468E-04.
  Reciprocal condition number of the overlap matrix is 5.3134153598E-05.
    Using symmetric orthogonalization.

  ==> Pre-Iterations <==

  SCF Guess: Superposition of Atomic Densities via on-the-fly atomic UHF (no occupation information).

   -------------------------
    Irrep   Nso     Nmo    
   -------------------------
     A        151     151 
   -------------------------
    Total     151     151
   -------------------------

  ==> Iterations <==

                           Total Energy        Delta E     RMS |[F,P]|

   @DF-RHF iter SAD: -2645.89195594870262   -2.64589e+03   0.00000e+00 
   @DF-RHF iter   1: -2648.21235503062098   -2.32040e+00   7.62978e-03 ADIIS/DIIS
   @DF-RHF iter   2: -2648.47708261883236   -2.64728e-01   4.44363e-03 ADIIS/DIIS
   @DF-RHF iter   3: -2648.58146349395429   -1.04381e-01   2.59763e-04 ADIIS/DIIS
   @DF-RHF iter   4: -2648.58213256713634   -6.69073e-04   1.27054e-04 ADIIS/DIIS
   @DF-RHF iter   5: -2648.58227447481022   -1.41908e-04   2.14218e-05 DIIS
   @DF-RHF iter   6: -2648.58228706381942   -1.25890e-05   4.56158e-06 DIIS
   @DF-RHF iter   7: -2648.58228777722343   -7.13404e-07   1.25259e-06 DIIS
   @DF-RHF iter   8: -2648.58228782720425   -4.99808e-08   3.06018e-07 DIIS
   @DF-RHF iter   9: -2648.58228783030518   -3.10092e-09   6.77191e-08 DIIS
   @DF-RHF iter  10: -2648.58228783041386   -1.08685e-10   1.85379e-08 DIIS
   @DF-RHF iter  11: -2648.58228783042568   -1.18234e-11   4.31081e-09 DIIS
  Energy and wave function converged.


  ==> Post-Iterations <==

    Orbital Energies [Eh]
    ---------------------

    Doubly Occupied:                                                      

       1A   -489.709612     2A    -64.849695     3A    -58.204177  
       4A    -58.204173     5A    -58.204142     6A    -20.447927  
       7A     -9.522076     8A     -7.129479     9A     -7.129461  
      10A     -7.129306    11A     -2.871220    12A     -2.871219  
      13A     -2.871025    14A     -2.871003    15A     -2.870938  
      16A     -1.232519    17A     -0.675297    18A     -0.596045  
      19A     -0.459245    20A     -0.388432    21A     -0.128992  
      22A     -0.128878    23A     -0.127861  

    Virtual:                                                              

      24A      0.118889    25A      0.132419    26A      0.238690  
      27A      0.256977    28A      0.260578    29A      0.260584  
      30A      0.283996    31A      0.289984    32A      0.298547  
      33A      0.335358    34A      0.360061    35A      0.367641  
      36A      0.416879    37A      0.418644    38A      0.459907  
      39A      0.476283    40A      0.499133    41A      0.499737  
      42A      0.532888    43A      0.547986    44A      0.548532  
      45A      0.571732    46A      0.595189    47A      0.733576  
      48A      0.749528    49A      0.756646    50A      0.756754  
      51A      0.792442    52A      0.835564    53A      0.864048  
      54A      0.872112    55A      0.929367    56A      0.956358  
      57A      0.984746    58A      1.014108    59A      1.021901  
      60A      1.023007    61A      1.028147    62A      1.044922  
      63A      1.049158    64A      1.052186    65A      1.089168  
      66A      1.091460    67A      1.103838    68A      1.125147  
      69A      1.158409    70A      1.171530    71A      1.184259  
      72A      1.187879    73A      1.219439    74A      1.219469  
      75A      1.219524    76A      1.221809    77A      1.262785  
      78A      1.290121    79A      1.298680    80A      1.299480  
      81A      1.364966    82A      1.405568    83A      1.627432  
      84A      1.691687    85A      1.702623    86A      1.939959  
      87A      1.940800    88A      2.102326    89A      2.239115  
      90A      2.384935    91A      2.423195    92A      2.423878  
      93A      2.429717    94A      2.442392    95A      2.483321  
      96A      2.534325    97A      2.545305    98A      2.561445  
      99A      2.576953   100A      2.577823   101A      2.589522  
     102A      2.590649   103A      2.594209   104A      2.595810  
     105A      2.595848   106A      2.596707   107A      2.613521  
     108A      2.617672   109A      2.628032   110A      2.635409  
     111A      2.758934   112A      2.811996   113A      2.827948  
     114A      2.911207   115A      2.971885   116A      3.006103  
     117A      3.785263   118A      3.818079   119A      3.873612  
     120A      4.135471   121A      4.207065   122A      4.308742  
     123A      4.369428   124A      4.408863   125A      4.495244  
     126A      4.514607   127A      4.527613   128A      4.638897  
     129A      4.859803   130A      4.966909   131A      5.267735  
     132A      5.274963   133A      5.379859   134A      5.453635  
     135A      5.647318   136A      5.803223   137A      6.310056  
     138A      6.643888   139A      6.838437   140A      7.027875  
     141A      7.263663   142A      7.386325   143A      7.438779  
     144A      7.443060   145A      7.474467   146A      7.483080  
     147A      7.666393   148A      8.036069   149A      8.055023  
     150A      8.938352   151A     15.928506  

    Final Occupation by Irrep:
              A 
    DOCC [    23 ]
    NA   [    23 ]
    NB   [    23 ]

  @DF-RHF Final Energy: -2648.58228783042568

   => Energetics <=

    Nuclear Repulsion Energy =             53.8400664163640954
    One-Electron Energy =               -3807.5992614585329648
    Two-Electron Energy =                1105.1769072117431278
    Total Energy =                      -2648.5822878304256847

Computation Completed


Properties will be evaluated at   0.000000,   0.000000,   0.000000 [a0]

Properties computed using the SCF density matrix


 Multipole Moments:

 ------------------------------------------------------------------------------------
     Multipole            Electronic (a.u.)      Nuclear  (a.u.)        Total (a.u.)
 ------------------------------------------------------------------------------------

 L = 1.  Multiply by 2.5417464519 to convert [e a0] to [Debye]
 Dipole X            :       -272.8449558          264.4537996           -8.3911563
 Dipole Y            :         -0.0000000            0.0000000           -0.0000000
 Dipole Z            :         -0.0000000            0.0000000           -0.0000000
 Magnitude           :                                                    8.3911563

 ------------------------------------------------------------------------------------

*** tstop() called on moses-razer at Thu Jan  4 16:41:36 2024
Module time:
	user time   =       8.42 seconds =       0.14 minutes
	system time =       1.10 seconds =       0.02 minutes
	total time  =          2 seconds =       0.03 minutes
Total time:
	user time   =      29.03 seconds =       0.48 minutes
	system time =       3.38 seconds =       0.06 minutes
	total time  =         10 seconds =       0.17 minutes

*** tstart() called on moses-razer
*** at Thu Jan  4 16:41:36 2024


  //>>>>>>>>>>>>>>>>>>>>>>>>>>>>>>>>>>>//
  //               DFMP2               //
  //<<<<<<<<<<<<<<<<<<<<<<<<<<<<<<<<<<<//

   => Loading Basis Set <=

    Name: (AUG-CC-PVTZ AUX)
    Role: RIFIT
    Keyword: DF_BASIS_MP2
    atoms 1   entry O          line   264 file /home/kchung25/anaconda3/envs/p415env/share/psi4/basis/aug-cc-pvtz-ri.gbs 
    atoms 2-3 entry H          line    30 file /home/kchung25/anaconda3/envs/p415env/share/psi4/basis/aug-cc-pvtz-ri.gbs 
    atoms 4   entry BR         line  1248 file /home/kchung25/anaconda3/envs/p415env/share/psi4/basis/aug-cc-pvtz-ri.gbs 

	 --------------------------------------------------------
	                          DF-MP2                         
	      2nd-Order Density-Fitted Moller-Plesset Theory     
	              RMP2 Wavefunction,   6 Threads             
	                                                         
	        Rob Parrish, Justin Turney, Andy Simmonett,      
	           Ed Hohenstein, and C. David Sherrill          
	 --------------------------------------------------------

   => Auxiliary Basis Set <=

  Basis Set: (AUG-CC-PVTZ AUX)
    Blend: AUG-CC-PVTZ-RI
    Number of shells: 99
    Number of basis functions: 389
    Number of Cartesian functions: 507
    Spherical Harmonics?: true
    Max angular momentum: 5

	 --------------------------------------------------------
	                 NBF =   151, NAUX =   389
	 --------------------------------------------------------
	   CLASS    FOCC     OCC    AOCC    AVIR     VIR    FVIR
	   PAIRS       0      23      23     128     128       0
	 --------------------------------------------------------

	-----------------------------------------------------------
	 ==================> DF-MP2 Energies <==================== 
	-----------------------------------------------------------
	 Reference Energy          =   -2648.5822878304256847 [Eh]
	 Singles Energy            =      -0.0000000000000000 [Eh]
	 Same-Spin Energy          =      -0.1558391053245549 [Eh]
	 Opposite-Spin Energy      =      -0.4177273345574725 [Eh]
	 Correlation Energy        =      -0.5735664398820274 [Eh]
	 Total Energy              =   -2649.1558542703078274 [Eh]
	-----------------------------------------------------------
	 ================> DF-SCS-MP2 Energies <================== 
	-----------------------------------------------------------
	 SCS Same-Spin Scale       =       0.3333333333333333 [-]
	 SCS Opposite-Spin Scale   =       1.2000000000000000 [-]
	 SCS Same-Spin Energy      =      -0.0519463684415183 [Eh]
	 SCS Opposite-Spin Energy  =      -0.5012728014689669 [Eh]
	 SCS Correlation Energy    =      -0.5532191699104853 [Eh]
	 SCS Total Energy          =   -2649.1355070003360197 [Eh]
	-----------------------------------------------------------


*** tstop() called on moses-razer at Thu Jan  4 16:41:38 2024
Module time:
	user time   =       3.38 seconds =       0.06 minutes
	system time =       0.32 seconds =       0.01 minutes
	total time  =          2 seconds =       0.03 minutes
Total time:
	user time   =      32.41 seconds =       0.54 minutes
	system time =       3.70 seconds =       0.06 minutes
	total time  =         12 seconds =       0.20 minutes

    Psi4 stopped on: Thursday, 04 January 2024 04:41PM
    Psi4 wall time for execution: 0:00:04.32


  //>>>>>>>>>>>>>>>>>>>>>>>>>>>>>>>>>>>//
  //          ManyBody Results         //
  //<<<<<<<<<<<<<<<<<<<<<<<<<<<<<<<<<<<//


   ==> N-Body: Counterpoise Corrected (CP) energies <==

        n-Body     Total Energy            Interaction Energy                          N-body Contribution to Interaction Energy
                   [Eh]                    [Eh]                  [kcal/mol]            [Eh]                  [kcal/mol]
             1  N/A                         0.000000000000        0.000000000000        0.000000000000        0.000000000000
  FULL/RTN   2  N/A                         0.010138213543        6.361825045181        0.010138213543        6.361825045181


    Psi4 stopped on: Thursday, 04 January 2024 04:41PM
    Psi4 wall time for execution: 0:00:13.50

*** Psi4 exiting successfully. Buy a developer a beer!
