
    -----------------------------------------------------------------------
          Psi4: An Open-Source Ab Initio Electronic Structure Package
                               Psi4 1.8.2 release

                         Git: Rev {} zzzzzzz 


    D. G. A. Smith, L. A. Burns, A. C. Simmonett, R. M. Parrish,
    M. C. Schieber, R. Galvelis, P. Kraus, H. Kruse, R. Di Remigio,
    A. Alenaizan, A. M. James, S. Lehtola, J. P. Misiewicz, M. Scheurer,
    R. A. Shaw, J. B. Schriber, Y. Xie, Z. L. Glick, D. A. Sirianni,
    J. S. O'Brien, J. M. Waldrop, A. Kumar, E. G. Hohenstein,
    B. P. Pritchard, B. R. Brooks, H. F. Schaefer III, A. Yu. Sokolov,
    K. Patkowski, A. E. DePrince III, U. Bozkaya, R. A. King,
    F. A. Evangelista, J. M. Turney, T. D. Crawford, C. D. Sherrill,
    J. Chem. Phys. 152(18) 184108 (2020). https://doi.org/10.1063/5.0006002

                            Additional Code Authors
    E. T. Seidl, C. L. Janssen, E. F. Valeev, M. L. Leininger,
    J. F. Gonthier, R. M. Richard, H. R. McAlexander, M. Saitow, X. Wang,
    P. Verma, M. H. Lechner, A. Jiang, S. Behnle, A. G. Heide,
    M. F. Herbst, and D. L. Poole

             Previous Authors, Complete List of Code Contributors,
                       and Citations for Specific Modules
    https://github.com/psi4/psi4/blob/master/codemeta.json
    https://github.com/psi4/psi4/graphs/contributors
    http://psicode.org/psi4manual/master/introduction.html#citing-psifour

    -----------------------------------------------------------------------


    Psi4 started on: Monday, 22 January 2024 12:31PM

    Process ID: 48232
    Host:       ddmfs1
    PSIDATADIR: /ddmfs1b/softs/psi4conda/share/psi4
    Memory:     500.0 MiB
    Threads:    20
    
  ==> Input File <==

--------------------------------------------------------------------------
MEMORY 60 GB

molecule dimer {
0 1
O          0.000000     0.000000     0.000000
H         -0.588538     0.000000     0.756918
H         -0.588538     0.000000    -0.756918
Gh(Li)     2.138291     2.138291     0.000000
Gh(Li)     2.138291    -2.138291     0.000000

units ang
no_reorient
no_com
symmetry c1
}

set {
basis        aug-cc-pVTZ
scf_type     df
}

energy("mp2")
--------------------------------------------------------------------------

  Memory set to  55.879 GiB by Python driver.

Scratch directory: /ddmfs1a/scratch/
   => Libint2 <=

    Primary   basis highest AM E, G, H:  5, 4, 3
    Auxiliary basis highest AM E, G, H:  6, 5, 4
    Onebody   basis highest AM E, G, H:  6, 5, 4
    Solid Harmonics ordering:            gaussian

*** tstart() called on ddmfs1
*** at Mon Jan 22 12:31:24 2024

   => Loading Basis Set <=

    Name: AUG-CC-PVTZ
    Role: ORBITAL
    Keyword: BASIS
    atoms 1   entry O          line   331 file /ddmfs1b/softs/psi4conda/share/psi4/basis/aug-cc-pvtz.gbs 
    atoms 2-3 entry H          line    40 file /ddmfs1b/softs/psi4conda/share/psi4/basis/aug-cc-pvtz.gbs 
    atoms 4-5 entry LI         line    85 file /ddmfs1b/softs/psi4conda/share/psi4/basis/aug-cc-pvtz.gbs 


         ---------------------------------------------------------
                                   SCF
               by Justin Turney, Rob Parrish, Andy Simmonett
                          and Daniel G. A. Smith
                              RHF Reference
                       20 Threads,  57220 MiB Core
         ---------------------------------------------------------

  ==> Geometry <==

    Molecular point group: c1
    Full point group: C2v

    Geometry (in Angstrom), charge = 0, multiplicity = 1:

       Center              X                  Y                   Z               Mass       
    ------------   -----------------  -----------------  -----------------  -----------------
         O            0.000000000000     0.000000000000     0.000000000000    15.994914619570
         H           -0.588538000000     0.000000000000     0.756918000000     1.007825032230
         H           -0.588538000000     0.000000000000    -0.756918000000     1.007825032230
      Gh(LI)          2.138291000000     2.138291000000     0.000000000000     7.016003436600
      Gh(LI)          2.138291000000    -2.138291000000     0.000000000000     7.016003436600

  Running in c1 symmetry.

  Rotational constants: A =      0.25810  B =      0.25537  C =      0.13066 [cm^-1]
  Rotational constants: A =   7737.77769  B =   7655.93844  C =   3917.21309 [MHz]
  Nuclear repulsion =    9.180197847927069

  Charge       = 0
  Multiplicity = 1
  Electrons    = 10
  Nalpha       = 5
  Nbeta        = 5

  ==> Algorithm <==

  SCF Algorithm Type is DF.
  DIIS enabled.
  MOM disabled.
  Fractional occupation disabled.
  Guess Type is SAD.
  Energy threshold   = 1.00e-08
  Density threshold  = 1.00e-08
  Integral threshold = 1.00e-12

  ==> Primary Basis <==

  Basis Set: AUG-CC-PVTZ
    Blend: AUG-CC-PVTZ
    Number of shells: 60
    Number of basis functions: 184
    Number of Cartesian functions: 215
    Spherical Harmonics?: true
    Max angular momentum: 3

   => Loading Basis Set <=

    Name: (AUG-CC-PVTZ AUX)
    Role: JKFIT
    Keyword: DF_BASIS_SCF
    atoms 1   entry O          line   286 file /ddmfs1b/softs/psi4conda/share/psi4/basis/aug-cc-pvtz-jkfit.gbs 
    atoms 2-3 entry H          line    70 file /ddmfs1b/softs/psi4conda/share/psi4/basis/aug-cc-pvtz-jkfit.gbs 
    atoms 4-5 entry LI         line    54 file /ddmfs1b/softs/psi4conda/share/psi4/basis/def2-universal-jkfit.gbs 

  ==> Integral Setup <==

  DFHelper Memory: AOs need 0.088 GiB; user supplied 41.910 GiB. 
  Using in-core AOs.

  ==> MemDFJK: Density-Fitted J/K Matrices <==

    J tasked:                   Yes
    K tasked:                   Yes
    wK tasked:                   No
    OpenMP threads:              20
    Memory [MiB]:             42915
    Algorithm:                 Core
    Schwarz Cutoff:           1E-12
    Mask sparsity (%):       0.0000
    Fitting Condition:        1E-10

   => Auxiliary Basis Set <=

  Basis Set: (AUG-CC-PVTZ AUX)
    Blend: AUG-CC-PVTZ-JKFIT + DEF2-UNIVERSAL-JKFIT
    Number of shells: 92
    Number of basis functions: 298
    Number of Cartesian functions: 361
    Spherical Harmonics?: true
    Max angular momentum: 4

  Minimum eigenvalue in the overlap matrix is 1.5002095743E-04.
  Reciprocal condition number of the overlap matrix is 1.4125172188E-05.
    Using symmetric orthogonalization.

  ==> Pre-Iterations <==

  SCF Guess: Superposition of Atomic Densities via on-the-fly atomic UHF (no occupation information).

   -------------------------
    Irrep   Nso     Nmo    
   -------------------------
     A        184     184 
   -------------------------
    Total     184     184
   -------------------------

  ==> Iterations <==

                           Total Energy        Delta E     RMS |[F,P]|

   @DF-RHF iter SAD:   -75.47651207696720   -7.54765e+01   0.00000e+00 
   @DF-RHF iter   1:   -75.97619184221968   -4.99680e-01   2.54669e-03 DIIS/ADIIS
   @DF-RHF iter   2:   -76.02872326430148   -5.25314e-02   1.73484e-03 DIIS/ADIIS
   @DF-RHF iter   3:   -76.06012178462298   -3.13985e-02   1.18422e-04 DIIS/ADIIS
   @DF-RHF iter   4:   -76.06051218098088   -3.90396e-04   2.80834e-05 DIIS
   @DF-RHF iter   5:   -76.06053629488162   -2.41139e-05   6.39119e-06 DIIS
   @DF-RHF iter   6:   -76.06053827086370   -1.97598e-06   1.39943e-06 DIIS
   @DF-RHF iter   7:   -76.06053837522471   -1.04361e-07   2.53056e-07 DIIS
   @DF-RHF iter   8:   -76.06053837822319   -2.99848e-09   4.21413e-08 DIIS
   @DF-RHF iter   9:   -76.06053837828871   -6.55263e-11   1.03747e-08 DIIS
   @DF-RHF iter  10:   -76.06053837829253   -3.82272e-12   1.51369e-09 DIIS
  Energy and wave function converged.


  ==> Post-Iterations <==

    Orbital Energies [Eh]
    ---------------------

    Doubly Occupied:                                                      

       1A    -20.567490     2A     -1.352919     3A     -0.716453  
       4A     -0.585087     5A     -0.510292  

    Virtual:                                                              

       6A      0.009318     7A      0.015816     8A      0.017162  
       9A      0.018483    10A      0.026109    11A      0.026972  
      12A      0.027683    13A      0.036577    14A      0.050624  
      15A      0.057591    16A      0.058746    17A      0.061252  
      18A      0.071322    19A      0.073656    20A      0.081320  
      21A      0.083821    22A      0.083961    23A      0.115477  
      24A      0.124803    25A      0.131936    26A      0.140103  
      27A      0.140937    28A      0.149696    29A      0.155860  
      30A      0.159161    31A      0.168666    32A      0.174363  
      33A      0.175411    34A      0.179175    35A      0.187781  
      36A      0.197349    37A      0.207220    38A      0.211082  
      39A      0.212312    40A      0.223410    41A      0.225834  
      42A      0.240353    43A      0.259741    44A      0.276634  
      45A      0.296752    46A      0.308250    47A      0.320250  
      48A      0.325283    49A      0.329094    50A      0.342633  
      51A      0.343322    52A      0.351236    53A      0.360367  
      54A      0.366452    55A      0.372904    56A      0.375911  
      57A      0.376846    58A      0.377880    59A      0.382302  
      60A      0.395022    61A      0.399088    62A      0.403047  
      63A      0.408008    64A      0.415964    65A      0.424245  
      66A      0.425278    67A      0.433828    68A      0.436924  
      69A      0.440972    70A      0.441698    71A      0.468463  
      72A      0.474512    73A      0.474555    74A      0.491330  
      75A      0.512132    76A      0.513614    77A      0.559142  
      78A      0.651516    79A      0.716813    80A      0.744891  
      81A      0.752456    82A      0.805130    83A      0.809101  
      84A      0.817491    85A      0.817508    86A      0.819503  
      87A      0.840584    88A      0.844616    89A      0.858539  
      90A      0.861226    91A      0.866162    92A      0.868839  
      93A      0.882619    94A      0.895673    95A      0.905488  
      96A      0.913452    97A      0.913936    98A      0.916929  
      99A      0.938969   100A      0.947191   101A      0.954716  
     102A      0.955918   103A      0.957740   104A      0.961489  
     105A      0.964133   106A      0.964732   107A      0.972924  
     108A      0.980024   109A      0.990259   110A      0.995886  
     111A      1.000597   112A      1.001424   113A      1.010186  
     114A      1.059395   115A      1.076044   116A      1.089861  
     117A      1.127178   118A      1.129547   119A      1.164156  
     120A      1.251528   121A      1.255016   122A      1.259598  
     123A      1.276789   124A      1.278919   125A      1.327921  
     126A      1.340654   127A      1.384629   128A      1.567851  
     129A      1.568386   130A      1.662271   131A      1.663012  
     132A      1.731513   133A      1.845598   134A      1.939763  
     135A      2.043398   136A      2.144520   137A      2.357037  
     138A      2.410336   139A      2.450284   140A      2.482251  
     141A      2.520628   142A      2.543283   143A      2.679283  
     144A      2.706607   145A      2.820582   146A      2.830594  
     147A      2.873887   148A      2.920922   149A      3.716407  
     150A      3.811077   151A      4.044688   152A      4.224743  
     153A      4.235822   154A      4.273536   155A      4.318933  
     156A      4.445701   157A      4.494393   158A      4.506622  
     159A      4.531971   160A      4.791814   161A      4.893966  
     162A      5.159678   163A      5.169332   164A      5.281610  
     165A      5.353792   166A      5.545429   167A      5.796292  
     168A      6.277904   169A      6.559251   170A      6.742036  
     171A      6.920775   172A      7.205949   173A      7.326226  
     174A      7.328994   175A      7.358945   176A      7.393707  
     177A      7.404138   178A      7.584605   179A      7.926209  
     180A      7.945016   181A      8.839684   182A     10.317943  
     183A     10.526616   184A     15.906934  

    Final Occupation by Irrep:
              A 
    DOCC [     5 ]
    NA   [     5 ]
    NB   [     5 ]

  @DF-RHF Final Energy:   -76.06053837829253

   => Energetics <=

    Nuclear Repulsion Energy =              9.1801978479270687
    One-Electron Energy =                -123.0169908984875491
    Two-Electron Energy =                  37.7762546722679531
    Total Energy =                        -76.0605383782925344

Computation Completed


Properties will be evaluated at   0.000000,   0.000000,   0.000000 [a0]

Properties computed using the SCF density matrix


 Multipole Moments:

 ------------------------------------------------------------------------------------
     Multipole            Electronic (a.u.)      Nuclear  (a.u.)        Total (a.u.)
 ------------------------------------------------------------------------------------

 L = 1.  Multiply by 2.5417464519 to convert [e a0] to [Debye]
 Dipole X            :          1.4424993           -2.2243513           -0.7818519
 Dipole Y            :          0.0000000            0.0000000            0.0000000
 Dipole Z            :         -0.0000000            0.0000000           -0.0000000
 Magnitude           :                                                    0.7818519

 ------------------------------------------------------------------------------------

*** tstop() called on ddmfs1 at Mon Jan 22 12:31:25 2024
Module time:
	user time   =      15.41 seconds =       0.26 minutes
	system time =       0.95 seconds =       0.02 minutes
	total time  =          1 seconds =       0.02 minutes
Total time:
	user time   =      15.41 seconds =       0.26 minutes
	system time =       0.95 seconds =       0.02 minutes
	total time  =          1 seconds =       0.02 minutes

*** tstart() called on ddmfs1
*** at Mon Jan 22 12:31:25 2024


  //>>>>>>>>>>>>>>>>>>>>>>>>>>>>>>>>>>>//
  //               DFMP2               //
  //<<<<<<<<<<<<<<<<<<<<<<<<<<<<<<<<<<<//

   => Loading Basis Set <=

    Name: (AUG-CC-PVTZ AUX)
    Role: RIFIT
    Keyword: DF_BASIS_MP2
    atoms 1   entry O          line   264 file /ddmfs1b/softs/psi4conda/share/psi4/basis/aug-cc-pvtz-ri.gbs 
    atoms 2-3 entry H          line    30 file /ddmfs1b/softs/psi4conda/share/psi4/basis/aug-cc-pvtz-ri.gbs 
    atoms 4-5 entry LI         line    90 file /ddmfs1b/softs/psi4conda/share/psi4/basis/def2-qzvpp-ri.gbs 

	 --------------------------------------------------------
	                          DF-MP2                         
	      2nd-Order Density-Fitted Moller-Plesset Theory     
	              RMP2 Wavefunction,  20 Threads             
	                                                         
	        Rob Parrish, Justin Turney, Andy Simmonett,      
	           Ed Hohenstein, and C. David Sherrill          
	 --------------------------------------------------------

   => Auxiliary Basis Set <=

  Basis Set: (AUG-CC-PVTZ AUX)
    Blend: AUG-CC-PVTZ-RI + DEF2-QZVPP-RI
    Number of shells: 110
    Number of basis functions: 400
    Number of Cartesian functions: 506
    Spherical Harmonics?: true
    Max angular momentum: 4

	 --------------------------------------------------------
	                 NBF =   184, NAUX =   400
	 --------------------------------------------------------
	   CLASS    FOCC     OCC    AOCC    AVIR     VIR    FVIR
	   PAIRS       0       5       5     179     179       0
	 --------------------------------------------------------

	-----------------------------------------------------------
	 ==================> DF-MP2 Energies <==================== 
	-----------------------------------------------------------
	 Reference Energy          =     -76.0605383782925344 [Eh]
	 Singles Energy            =      -0.0000000000000000 [Eh]
	 Same-Spin Energy          =      -0.0684073211949218 [Eh]
	 Opposite-Spin Energy      =      -0.2155417952377428 [Eh]
	 Correlation Energy        =      -0.2839491164326646 [Eh]
	 Total Energy              =     -76.3444874947252003 [Eh]
	-----------------------------------------------------------
	 ================> DF-SCS-MP2 Energies <================== 
	-----------------------------------------------------------
	 SCS Same-Spin Scale       =       0.3333333333333333 [-]
	 SCS Opposite-Spin Scale   =       1.2000000000000000 [-]
	 SCS Same-Spin Energy      =      -0.0228024403983073 [Eh]
	 SCS Opposite-Spin Energy  =      -0.2586501542852914 [Eh]
	 SCS Correlation Energy    =      -0.2814525946835986 [Eh]
	 SCS Total Energy          =     -76.3419909729761343 [Eh]
	-----------------------------------------------------------


*** tstop() called on ddmfs1 at Mon Jan 22 12:31:25 2024
Module time:
	user time   =       6.48 seconds =       0.11 minutes
	system time =       0.31 seconds =       0.01 minutes
	total time  =          0 seconds =       0.00 minutes
Total time:
	user time   =      21.91 seconds =       0.37 minutes
	system time =       1.26 seconds =       0.02 minutes
	total time  =          1 seconds =       0.02 minutes

    Psi4 stopped on: Monday, 22 January 2024 12:31PM
    Psi4 wall time for execution: 0:00:02.04

*** Psi4 exiting successfully. Buy a developer a beer!
