
    -----------------------------------------------------------------------
          Psi4: An Open-Source Ab Initio Electronic Structure Package
                               Psi4 1.8.2 release

                         Git: Rev {} zzzzzzz 


    D. G. A. Smith, L. A. Burns, A. C. Simmonett, R. M. Parrish,
    M. C. Schieber, R. Galvelis, P. Kraus, H. Kruse, R. Di Remigio,
    A. Alenaizan, A. M. James, S. Lehtola, J. P. Misiewicz, M. Scheurer,
    R. A. Shaw, J. B. Schriber, Y. Xie, Z. L. Glick, D. A. Sirianni,
    J. S. O'Brien, J. M. Waldrop, A. Kumar, E. G. Hohenstein,
    B. P. Pritchard, B. R. Brooks, H. F. Schaefer III, A. Yu. Sokolov,
    K. Patkowski, A. E. DePrince III, U. Bozkaya, R. A. King,
    F. A. Evangelista, J. M. Turney, T. D. Crawford, C. D. Sherrill,
    J. Chem. Phys. 152(18) 184108 (2020). https://doi.org/10.1063/5.0006002

                            Additional Code Authors
    E. T. Seidl, C. L. Janssen, E. F. Valeev, M. L. Leininger,
    J. F. Gonthier, R. M. Richard, H. R. McAlexander, M. Saitow, X. Wang,
    P. Verma, M. H. Lechner, A. Jiang, S. Behnle, A. G. Heide,
    M. F. Herbst, and D. L. Poole

             Previous Authors, Complete List of Code Contributors,
                       and Citations for Specific Modules
    https://github.com/psi4/psi4/blob/master/codemeta.json
    https://github.com/psi4/psi4/graphs/contributors
    http://psicode.org/psi4manual/master/introduction.html#citing-psifour

    -----------------------------------------------------------------------


    Psi4 started on: Monday, 22 January 2024 05:16AM

    Process ID: 33103
    Host:       ddmfs1
    PSIDATADIR: /ddmfs1b/softs/psi4conda/share/psi4
    Memory:     500.0 MiB
    Threads:    20
    
  ==> Input File <==

--------------------------------------------------------------------------
MEMORY 60 GB

molecule dimer {
0 1
O      0.000000     0.000000     0.000000
H     -0.588538     0.000000     0.756918
H     -0.588538     0.000000    -0.756918
--
1 1
Li     1.527351     1.527351     0.000000
--
1 1
Li     1.527351    -1.527351     0.000000

units ang
no_reorient
no_com
symmetry c1
}

set {
basis        aug-cc-pVTZ
scf_type     df
}

energy("mp2", bsse_type="cp")
--------------------------------------------------------------------------

  Memory set to  55.879 GiB by Python driver.

Scratch directory: /ddmfs1a/scratch/

  //>>>>>>>>>>>>>>>>>>>>>>>>>>>>>>>>>>>>>>>>//
  // ManyBody Setup: N-Body Levels [1, 2, 3]//
  //<<<<<<<<<<<<<<<<<<<<<<<<<<<<<<<<<<<<<<<<//

        Number of 1-body computations:     3
        Number of 2-body computations:     3
        Number of 3-body computations:     1

    -----------------------------------------------------------------------
          Psi4: An Open-Source Ab Initio Electronic Structure Package
                               Psi4 1.8.2 release

                         Git: Rev {} zzzzzzz 


    D. G. A. Smith, L. A. Burns, A. C. Simmonett, R. M. Parrish,
    M. C. Schieber, R. Galvelis, P. Kraus, H. Kruse, R. Di Remigio,
    A. Alenaizan, A. M. James, S. Lehtola, J. P. Misiewicz, M. Scheurer,
    R. A. Shaw, J. B. Schriber, Y. Xie, Z. L. Glick, D. A. Sirianni,
    J. S. O'Brien, J. M. Waldrop, A. Kumar, E. G. Hohenstein,
    B. P. Pritchard, B. R. Brooks, H. F. Schaefer III, A. Yu. Sokolov,
    K. Patkowski, A. E. DePrince III, U. Bozkaya, R. A. King,
    F. A. Evangelista, J. M. Turney, T. D. Crawford, C. D. Sherrill,
    J. Chem. Phys. 152(18) 184108 (2020). https://doi.org/10.1063/5.0006002

                            Additional Code Authors
    E. T. Seidl, C. L. Janssen, E. F. Valeev, M. L. Leininger,
    J. F. Gonthier, R. M. Richard, H. R. McAlexander, M. Saitow, X. Wang,
    P. Verma, M. H. Lechner, A. Jiang, S. Behnle, A. G. Heide,
    M. F. Herbst, and D. L. Poole

             Previous Authors, Complete List of Code Contributors,
                       and Citations for Specific Modules
    https://github.com/psi4/psi4/blob/master/codemeta.json
    https://github.com/psi4/psi4/graphs/contributors
    http://psicode.org/psi4manual/master/introduction.html#citing-psifour

    -----------------------------------------------------------------------


    Psi4 started on: Monday, 22 January 2024 05:16AM

    Process ID: 33103
    Host:       ddmfs1
    PSIDATADIR: /ddmfs1b/softs/psi4conda/share/psi4
    Memory:     55.9 GiB
    Threads:    20
    
  ==> Input QCSchema <==

--------------------------------------------------------------------------
{'driver': 'energy',
 'extras': {'psiapi': True, 'wfn_qcvars_only': True},
 'id': None,
 'keywords': {'SCF_TYPE': 'DF', 'function_kwargs': {}},
 'model': {'basis': 'aug-cc-pvtz', 'method': 'mp2'},
 'molecule': {'atom_labels': ['', '', '', '', ''],
              'atomic_numbers': [8, 1, 1, 3, 3],
              'extras': {},
              'fix_com': True,
              'fix_orientation': True,
              'fix_symmetry': 'c1',
              'fragment_charges': [0.0, 0.0, 0.0],
              'fragment_multiplicities': [1, 1, 1],
              'fragments': [[0, 1, 2], [3], [4]],
              'geometry': [0.0, 0.0, 0.0, -1.1121756344246994, 0.0, 1.4303677194292883, -1.1121756344246994, 0.0,
                           -1.4303677194292883, 2.886275087444139, 2.886275087444139, 0.0, 2.886275087444139,
                           -2.886275087444139, 0.0],
              'mass_numbers': [16, 1, 1, 7, 7],
              'masses': [15.99491461957, 1.00782503223, 1.00782503223, 7.0160034366, 7.0160034366],
              'molecular_charge': 0.0,
              'molecular_multiplicity': 1,
              'name': 'dimer',
              'provenance': {'creator': 'QCElemental',
                             'routine': 'qcelemental.molparse.from_string',
                             'version': '0.26.0'},
              'real': [True, True, True, False, False],
              'schema_name': 'qcschema_molecule',
              'schema_version': 2,
              'symbols': ['O', 'H', 'H', 'Li', 'Li'],
              'validated': True},
 'protocols': {'stdout': True},
 'provenance': {'creator': 'QCElemental', 'routine': 'qcelemental.models.results', 'version': '0.26.0'},
 'schema_name': 'qcschema_input',
 'schema_version': 1}
--------------------------------------------------------------------------

Scratch directory: /ddmfs1a/scratch/
   => Libint2 <=

    Primary   basis highest AM E, G, H:  5, 4, 3
    Auxiliary basis highest AM E, G, H:  6, 5, 4
    Onebody   basis highest AM E, G, H:  6, 5, 4
    Solid Harmonics ordering:            gaussian

*** tstart() called on ddmfs1
*** at Mon Jan 22 05:16:12 2024

   => Loading Basis Set <=

    Name: AUG-CC-PVTZ
    Role: ORBITAL
    Keyword: BASIS
    atoms 1   entry O          line   331 file /ddmfs1b/softs/psi4conda/share/psi4/basis/aug-cc-pvtz.gbs 
    atoms 2-3 entry H          line    40 file /ddmfs1b/softs/psi4conda/share/psi4/basis/aug-cc-pvtz.gbs 
    atoms 4-5 entry LI         line    85 file /ddmfs1b/softs/psi4conda/share/psi4/basis/aug-cc-pvtz.gbs 


         ---------------------------------------------------------
                                   SCF
               by Justin Turney, Rob Parrish, Andy Simmonett
                          and Daniel G. A. Smith
                              RHF Reference
                       20 Threads,  57220 MiB Core
         ---------------------------------------------------------

  ==> Geometry <==

    Molecular point group: c1
    Full point group: C2v

    Geometry (in Bohr), charge = 0, multiplicity = 1:

       Center              X                  Y                   Z               Mass       
    ------------   -----------------  -----------------  -----------------  -----------------
         O            0.000000000000     0.000000000000     0.000000000000    15.994914619570
         H           -1.112175634425     0.000000000000     1.430367719429     1.007825032230
         H           -1.112175634425     0.000000000000    -1.430367719429     1.007825032230
      Gh(LI)          2.886275087444     2.886275087444     0.000000000000     7.016003436600
      Gh(LI)          2.886275087444    -2.886275087444     0.000000000000     7.016003436600

  Running in c1 symmetry.

  Rotational constants: A =      0.49744  B =      0.48740  C =      0.25478 [cm^-1]
  Rotational constants: A =  14912.90775  B =  14611.87399  C =   7638.05422 [MHz]
  Nuclear repulsion =    9.180197847927069

  Charge       = 0
  Multiplicity = 1
  Electrons    = 10
  Nalpha       = 5
  Nbeta        = 5

  ==> Algorithm <==

  SCF Algorithm Type is DF.
  DIIS enabled.
  MOM disabled.
  Fractional occupation disabled.
  Guess Type is SAD.
  Energy threshold   = 1.00e-08
  Density threshold  = 1.00e-08
  Integral threshold = 1.00e-12

  ==> Primary Basis <==

  Basis Set: AUG-CC-PVTZ
    Blend: AUG-CC-PVTZ
    Number of shells: 60
    Number of basis functions: 184
    Number of Cartesian functions: 215
    Spherical Harmonics?: true
    Max angular momentum: 3

   => Loading Basis Set <=

    Name: (AUG-CC-PVTZ AUX)
    Role: JKFIT
    Keyword: DF_BASIS_SCF
    atoms 1   entry O          line   286 file /ddmfs1b/softs/psi4conda/share/psi4/basis/aug-cc-pvtz-jkfit.gbs 
    atoms 2-3 entry H          line    70 file /ddmfs1b/softs/psi4conda/share/psi4/basis/aug-cc-pvtz-jkfit.gbs 
    atoms 4-5 entry LI         line    54 file /ddmfs1b/softs/psi4conda/share/psi4/basis/def2-universal-jkfit.gbs 

  ==> Integral Setup <==

  DFHelper Memory: AOs need 0.088 GiB; user supplied 41.910 GiB. 
  Using in-core AOs.

  ==> MemDFJK: Density-Fitted J/K Matrices <==

    J tasked:                   Yes
    K tasked:                   Yes
    wK tasked:                   No
    OpenMP threads:              20
    Memory [MiB]:             42915
    Algorithm:                 Core
    Schwarz Cutoff:           1E-12
    Mask sparsity (%):       0.0000
    Fitting Condition:        1E-10

   => Auxiliary Basis Set <=

  Basis Set: (AUG-CC-PVTZ AUX)
    Blend: AUG-CC-PVTZ-JKFIT + DEF2-UNIVERSAL-JKFIT
    Number of shells: 92
    Number of basis functions: 298
    Number of Cartesian functions: 361
    Spherical Harmonics?: true
    Max angular momentum: 4

  Minimum eigenvalue in the overlap matrix is 4.4978719689E-05.
  Reciprocal condition number of the overlap matrix is 3.8234726426E-06.
    Using symmetric orthogonalization.

  ==> Pre-Iterations <==

  SCF Guess: Superposition of Atomic Densities via on-the-fly atomic UHF (no occupation information).

   -------------------------
    Irrep   Nso     Nmo    
   -------------------------
     A        184     184 
   -------------------------
    Total     184     184
   -------------------------

  ==> Iterations <==

                           Total Energy        Delta E     RMS |[F,P]|

   @DF-RHF iter SAD:   -75.47651208052845   -7.54765e+01   0.00000e+00 
   @DF-RHF iter   1:   -75.97630119374995   -4.99789e-01   2.54664e-03 DIIS/ADIIS
   @DF-RHF iter   2:   -76.02884034074827   -5.25391e-02   1.73435e-03 DIIS/ADIIS
   @DF-RHF iter   3:   -76.06021509348342   -3.13748e-02   1.18434e-04 DIIS/ADIIS
   @DF-RHF iter   4:   -76.06060554875337   -3.90455e-04   2.81051e-05 DIIS
   @DF-RHF iter   5:   -76.06062971329462   -2.41645e-05   6.39657e-06 DIIS
   @DF-RHF iter   6:   -76.06063169321256   -1.97992e-06   1.40114e-06 DIIS
   @DF-RHF iter   7:   -76.06063179789074   -1.04678e-07   2.53592e-07 DIIS
   @DF-RHF iter   8:   -76.06063180090671   -3.01597e-09   4.22378e-08 DIIS
   @DF-RHF iter   9:   -76.06063180097270   -6.59952e-11   1.03974e-08 DIIS
   @DF-RHF iter  10:   -76.06063180097641   -3.70903e-12   1.51472e-09 DIIS
  Energy and wave function converged.


  ==> Post-Iterations <==

    Orbital Energies [Eh]
    ---------------------

    Doubly Occupied:                                                      

       1A    -20.567339     2A     -1.352836     3A     -0.716375  
       4A     -0.585029     5A     -0.510265  

    Virtual:                                                              

       6A      0.008700     7A      0.013562     8A      0.017629  
       9A      0.018457    10A      0.026637    11A      0.027205  
      12A      0.028417    13A      0.034419    14A      0.048633  
      15A      0.061005    16A      0.063949    17A      0.068490  
      18A      0.070767    19A      0.074935    20A      0.080183  
      21A      0.083309    22A      0.085844    23A      0.122358  
      24A      0.131552    25A      0.142783    26A      0.145921  
      27A      0.146279    28A      0.155752    29A      0.158994  
      30A      0.159009    31A      0.171174    32A      0.178070  
      33A      0.178399    34A      0.178551    35A      0.185494  
      36A      0.188614    37A      0.208957    38A      0.219218  
      39A      0.224836    40A      0.231543    41A      0.245661  
      42A      0.255850    43A      0.291064    44A      0.302167  
      45A      0.315268    46A      0.335435    47A      0.336228  
      48A      0.355423    49A      0.357969    50A      0.360919  
      51A      0.368233    52A      0.373022    53A      0.381085  
      54A      0.381780    55A      0.385633    56A      0.385878  
      57A      0.390316    58A      0.407446    59A      0.407940  
      60A      0.410184    61A      0.410896    62A      0.418052  
      63A      0.420540    64A      0.421277    65A      0.425465  
      66A      0.433262    67A      0.459817    68A      0.467677  
      69A      0.484586    70A      0.485719    71A      0.490040  
      72A      0.494182    73A      0.525494    74A      0.575744  
      75A      0.578104    76A      0.587105    77A      0.663906  
      78A      0.709425    79A      0.736320    80A      0.746391  
      81A      0.770256    82A      0.771561    83A      0.797618  
      84A      0.798501    85A      0.804849    86A      0.817103  
      87A      0.825737    88A      0.843991    89A      0.853526  
      90A      0.859806    91A      0.881023    92A      0.914611  
      93A      0.920916    94A      0.927227    95A      0.931081  
      96A      0.935917    97A      0.945665    98A      0.961549  
      99A      0.966297   100A      0.969849   101A      0.979701  
     102A      0.980071   103A      1.005439   104A      1.008253  
     105A      1.025715   106A      1.032126   107A      1.042839  
     108A      1.044128   109A      1.048611   110A      1.087201  
     111A      1.098283   112A      1.123391   113A      1.139216  
     114A      1.162944   115A      1.175919   116A      1.232132  
     117A      1.254920   118A      1.255068   119A      1.287863  
     120A      1.369154   121A      1.371086   122A      1.426097  
     123A      1.448031   124A      1.527262   125A      1.560931  
     126A      1.562526   127A      1.685108   128A      1.846796  
     129A      1.872780   130A      1.879710   131A      1.892600  
     132A      2.014266   133A      2.082271   134A      2.103883  
     135A      2.127725   136A      2.225258   137A      2.428846  
     138A      2.548827   139A      2.581265   140A      2.655587  
     141A      2.685792   142A      2.706695   143A      2.753695  
     144A      2.858811   145A      2.901118   146A      2.944004  
     147A      2.954762   148A      2.963366   149A      3.822378  
     150A      3.882922   151A      4.096367   152A      4.258210  
     153A      4.308060   154A      4.352853   155A      4.488499  
     156A      4.561054   157A      4.575939   158A      4.651688  
     159A      4.658012   160A      4.848546   161A      4.922256  
     162A      5.195256   163A      5.204019   164A      5.324136  
     165A      5.384494   166A      5.595214   167A      5.875033  
     168A      6.371726   169A      6.633056   170A      6.818417  
     171A      6.954635   172A      7.234846   173A      7.343575  
     174A      7.345127   175A      7.421784   176A      7.427761  
     177A      7.468372   178A      7.696135   179A      7.935266  
     180A      7.981443   181A      8.903367   182A     10.754576  
     183A     10.920108   184A     16.207710  

    Final Occupation by Irrep:
              A 
    DOCC [     5 ]
    NA   [     5 ]
    NB   [     5 ]

  @DF-RHF Final Energy:   -76.06063180097641

   => Energetics <=

    Nuclear Repulsion Energy =              9.1801978479270687
    One-Electron Energy =                -123.0179694492039886
    Two-Electron Energy =                  37.7771398003005245
    Total Energy =                        -76.0606318009764095

Computation Completed


Properties will be evaluated at   0.000000,   0.000000,   0.000000 [a0]

Properties computed using the SCF density matrix


 Multipole Moments:

 ------------------------------------------------------------------------------------
     Multipole            Electronic (a.u.)      Nuclear  (a.u.)        Total (a.u.)
 ------------------------------------------------------------------------------------

 L = 1.  Multiply by 2.5417464519 to convert [e a0] to [Debye]
 Dipole X            :          1.4428596           -2.2243513           -0.7814917
 Dipole Y            :         -0.0000000            0.0000000           -0.0000000
 Dipole Z            :          0.0000000            0.0000000            0.0000000
 Magnitude           :                                                    0.7814917

 ------------------------------------------------------------------------------------

*** tstop() called on ddmfs1 at Mon Jan 22 05:16:13 2024
Module time:
	user time   =      15.90 seconds =       0.27 minutes
	system time =       1.12 seconds =       0.02 minutes
	total time  =          1 seconds =       0.02 minutes
Total time:
	user time   =      15.90 seconds =       0.27 minutes
	system time =       1.12 seconds =       0.02 minutes
	total time  =          1 seconds =       0.02 minutes

*** tstart() called on ddmfs1
*** at Mon Jan 22 05:16:13 2024


  //>>>>>>>>>>>>>>>>>>>>>>>>>>>>>>>>>>>//
  //               DFMP2               //
  //<<<<<<<<<<<<<<<<<<<<<<<<<<<<<<<<<<<//

   => Loading Basis Set <=

    Name: (AUG-CC-PVTZ AUX)
    Role: RIFIT
    Keyword: DF_BASIS_MP2
    atoms 1   entry O          line   264 file /ddmfs1b/softs/psi4conda/share/psi4/basis/aug-cc-pvtz-ri.gbs 
    atoms 2-3 entry H          line    30 file /ddmfs1b/softs/psi4conda/share/psi4/basis/aug-cc-pvtz-ri.gbs 
    atoms 4-5 entry LI         line    90 file /ddmfs1b/softs/psi4conda/share/psi4/basis/def2-qzvpp-ri.gbs 

	 --------------------------------------------------------
	                          DF-MP2                         
	      2nd-Order Density-Fitted Moller-Plesset Theory     
	              RMP2 Wavefunction,  20 Threads             
	                                                         
	        Rob Parrish, Justin Turney, Andy Simmonett,      
	           Ed Hohenstein, and C. David Sherrill          
	 --------------------------------------------------------

   => Auxiliary Basis Set <=

  Basis Set: (AUG-CC-PVTZ AUX)
    Blend: AUG-CC-PVTZ-RI + DEF2-QZVPP-RI
    Number of shells: 110
    Number of basis functions: 400
    Number of Cartesian functions: 506
    Spherical Harmonics?: true
    Max angular momentum: 4

	 --------------------------------------------------------
	                 NBF =   184, NAUX =   400
	 --------------------------------------------------------
	   CLASS    FOCC     OCC    AOCC    AVIR     VIR    FVIR
	   PAIRS       0       5       5     179     179       0
	 --------------------------------------------------------

	-----------------------------------------------------------
	 ==================> DF-MP2 Energies <==================== 
	-----------------------------------------------------------
	 Reference Energy          =     -76.0606318009764095 [Eh]
	 Singles Energy            =      -0.0000000000000000 [Eh]
	 Same-Spin Energy          =      -0.0684513705275944 [Eh]
	 Opposite-Spin Energy      =      -0.2159676298326653 [Eh]
	 Correlation Energy        =      -0.2844190003602596 [Eh]
	 Total Energy              =     -76.3450508013366687 [Eh]
	-----------------------------------------------------------
	 ================> DF-SCS-MP2 Energies <================== 
	-----------------------------------------------------------
	 SCS Same-Spin Scale       =       0.3333333333333333 [-]
	 SCS Opposite-Spin Scale   =       1.2000000000000000 [-]
	 SCS Same-Spin Energy      =      -0.0228171235091981 [Eh]
	 SCS Opposite-Spin Energy  =      -0.2591611557991983 [Eh]
	 SCS Correlation Energy    =      -0.2819782793083964 [Eh]
	 SCS Total Energy          =     -76.3426100802847998 [Eh]
	-----------------------------------------------------------


*** tstop() called on ddmfs1 at Mon Jan 22 05:16:14 2024
Module time:
	user time   =       6.44 seconds =       0.11 minutes
	system time =       0.38 seconds =       0.01 minutes
	total time  =          1 seconds =       0.02 minutes
Total time:
	user time   =      22.35 seconds =       0.37 minutes
	system time =       1.50 seconds =       0.03 minutes
	total time  =          2 seconds =       0.03 minutes

    Psi4 stopped on: Monday, 22 January 2024 05:16AM
    Psi4 wall time for execution: 0:00:02.07


    -----------------------------------------------------------------------
          Psi4: An Open-Source Ab Initio Electronic Structure Package
                               Psi4 1.8.2 release

                         Git: Rev {} zzzzzzz 


    D. G. A. Smith, L. A. Burns, A. C. Simmonett, R. M. Parrish,
    M. C. Schieber, R. Galvelis, P. Kraus, H. Kruse, R. Di Remigio,
    A. Alenaizan, A. M. James, S. Lehtola, J. P. Misiewicz, M. Scheurer,
    R. A. Shaw, J. B. Schriber, Y. Xie, Z. L. Glick, D. A. Sirianni,
    J. S. O'Brien, J. M. Waldrop, A. Kumar, E. G. Hohenstein,
    B. P. Pritchard, B. R. Brooks, H. F. Schaefer III, A. Yu. Sokolov,
    K. Patkowski, A. E. DePrince III, U. Bozkaya, R. A. King,
    F. A. Evangelista, J. M. Turney, T. D. Crawford, C. D. Sherrill,
    J. Chem. Phys. 152(18) 184108 (2020). https://doi.org/10.1063/5.0006002

                            Additional Code Authors
    E. T. Seidl, C. L. Janssen, E. F. Valeev, M. L. Leininger,
    J. F. Gonthier, R. M. Richard, H. R. McAlexander, M. Saitow, X. Wang,
    P. Verma, M. H. Lechner, A. Jiang, S. Behnle, A. G. Heide,
    M. F. Herbst, and D. L. Poole

             Previous Authors, Complete List of Code Contributors,
                       and Citations for Specific Modules
    https://github.com/psi4/psi4/blob/master/codemeta.json
    https://github.com/psi4/psi4/graphs/contributors
    http://psicode.org/psi4manual/master/introduction.html#citing-psifour

    -----------------------------------------------------------------------


    Psi4 started on: Monday, 22 January 2024 05:16AM

    Process ID: 33103
    Host:       ddmfs1
    PSIDATADIR: /ddmfs1b/softs/psi4conda/share/psi4
    Memory:     55.9 GiB
    Threads:    20
    
  ==> Input QCSchema <==

--------------------------------------------------------------------------
{'driver': 'energy',
 'extras': {'psiapi': True, 'wfn_qcvars_only': True},
 'id': None,
 'keywords': {'SCF_TYPE': 'DF', 'function_kwargs': {}},
 'model': {'basis': 'aug-cc-pvtz', 'method': 'mp2'},
 'molecule': {'atom_labels': ['', '', '', '', ''],
              'atomic_numbers': [8, 1, 1, 3, 3],
              'extras': {},
              'fix_com': True,
              'fix_orientation': True,
              'fix_symmetry': 'c1',
              'fragment_charges': [0.0, 1.0, 0.0],
              'fragment_multiplicities': [1, 1, 1],
              'fragments': [[0, 1, 2], [3], [4]],
              'geometry': [0.0, 0.0, 0.0, -1.1121756344246994, 0.0, 1.4303677194292883, -1.1121756344246994, 0.0,
                           -1.4303677194292883, 2.886275087444139, 2.886275087444139, 0.0, 2.886275087444139,
                           -2.886275087444139, 0.0],
              'mass_numbers': [16, 1, 1, 7, 7],
              'masses': [15.99491461957, 1.00782503223, 1.00782503223, 7.0160034366, 7.0160034366],
              'molecular_charge': 1.0,
              'molecular_multiplicity': 1,
              'name': 'dimer',
              'provenance': {'creator': 'QCElemental',
                             'routine': 'qcelemental.molparse.from_string',
                             'version': '0.26.0'},
              'real': [False, False, False, True, False],
              'schema_name': 'qcschema_molecule',
              'schema_version': 2,
              'symbols': ['O', 'H', 'H', 'Li', 'Li'],
              'validated': True},
 'protocols': {'stdout': True},
 'provenance': {'creator': 'QCElemental', 'routine': 'qcelemental.models.results', 'version': '0.26.0'},
 'schema_name': 'qcschema_input',
 'schema_version': 1}
--------------------------------------------------------------------------

Scratch directory: /ddmfs1a/scratch/
   => Libint2 <=

    Primary   basis highest AM E, G, H:  5, 4, 3
    Auxiliary basis highest AM E, G, H:  6, 5, 4
    Onebody   basis highest AM E, G, H:  6, 5, 4
    Solid Harmonics ordering:            gaussian

*** tstart() called on ddmfs1
*** at Mon Jan 22 05:16:14 2024

   => Loading Basis Set <=

    Name: AUG-CC-PVTZ
    Role: ORBITAL
    Keyword: BASIS
    atoms 1   entry O          line   331 file /ddmfs1b/softs/psi4conda/share/psi4/basis/aug-cc-pvtz.gbs 
    atoms 2-3 entry H          line    40 file /ddmfs1b/softs/psi4conda/share/psi4/basis/aug-cc-pvtz.gbs 
    atoms 4-5 entry LI         line    85 file /ddmfs1b/softs/psi4conda/share/psi4/basis/aug-cc-pvtz.gbs 


         ---------------------------------------------------------
                                   SCF
               by Justin Turney, Rob Parrish, Andy Simmonett
                          and Daniel G. A. Smith
                              RHF Reference
                       20 Threads,  57220 MiB Core
         ---------------------------------------------------------

  ==> Geometry <==

    Molecular point group: c1
    Full point group: Cs

    Geometry (in Bohr), charge = 1, multiplicity = 1:

       Center              X                  Y                   Z               Mass       
    ------------   -----------------  -----------------  -----------------  -----------------
      Gh(O)           0.000000000000     0.000000000000     0.000000000000    15.994914619570
      Gh(H)          -1.112175634425     0.000000000000     1.430367719429     1.007825032230
      Gh(H)          -1.112175634425     0.000000000000    -1.430367719429     1.007825032230
         LI           2.886275087444     2.886275087444     0.000000000000     7.016003436600
      Gh(LI)          2.886275087444    -2.886275087444     0.000000000000     7.016003436600

  Running in c1 symmetry.

  Rotational constants: A =      0.49744  B =      0.48740  C =      0.25478 [cm^-1]
  Rotational constants: A =  14912.90775  B =  14611.87399  C =   7638.05422 [MHz]
  Nuclear repulsion =    0.000000000000000

  Charge       = 1
  Multiplicity = 1
  Electrons    = 2
  Nalpha       = 1
  Nbeta        = 1

  ==> Algorithm <==

  SCF Algorithm Type is DF.
  DIIS enabled.
  MOM disabled.
  Fractional occupation disabled.
  Guess Type is SAD.
  Energy threshold   = 1.00e-08
  Density threshold  = 1.00e-08
  Integral threshold = 1.00e-12

  ==> Primary Basis <==

  Basis Set: AUG-CC-PVTZ
    Blend: AUG-CC-PVTZ
    Number of shells: 60
    Number of basis functions: 184
    Number of Cartesian functions: 215
    Spherical Harmonics?: true
    Max angular momentum: 3

   => Loading Basis Set <=

    Name: (AUG-CC-PVTZ AUX)
    Role: JKFIT
    Keyword: DF_BASIS_SCF
    atoms 1   entry O          line   286 file /ddmfs1b/softs/psi4conda/share/psi4/basis/aug-cc-pvtz-jkfit.gbs 
    atoms 2-3 entry H          line    70 file /ddmfs1b/softs/psi4conda/share/psi4/basis/aug-cc-pvtz-jkfit.gbs 
    atoms 4-5 entry LI         line    54 file /ddmfs1b/softs/psi4conda/share/psi4/basis/def2-universal-jkfit.gbs 

  ==> Integral Setup <==

  DFHelper Memory: AOs need 0.088 GiB; user supplied 41.910 GiB. 
  Using in-core AOs.

  ==> MemDFJK: Density-Fitted J/K Matrices <==

    J tasked:                   Yes
    K tasked:                   Yes
    wK tasked:                   No
    OpenMP threads:              20
    Memory [MiB]:             42915
    Algorithm:                 Core
    Schwarz Cutoff:           1E-12
    Mask sparsity (%):       0.0000
    Fitting Condition:        1E-10

   => Auxiliary Basis Set <=

  Basis Set: (AUG-CC-PVTZ AUX)
    Blend: AUG-CC-PVTZ-JKFIT + DEF2-UNIVERSAL-JKFIT
    Number of shells: 92
    Number of basis functions: 298
    Number of Cartesian functions: 361
    Spherical Harmonics?: true
    Max angular momentum: 4

  Minimum eigenvalue in the overlap matrix is 4.4978719689E-05.
  Reciprocal condition number of the overlap matrix is 3.8234726426E-06.
    Using symmetric orthogonalization.

  ==> Pre-Iterations <==

  SCF Guess: Superposition of Atomic Densities via on-the-fly atomic UHF (no occupation information).

   -------------------------
    Irrep   Nso     Nmo    
   -------------------------
     A        184     184 
   -------------------------
    Total     184     184
   -------------------------

  ==> Iterations <==

                           Total Energy        Delta E     RMS |[F,P]|

   @DF-RHF iter SAD:    -7.31439027424336   -7.31439e+00   0.00000e+00 
   @DF-RHF iter   1:    -7.23638157557624    7.80087e-02   1.22633e-05 DIIS
   @DF-RHF iter   2:    -7.23638342397335   -1.84840e-06   1.38656e-06 DIIS
   @DF-RHF iter   3:    -7.23638345147654   -2.75032e-08   6.65121e-08 DIIS
   @DF-RHF iter   4:    -7.23638345152726   -5.07168e-11   4.93179e-10 DIIS
  Energy and wave function converged.


  ==> Post-Iterations <==

    Orbital Energies [Eh]
    ---------------------

    Doubly Occupied:                                                      

       1A     -2.792372  

    Virtual:                                                              

       2A     -0.196299     3A     -0.128601     4A     -0.128598  
       5A     -0.128596     6A     -0.073742     7A     -0.056627  
       8A     -0.056387     9A     -0.056372    10A     -0.053625  
      11A     -0.053077    12A     -0.052780    13A     -0.044496  
      14A     -0.041472    15A     -0.029272    16A     -0.026377  
      17A     -0.022076    18A     -0.021567    19A     -0.009225  
      20A     -0.005930    21A     -0.004540    22A      0.000251  
      23A      0.006951    24A      0.007337    25A      0.013378  
      26A      0.016964    27A      0.019949    28A      0.037893  
      29A      0.039771    30A      0.051985    31A      0.059375  
      32A      0.060448    33A      0.071286    34A      0.073878  
      35A      0.075286    36A      0.085929    37A      0.095521  
      38A      0.095674    39A      0.132405    40A      0.144847  
      41A      0.146587    42A      0.147845    43A      0.156520  
      44A      0.159748    45A      0.163117    46A      0.170893  
      47A      0.175536    48A      0.182117    49A      0.187531  
      50A      0.201231    51A      0.215033    52A      0.229606  
      53A      0.234523    54A      0.234604    55A      0.239968  
      56A      0.245293    57A      0.245815    58A      0.259380  
      59A      0.271683    60A      0.272202    61A      0.275111  
      62A      0.281133    63A      0.286175    64A      0.291404  
      65A      0.291695    66A      0.295420    67A      0.317064  
      68A      0.340431    69A      0.350523    70A      0.352751  
      71A      0.374163    72A      0.414546    73A      0.434001  
      74A      0.451778    75A      0.461690    76A      0.506491  
      77A      0.532645    78A      0.534023    79A      0.553479  
      80A      0.554573    81A      0.556769    82A      0.569444  
      83A      0.576759    84A      0.577248    85A      0.578848  
      86A      0.596306    87A      0.599330    88A      0.621836  
      89A      0.658839    90A      0.661632    91A      0.681587  
      92A      0.691710    93A      0.711540    94A      0.721943  
      95A      0.725152    96A      0.764025    97A      0.779080  
      98A      0.788349    99A      0.804561   100A      0.811722  
     101A      0.816912   102A      0.820844   103A      0.837565  
     104A      0.841127   105A      0.860286   106A      0.876334  
     107A      0.893832   108A      0.909812   109A      0.916140  
     110A      0.951715   111A      0.961466   112A      1.012581  
     113A      1.051215   114A      1.077488   115A      1.108519  
     116A      1.119401   117A      1.130441   118A      1.205956  
     119A      1.209767   120A      1.281666   121A      1.314517  
     122A      1.422950   123A      1.493806   124A      1.501744  
     125A      1.645354   126A      1.738839   127A      1.764974  
     128A      1.835601   129A      1.881844   130A      1.917461  
     131A      1.934980   132A      2.224556   133A      2.316221  
     134A      2.398312   135A      2.399739   136A      2.480070  
     137A      2.481016   138A      2.662240   139A      2.770918  
     140A      2.830438   141A      2.990102   142A      3.050815  
     143A      3.103257   144A      3.150984   145A      3.170269  
     146A      3.280247   147A      3.530868   148A      3.564858  
     149A      4.220231   150A      4.340444   151A      4.386957  
     152A      4.550026   153A      4.565108   154A      4.597600  
     155A      4.842244   156A      4.895554   157A      4.952863  
     158A      5.058183   159A      5.357861   160A      5.464968  
     161A      5.489281   162A      5.711116   163A      6.031047  
     164A      6.213738   165A      6.544295   166A      6.901611  
     167A      7.513998   168A      7.612706   169A      7.914549  
     170A      7.964894   171A      8.068738   172A      8.557912  
     173A      8.639210   174A      9.714868   175A      9.773376  
     176A      9.803123   177A     10.006924   178A     10.629521  
     179A     11.023785   180A     11.615872   181A     12.086190  
     182A     13.372693   183A     13.727868   184A     65.396466  

    Final Occupation by Irrep:
              A 
    DOCC [     1 ]
    NA   [     1 ]
    NB   [     1 ]

  @DF-RHF Final Energy:    -7.23638345152726

   => Energetics <=

    Nuclear Repulsion Energy =              0.0000000000000000
    One-Electron Energy =                  -8.8880231457119123
    Two-Electron Energy =                   1.6516396941846536
    Total Energy =                         -7.2363834515272583

Computation Completed


Properties will be evaluated at   0.000000,   0.000000,   0.000000 [a0]

Properties computed using the SCF density matrix


 Multipole Moments:

 ------------------------------------------------------------------------------------
     Multipole            Electronic (a.u.)      Nuclear  (a.u.)        Total (a.u.)
 ------------------------------------------------------------------------------------

 L = 1.  Multiply by 2.5417464519 to convert [e a0] to [Debye]
 Dipole X            :         -5.7725729            8.6588253            2.8862523
 Dipole Y            :         -5.7725844            8.6588253            2.8862409
 Dipole Z            :         -0.0000000            0.0000000           -0.0000000
 Magnitude           :                                                    4.0817691

 ------------------------------------------------------------------------------------

*** tstop() called on ddmfs1 at Mon Jan 22 05:16:15 2024
Module time:
	user time   =      12.36 seconds =       0.21 minutes
	system time =       0.35 seconds =       0.01 minutes
	total time  =          1 seconds =       0.02 minutes
Total time:
	user time   =      35.92 seconds =       0.60 minutes
	system time =       1.87 seconds =       0.03 minutes
	total time  =          3 seconds =       0.05 minutes

*** tstart() called on ddmfs1
*** at Mon Jan 22 05:16:15 2024


  //>>>>>>>>>>>>>>>>>>>>>>>>>>>>>>>>>>>//
  //               DFMP2               //
  //<<<<<<<<<<<<<<<<<<<<<<<<<<<<<<<<<<<//

   => Loading Basis Set <=

    Name: (AUG-CC-PVTZ AUX)
    Role: RIFIT
    Keyword: DF_BASIS_MP2
    atoms 1   entry O          line   264 file /ddmfs1b/softs/psi4conda/share/psi4/basis/aug-cc-pvtz-ri.gbs 
    atoms 2-3 entry H          line    30 file /ddmfs1b/softs/psi4conda/share/psi4/basis/aug-cc-pvtz-ri.gbs 
    atoms 4-5 entry LI         line    90 file /ddmfs1b/softs/psi4conda/share/psi4/basis/def2-qzvpp-ri.gbs 

	 --------------------------------------------------------
	                          DF-MP2                         
	      2nd-Order Density-Fitted Moller-Plesset Theory     
	              RMP2 Wavefunction,  20 Threads             
	                                                         
	        Rob Parrish, Justin Turney, Andy Simmonett,      
	           Ed Hohenstein, and C. David Sherrill          
	 --------------------------------------------------------

   => Auxiliary Basis Set <=

  Basis Set: (AUG-CC-PVTZ AUX)
    Blend: AUG-CC-PVTZ-RI + DEF2-QZVPP-RI
    Number of shells: 110
    Number of basis functions: 400
    Number of Cartesian functions: 506
    Spherical Harmonics?: true
    Max angular momentum: 4

	 --------------------------------------------------------
	                 NBF =   184, NAUX =   400
	 --------------------------------------------------------
	   CLASS    FOCC     OCC    AOCC    AVIR     VIR    FVIR
	   PAIRS       0       1       1     183     183       0
	 --------------------------------------------------------

	-----------------------------------------------------------
	 ==================> DF-MP2 Energies <==================== 
	-----------------------------------------------------------
	 Reference Energy          =      -7.2363834515272583 [Eh]
	 Singles Energy            =      -0.0000000000000000 [Eh]
	 Same-Spin Energy          =       0.0000000000000000 [Eh]
	 Opposite-Spin Energy      =      -0.0126535261602309 [Eh]
	 Correlation Energy        =      -0.0126535261602309 [Eh]
	 Total Energy              =      -7.2490369776874894 [Eh]
	-----------------------------------------------------------
	 ================> DF-SCS-MP2 Energies <================== 
	-----------------------------------------------------------
	 SCS Same-Spin Scale       =       0.3333333333333333 [-]
	 SCS Opposite-Spin Scale   =       1.2000000000000000 [-]
	 SCS Same-Spin Energy      =       0.0000000000000000 [Eh]
	 SCS Opposite-Spin Energy  =      -0.0151842313922771 [Eh]
	 SCS Correlation Energy    =      -0.0151842313922771 [Eh]
	 SCS Total Energy          =      -7.2515676829195357 [Eh]
	-----------------------------------------------------------


*** tstop() called on ddmfs1 at Mon Jan 22 05:16:16 2024
Module time:
	user time   =       6.27 seconds =       0.10 minutes
	system time =       0.21 seconds =       0.00 minutes
	total time  =          1 seconds =       0.02 minutes
Total time:
	user time   =      42.21 seconds =       0.70 minutes
	system time =       2.08 seconds =       0.03 minutes
	total time  =          4 seconds =       0.07 minutes

    Psi4 stopped on: Monday, 22 January 2024 05:16AM
    Psi4 wall time for execution: 0:00:01.58


    -----------------------------------------------------------------------
          Psi4: An Open-Source Ab Initio Electronic Structure Package
                               Psi4 1.8.2 release

                         Git: Rev {} zzzzzzz 


    D. G. A. Smith, L. A. Burns, A. C. Simmonett, R. M. Parrish,
    M. C. Schieber, R. Galvelis, P. Kraus, H. Kruse, R. Di Remigio,
    A. Alenaizan, A. M. James, S. Lehtola, J. P. Misiewicz, M. Scheurer,
    R. A. Shaw, J. B. Schriber, Y. Xie, Z. L. Glick, D. A. Sirianni,
    J. S. O'Brien, J. M. Waldrop, A. Kumar, E. G. Hohenstein,
    B. P. Pritchard, B. R. Brooks, H. F. Schaefer III, A. Yu. Sokolov,
    K. Patkowski, A. E. DePrince III, U. Bozkaya, R. A. King,
    F. A. Evangelista, J. M. Turney, T. D. Crawford, C. D. Sherrill,
    J. Chem. Phys. 152(18) 184108 (2020). https://doi.org/10.1063/5.0006002

                            Additional Code Authors
    E. T. Seidl, C. L. Janssen, E. F. Valeev, M. L. Leininger,
    J. F. Gonthier, R. M. Richard, H. R. McAlexander, M. Saitow, X. Wang,
    P. Verma, M. H. Lechner, A. Jiang, S. Behnle, A. G. Heide,
    M. F. Herbst, and D. L. Poole

             Previous Authors, Complete List of Code Contributors,
                       and Citations for Specific Modules
    https://github.com/psi4/psi4/blob/master/codemeta.json
    https://github.com/psi4/psi4/graphs/contributors
    http://psicode.org/psi4manual/master/introduction.html#citing-psifour

    -----------------------------------------------------------------------


    Psi4 started on: Monday, 22 January 2024 05:16AM

    Process ID: 33103
    Host:       ddmfs1
    PSIDATADIR: /ddmfs1b/softs/psi4conda/share/psi4
    Memory:     55.9 GiB
    Threads:    20
    
  ==> Input QCSchema <==

--------------------------------------------------------------------------
{'driver': 'energy',
 'extras': {'psiapi': True, 'wfn_qcvars_only': True},
 'id': None,
 'keywords': {'SCF_TYPE': 'DF', 'function_kwargs': {}},
 'model': {'basis': 'aug-cc-pvtz', 'method': 'mp2'},
 'molecule': {'atom_labels': ['', '', '', '', ''],
              'atomic_numbers': [8, 1, 1, 3, 3],
              'extras': {},
              'fix_com': True,
              'fix_orientation': True,
              'fix_symmetry': 'c1',
              'fragment_charges': [0.0, 1.0, 1.0],
              'fragment_multiplicities': [1, 1, 1],
              'fragments': [[0, 1, 2], [3], [4]],
              'geometry': [0.0, 0.0, 0.0, -1.1121756344246994, 0.0, 1.4303677194292883, -1.1121756344246994, 0.0,
                           -1.4303677194292883, 2.886275087444139, 2.886275087444139, 0.0, 2.886275087444139,
                           -2.886275087444139, 0.0],
              'mass_numbers': [16, 1, 1, 7, 7],
              'masses': [15.99491461957, 1.00782503223, 1.00782503223, 7.0160034366, 7.0160034366],
              'molecular_charge': 2.0,
              'molecular_multiplicity': 1,
              'name': 'dimer',
              'provenance': {'creator': 'QCElemental',
                             'routine': 'qcelemental.molparse.from_string',
                             'version': '0.26.0'},
              'real': [False, False, False, True, True],
              'schema_name': 'qcschema_molecule',
              'schema_version': 2,
              'symbols': ['O', 'H', 'H', 'Li', 'Li'],
              'validated': True},
 'protocols': {'stdout': True},
 'provenance': {'creator': 'QCElemental', 'routine': 'qcelemental.models.results', 'version': '0.26.0'},
 'schema_name': 'qcschema_input',
 'schema_version': 1}
--------------------------------------------------------------------------

Scratch directory: /ddmfs1a/scratch/
   => Libint2 <=

    Primary   basis highest AM E, G, H:  5, 4, 3
    Auxiliary basis highest AM E, G, H:  6, 5, 4
    Onebody   basis highest AM E, G, H:  6, 5, 4
    Solid Harmonics ordering:            gaussian

*** tstart() called on ddmfs1
*** at Mon Jan 22 05:16:16 2024

   => Loading Basis Set <=

    Name: AUG-CC-PVTZ
    Role: ORBITAL
    Keyword: BASIS
    atoms 1   entry O          line   331 file /ddmfs1b/softs/psi4conda/share/psi4/basis/aug-cc-pvtz.gbs 
    atoms 2-3 entry H          line    40 file /ddmfs1b/softs/psi4conda/share/psi4/basis/aug-cc-pvtz.gbs 
    atoms 4-5 entry LI         line    85 file /ddmfs1b/softs/psi4conda/share/psi4/basis/aug-cc-pvtz.gbs 


         ---------------------------------------------------------
                                   SCF
               by Justin Turney, Rob Parrish, Andy Simmonett
                          and Daniel G. A. Smith
                              RHF Reference
                       20 Threads,  57220 MiB Core
         ---------------------------------------------------------

  ==> Geometry <==

    Molecular point group: c1
    Full point group: C2v

    Geometry (in Bohr), charge = 2, multiplicity = 1:

       Center              X                  Y                   Z               Mass       
    ------------   -----------------  -----------------  -----------------  -----------------
      Gh(O)           0.000000000000     0.000000000000     0.000000000000    15.994914619570
      Gh(H)          -1.112175634425     0.000000000000     1.430367719429     1.007825032230
      Gh(H)          -1.112175634425     0.000000000000    -1.430367719429     1.007825032230
         LI           2.886275087444     2.886275087444     0.000000000000     7.016003436600
         LI           2.886275087444    -2.886275087444     0.000000000000     7.016003436600

  Running in c1 symmetry.

  Rotational constants: A =      0.49744  B =      0.48740  C =      0.25478 [cm^-1]
  Rotational constants: A =  14912.90775  B =  14611.87399  C =   7638.05422 [MHz]
  Nuclear repulsion =    1.559102948840836

  Charge       = 2
  Multiplicity = 1
  Electrons    = 4
  Nalpha       = 2
  Nbeta        = 2

  ==> Algorithm <==

  SCF Algorithm Type is DF.
  DIIS enabled.
  MOM disabled.
  Fractional occupation disabled.
  Guess Type is SAD.
  Energy threshold   = 1.00e-08
  Density threshold  = 1.00e-08
  Integral threshold = 1.00e-12

  ==> Primary Basis <==

  Basis Set: AUG-CC-PVTZ
    Blend: AUG-CC-PVTZ
    Number of shells: 60
    Number of basis functions: 184
    Number of Cartesian functions: 215
    Spherical Harmonics?: true
    Max angular momentum: 3

   => Loading Basis Set <=

    Name: (AUG-CC-PVTZ AUX)
    Role: JKFIT
    Keyword: DF_BASIS_SCF
    atoms 1   entry O          line   286 file /ddmfs1b/softs/psi4conda/share/psi4/basis/aug-cc-pvtz-jkfit.gbs 
    atoms 2-3 entry H          line    70 file /ddmfs1b/softs/psi4conda/share/psi4/basis/aug-cc-pvtz-jkfit.gbs 
    atoms 4-5 entry LI         line    54 file /ddmfs1b/softs/psi4conda/share/psi4/basis/def2-universal-jkfit.gbs 

  ==> Integral Setup <==

  DFHelper Memory: AOs need 0.088 GiB; user supplied 41.910 GiB. 
  Using in-core AOs.

  ==> MemDFJK: Density-Fitted J/K Matrices <==

    J tasked:                   Yes
    K tasked:                   Yes
    wK tasked:                   No
    OpenMP threads:              20
    Memory [MiB]:             42915
    Algorithm:                 Core
    Schwarz Cutoff:           1E-12
    Mask sparsity (%):       0.0000
    Fitting Condition:        1E-10

   => Auxiliary Basis Set <=

  Basis Set: (AUG-CC-PVTZ AUX)
    Blend: AUG-CC-PVTZ-JKFIT + DEF2-UNIVERSAL-JKFIT
    Number of shells: 92
    Number of basis functions: 298
    Number of Cartesian functions: 361
    Spherical Harmonics?: true
    Max angular momentum: 4

  Minimum eigenvalue in the overlap matrix is 4.4978719689E-05.
  Reciprocal condition number of the overlap matrix is 3.8234726426E-06.
    Using symmetric orthogonalization.

  ==> Pre-Iterations <==

  SCF Guess: Superposition of Atomic Densities via on-the-fly atomic UHF (no occupation information).

   -------------------------
    Irrep   Nso     Nmo    
   -------------------------
     A        184     184 
   -------------------------
    Total     184     184
   -------------------------

  ==> Iterations <==

                           Total Energy        Delta E     RMS |[F,P]|

   @DF-RHF iter SAD:   -14.64231069712078   -1.46423e+01   0.00000e+00 
   @DF-RHF iter   1:   -14.29961138078238    3.42699e-01   7.01457e-05 DIIS
   @DF-RHF iter   2:   -14.29967314811950   -6.17673e-05   9.89149e-06 DIIS
   @DF-RHF iter   3:   -14.29967443397539   -1.28586e-06   3.78219e-07 DIIS
   @DF-RHF iter   4:   -14.29967443586563   -1.89024e-09   1.80726e-08 DIIS
   @DF-RHF iter   5:   -14.29967443587025   -4.62208e-12   4.76595e-10 DIIS
  Energy and wave function converged.


  ==> Post-Iterations <==

    Orbital Energies [Eh]
    ---------------------

    Doubly Occupied:                                                      

       1A     -2.965571     2A     -2.965498  

    Virtual:                                                              

       3A     -0.415793     4A     -0.307018     5A     -0.306996  
       6A     -0.303175     7A     -0.273399     8A     -0.235010  
       9A     -0.234997    10A     -0.186573    11A     -0.176602  
      12A     -0.175877    13A     -0.165562    14A     -0.159527  
      15A     -0.159466    16A     -0.140977    17A     -0.136706  
      18A     -0.130365    19A     -0.129286    20A     -0.127292  
      21A     -0.127264    22A     -0.112334    23A     -0.112215  
      24A     -0.105794    25A     -0.096084    26A     -0.096072  
      27A     -0.094194    28A     -0.088787    29A     -0.085166  
      30A     -0.082957    31A     -0.077246    32A     -0.077156  
      33A     -0.076433    34A     -0.066364    35A     -0.064364  
      36A     -0.048488    37A     -0.046434    38A     -0.045108  
      39A     -0.043095    40A     -0.015267    41A     -0.007412  
      42A     -0.006728    43A      0.002744    44A      0.004741  
      45A      0.005757    46A      0.021111    47A      0.024001  
      48A      0.033899    49A      0.035784    50A      0.040970  
      51A      0.041574    52A      0.044219    53A      0.051502  
      54A      0.061915    55A      0.075863    56A      0.079494  
      57A      0.081339    58A      0.082258    59A      0.094721  
      60A      0.098803    61A      0.099239    62A      0.117885  
      63A      0.118779    64A      0.122182    65A      0.122850  
      66A      0.125442    67A      0.125444    68A      0.135819  
      69A      0.137451    70A      0.202453    71A      0.203496  
      72A      0.206869    73A      0.211120    74A      0.222743  
      75A      0.238702    76A      0.285559    77A      0.298743  
      78A      0.308810    79A      0.324562    80A      0.335759  
      81A      0.340149    82A      0.352854    83A      0.357339  
      84A      0.376050    85A      0.391370    86A      0.406515  
      87A      0.414733    88A      0.423962    89A      0.428859  
      90A      0.442156    91A      0.443912    92A      0.448117  
      93A      0.450994    94A      0.455060    95A      0.464013  
      96A      0.470980    97A      0.488584    98A      0.498058  
      99A      0.503520   100A      0.505977   101A      0.533242  
     102A      0.580692   103A      0.582138   104A      0.589945  
     105A      0.612336   106A      0.622073   107A      0.649661  
     108A      0.674927   109A      0.678201   110A      0.687250  
     111A      0.737684   112A      0.743518   113A      0.784964  
     114A      0.835740   115A      0.858001   116A      0.858917  
     117A      0.937469   118A      0.943249   119A      0.984589  
     120A      1.009820   121A      1.023288   122A      1.067818  
     123A      1.184511   124A      1.273085   125A      1.289918  
     126A      1.501927   127A      1.536132   128A      1.575489  
     129A      1.613008   130A      1.647365   131A      1.732498  
     132A      1.959155   133A      2.069325   134A      2.133280  
     135A      2.141681   136A      2.210672   137A      2.211626  
     138A      2.420968   139A      2.479473   140A      2.530553  
     141A      2.717503   142A      2.796089   143A      2.829693  
     144A      2.928332   145A      2.957928   146A      3.057852  
     147A      3.065600   148A      3.334953   149A      3.349365  
     150A      4.027560   151A      4.146608   152A      4.190625  
     153A      4.350459   154A      4.379914   155A      4.411866  
     156A      4.657165   157A      4.713018   158A      4.761796  
     159A      4.863104   160A      5.158196   161A      5.256387  
     162A      5.275648   163A      5.500099   164A      5.814195  
     165A      6.005492   166A      6.324743   167A      6.680759  
     168A      7.267637   169A      7.370489   170A      7.675649  
     171A      7.728118   172A      7.828092   173A      8.336105  
     174A      8.405080   175A      9.467399   176A      9.541095  
     177A      9.562233   178A      9.766014   179A     10.791535  
     180A     11.365126   181A     11.840723   182A     13.136542  
     183A     13.490357   184A     65.155759  

    Final Occupation by Irrep:
              A 
    DOCC [     2 ]
    NA   [     2 ]
    NB   [     2 ]

  @DF-RHF Final Energy:   -14.29967443587025

   => Energetics <=

    Nuclear Repulsion Energy =              1.5591029488408363
    One-Electron Energy =                 -19.8554158270494341
    Two-Electron Energy =                   3.9966384423383481
    Total Energy =                        -14.2996744358702479

Computation Completed


Properties will be evaluated at   0.000000,   0.000000,   0.000000 [a0]

Properties computed using the SCF density matrix


 Multipole Moments:

 ------------------------------------------------------------------------------------
     Multipole            Electronic (a.u.)      Nuclear  (a.u.)        Total (a.u.)
 ------------------------------------------------------------------------------------

 L = 1.  Multiply by 2.5417464519 to convert [e a0] to [Debye]
 Dipole X            :        -11.5443565           17.3176505            5.7732940
 Dipole Y            :          0.0000000            0.0000000            0.0000000
 Dipole Z            :         -0.0000000            0.0000000           -0.0000000
 Magnitude           :                                                    5.7732940

 ------------------------------------------------------------------------------------

*** tstop() called on ddmfs1 at Mon Jan 22 05:16:17 2024
Module time:
	user time   =      12.59 seconds =       0.21 minutes
	system time =       0.33 seconds =       0.01 minutes
	total time  =          1 seconds =       0.02 minutes
Total time:
	user time   =      55.95 seconds =       0.93 minutes
	system time =       2.46 seconds =       0.04 minutes
	total time  =          5 seconds =       0.08 minutes

*** tstart() called on ddmfs1
*** at Mon Jan 22 05:16:17 2024


  //>>>>>>>>>>>>>>>>>>>>>>>>>>>>>>>>>>>//
  //               DFMP2               //
  //<<<<<<<<<<<<<<<<<<<<<<<<<<<<<<<<<<<//

   => Loading Basis Set <=

    Name: (AUG-CC-PVTZ AUX)
    Role: RIFIT
    Keyword: DF_BASIS_MP2
    atoms 1   entry O          line   264 file /ddmfs1b/softs/psi4conda/share/psi4/basis/aug-cc-pvtz-ri.gbs 
    atoms 2-3 entry H          line    30 file /ddmfs1b/softs/psi4conda/share/psi4/basis/aug-cc-pvtz-ri.gbs 
    atoms 4-5 entry LI         line    90 file /ddmfs1b/softs/psi4conda/share/psi4/basis/def2-qzvpp-ri.gbs 

	 --------------------------------------------------------
	                          DF-MP2                         
	      2nd-Order Density-Fitted Moller-Plesset Theory     
	              RMP2 Wavefunction,  20 Threads             
	                                                         
	        Rob Parrish, Justin Turney, Andy Simmonett,      
	           Ed Hohenstein, and C. David Sherrill          
	 --------------------------------------------------------

   => Auxiliary Basis Set <=

  Basis Set: (AUG-CC-PVTZ AUX)
    Blend: AUG-CC-PVTZ-RI + DEF2-QZVPP-RI
    Number of shells: 110
    Number of basis functions: 400
    Number of Cartesian functions: 506
    Spherical Harmonics?: true
    Max angular momentum: 4

	 --------------------------------------------------------
	                 NBF =   184, NAUX =   400
	 --------------------------------------------------------
	   CLASS    FOCC     OCC    AOCC    AVIR     VIR    FVIR
	   PAIRS       0       2       2     182     182       0
	 --------------------------------------------------------

	-----------------------------------------------------------
	 ==================> DF-MP2 Energies <==================== 
	-----------------------------------------------------------
	 Reference Energy          =     -14.2996744358702479 [Eh]
	 Singles Energy            =      -0.0000000000000000 [Eh]
	 Same-Spin Energy          =      -0.0000005876185173 [Eh]
	 Opposite-Spin Energy      =      -0.0253166804039779 [Eh]
	 Correlation Energy        =      -0.0253172680224952 [Eh]
	 Total Energy              =     -14.3249917038927439 [Eh]
	-----------------------------------------------------------
	 ================> DF-SCS-MP2 Energies <================== 
	-----------------------------------------------------------
	 SCS Same-Spin Scale       =       0.3333333333333333 [-]
	 SCS Opposite-Spin Scale   =       1.2000000000000000 [-]
	 SCS Same-Spin Energy      =      -0.0000001958728391 [Eh]
	 SCS Opposite-Spin Energy  =      -0.0303800164847735 [Eh]
	 SCS Correlation Energy    =      -0.0303802123576126 [Eh]
	 SCS Total Energy          =     -14.3300546482278612 [Eh]
	-----------------------------------------------------------


*** tstop() called on ddmfs1 at Mon Jan 22 05:16:17 2024
Module time:
	user time   =       6.30 seconds =       0.11 minutes
	system time =       0.17 seconds =       0.00 minutes
	total time  =          0 seconds =       0.00 minutes
Total time:
	user time   =      62.27 seconds =       1.04 minutes
	system time =       2.63 seconds =       0.04 minutes
	total time  =          5 seconds =       0.08 minutes

    Psi4 stopped on: Monday, 22 January 2024 05:16AM
    Psi4 wall time for execution: 0:00:01.59


    -----------------------------------------------------------------------
          Psi4: An Open-Source Ab Initio Electronic Structure Package
                               Psi4 1.8.2 release

                         Git: Rev {} zzzzzzz 


    D. G. A. Smith, L. A. Burns, A. C. Simmonett, R. M. Parrish,
    M. C. Schieber, R. Galvelis, P. Kraus, H. Kruse, R. Di Remigio,
    A. Alenaizan, A. M. James, S. Lehtola, J. P. Misiewicz, M. Scheurer,
    R. A. Shaw, J. B. Schriber, Y. Xie, Z. L. Glick, D. A. Sirianni,
    J. S. O'Brien, J. M. Waldrop, A. Kumar, E. G. Hohenstein,
    B. P. Pritchard, B. R. Brooks, H. F. Schaefer III, A. Yu. Sokolov,
    K. Patkowski, A. E. DePrince III, U. Bozkaya, R. A. King,
    F. A. Evangelista, J. M. Turney, T. D. Crawford, C. D. Sherrill,
    J. Chem. Phys. 152(18) 184108 (2020). https://doi.org/10.1063/5.0006002

                            Additional Code Authors
    E. T. Seidl, C. L. Janssen, E. F. Valeev, M. L. Leininger,
    J. F. Gonthier, R. M. Richard, H. R. McAlexander, M. Saitow, X. Wang,
    P. Verma, M. H. Lechner, A. Jiang, S. Behnle, A. G. Heide,
    M. F. Herbst, and D. L. Poole

             Previous Authors, Complete List of Code Contributors,
                       and Citations for Specific Modules
    https://github.com/psi4/psi4/blob/master/codemeta.json
    https://github.com/psi4/psi4/graphs/contributors
    http://psicode.org/psi4manual/master/introduction.html#citing-psifour

    -----------------------------------------------------------------------


    Psi4 started on: Monday, 22 January 2024 05:16AM

    Process ID: 33103
    Host:       ddmfs1
    PSIDATADIR: /ddmfs1b/softs/psi4conda/share/psi4
    Memory:     55.9 GiB
    Threads:    20
    
  ==> Input QCSchema <==

--------------------------------------------------------------------------
{'driver': 'energy',
 'extras': {'psiapi': True, 'wfn_qcvars_only': True},
 'id': None,
 'keywords': {'SCF_TYPE': 'DF', 'function_kwargs': {}},
 'model': {'basis': 'aug-cc-pvtz', 'method': 'mp2'},
 'molecule': {'atom_labels': ['', '', '', '', ''],
              'atomic_numbers': [8, 1, 1, 3, 3],
              'extras': {},
              'fix_com': True,
              'fix_orientation': True,
              'fix_symmetry': 'c1',
              'fragment_charges': [0.0, 0.0, 1.0],
              'fragment_multiplicities': [1, 1, 1],
              'fragments': [[0, 1, 2], [3], [4]],
              'geometry': [0.0, 0.0, 0.0, -1.1121756344246994, 0.0, 1.4303677194292883, -1.1121756344246994, 0.0,
                           -1.4303677194292883, 2.886275087444139, 2.886275087444139, 0.0, 2.886275087444139,
                           -2.886275087444139, 0.0],
              'mass_numbers': [16, 1, 1, 7, 7],
              'masses': [15.99491461957, 1.00782503223, 1.00782503223, 7.0160034366, 7.0160034366],
              'molecular_charge': 1.0,
              'molecular_multiplicity': 1,
              'name': 'dimer',
              'provenance': {'creator': 'QCElemental',
                             'routine': 'qcelemental.molparse.from_string',
                             'version': '0.26.0'},
              'real': [True, True, True, False, True],
              'schema_name': 'qcschema_molecule',
              'schema_version': 2,
              'symbols': ['O', 'H', 'H', 'Li', 'Li'],
              'validated': True},
 'protocols': {'stdout': True},
 'provenance': {'creator': 'QCElemental', 'routine': 'qcelemental.models.results', 'version': '0.26.0'},
 'schema_name': 'qcschema_input',
 'schema_version': 1}
--------------------------------------------------------------------------

Scratch directory: /ddmfs1a/scratch/
   => Libint2 <=

    Primary   basis highest AM E, G, H:  5, 4, 3
    Auxiliary basis highest AM E, G, H:  6, 5, 4
    Onebody   basis highest AM E, G, H:  6, 5, 4
    Solid Harmonics ordering:            gaussian

*** tstart() called on ddmfs1
*** at Mon Jan 22 05:16:18 2024

   => Loading Basis Set <=

    Name: AUG-CC-PVTZ
    Role: ORBITAL
    Keyword: BASIS
    atoms 1   entry O          line   331 file /ddmfs1b/softs/psi4conda/share/psi4/basis/aug-cc-pvtz.gbs 
    atoms 2-3 entry H          line    40 file /ddmfs1b/softs/psi4conda/share/psi4/basis/aug-cc-pvtz.gbs 
    atoms 4-5 entry LI         line    85 file /ddmfs1b/softs/psi4conda/share/psi4/basis/aug-cc-pvtz.gbs 


         ---------------------------------------------------------
                                   SCF
               by Justin Turney, Rob Parrish, Andy Simmonett
                          and Daniel G. A. Smith
                              RHF Reference
                       20 Threads,  57220 MiB Core
         ---------------------------------------------------------

  ==> Geometry <==

    Molecular point group: c1
    Full point group: Cs

    Geometry (in Bohr), charge = 1, multiplicity = 1:

       Center              X                  Y                   Z               Mass       
    ------------   -----------------  -----------------  -----------------  -----------------
         O            0.000000000000     0.000000000000     0.000000000000    15.994914619570
         H           -1.112175634425     0.000000000000     1.430367719429     1.007825032230
         H           -1.112175634425     0.000000000000    -1.430367719429     1.007825032230
      Gh(LI)          2.886275087444     2.886275087444     0.000000000000     7.016003436600
         LI           2.886275087444    -2.886275087444     0.000000000000     7.016003436600

  Running in c1 symmetry.

  Rotational constants: A =      0.49744  B =      0.48740  C =      0.25478 [cm^-1]
  Rotational constants: A =  14912.90775  B =  14611.87399  C =   7638.05422 [MHz]
  Nuclear repulsion =   16.228485510818459

  Charge       = 1
  Multiplicity = 1
  Electrons    = 12
  Nalpha       = 6
  Nbeta        = 6

  ==> Algorithm <==

  SCF Algorithm Type is DF.
  DIIS enabled.
  MOM disabled.
  Fractional occupation disabled.
  Guess Type is SAD.
  Energy threshold   = 1.00e-08
  Density threshold  = 1.00e-08
  Integral threshold = 1.00e-12

  ==> Primary Basis <==

  Basis Set: AUG-CC-PVTZ
    Blend: AUG-CC-PVTZ
    Number of shells: 60
    Number of basis functions: 184
    Number of Cartesian functions: 215
    Spherical Harmonics?: true
    Max angular momentum: 3

   => Loading Basis Set <=

    Name: (AUG-CC-PVTZ AUX)
    Role: JKFIT
    Keyword: DF_BASIS_SCF
    atoms 1   entry O          line   286 file /ddmfs1b/softs/psi4conda/share/psi4/basis/aug-cc-pvtz-jkfit.gbs 
    atoms 2-3 entry H          line    70 file /ddmfs1b/softs/psi4conda/share/psi4/basis/aug-cc-pvtz-jkfit.gbs 
    atoms 4-5 entry LI         line    54 file /ddmfs1b/softs/psi4conda/share/psi4/basis/def2-universal-jkfit.gbs 

  ==> Integral Setup <==

  DFHelper Memory: AOs need 0.088 GiB; user supplied 41.910 GiB. 
  Using in-core AOs.

  ==> MemDFJK: Density-Fitted J/K Matrices <==

    J tasked:                   Yes
    K tasked:                   Yes
    wK tasked:                   No
    OpenMP threads:              20
    Memory [MiB]:             42915
    Algorithm:                 Core
    Schwarz Cutoff:           1E-12
    Mask sparsity (%):       0.0000
    Fitting Condition:        1E-10

   => Auxiliary Basis Set <=

  Basis Set: (AUG-CC-PVTZ AUX)
    Blend: AUG-CC-PVTZ-JKFIT + DEF2-UNIVERSAL-JKFIT
    Number of shells: 92
    Number of basis functions: 298
    Number of Cartesian functions: 361
    Spherical Harmonics?: true
    Max angular momentum: 4

  Minimum eigenvalue in the overlap matrix is 4.4978719689E-05.
  Reciprocal condition number of the overlap matrix is 3.8234726426E-06.
    Using symmetric orthogonalization.

  ==> Pre-Iterations <==

  SCF Guess: Superposition of Atomic Densities via on-the-fly atomic UHF (no occupation information).

   -------------------------
    Irrep   Nso     Nmo    
   -------------------------
     A        184     184 
   -------------------------
    Total     184     184
   -------------------------

  ==> Iterations <==

                           Total Energy        Delta E     RMS |[F,P]|

   @DF-RHF iter SAD:   -82.86261898521542   -8.28626e+01   0.00000e+00 
   @DF-RHF iter   1:   -83.26380043485571   -4.01181e-01   2.49793e-03 DIIS/ADIIS
   @DF-RHF iter   2:   -83.31588242933783   -5.20820e-02   1.62622e-03 DIIS/ADIIS
   @DF-RHF iter   3:   -83.34303040160091   -2.71480e-02   1.22670e-04 DIIS/ADIIS
   @DF-RHF iter   4:   -83.34343436604760   -4.03964e-04   2.70471e-05 DIIS
   @DF-RHF iter   5:   -83.34345491820322   -2.05522e-05   5.60504e-06 DIIS
   @DF-RHF iter   6:   -83.34345622701645   -1.30881e-06   1.02058e-06 DIIS
   @DF-RHF iter   7:   -83.34345627508739   -4.80709e-08   1.87013e-07 DIIS
   @DF-RHF iter   8:   -83.34345627649903   -1.41164e-09   3.02807e-08 DIIS
   @DF-RHF iter   9:   -83.34345627652696   -2.79385e-11   6.12337e-09 DIIS
  Energy and wave function converged.


  ==> Post-Iterations <==

    Orbital Energies [Eh]
    ---------------------

    Doubly Occupied:                                                      

       1A    -20.794412     2A     -2.726721     3A     -1.580554  
       4A     -0.941021     5A     -0.827559     6A     -0.743351  

    Virtual:                                                              

       7A     -0.161138     8A     -0.107064     9A     -0.105465  
      10A     -0.097403    11A     -0.064691    12A     -0.056655  
      13A     -0.054523    14A     -0.052803    15A     -0.047894  
      16A     -0.046923    17A     -0.044936    18A     -0.042203  
      19A     -0.039155    20A     -0.025044    21A     -0.020175  
      22A     -0.019423    23A     -0.017745    24A     -0.001628  
      25A      0.004833    26A      0.005432    27A      0.010011  
      28A      0.012113    29A      0.014987    30A      0.018918  
      31A      0.020164    32A      0.039031    33A      0.040606  
      34A      0.048072    35A      0.055026    36A      0.059205  
      37A      0.064080    38A      0.073971    39A      0.077080  
      40A      0.080898    41A      0.088126    42A      0.102740  
      43A      0.111989    44A      0.128114    45A      0.146542  
      46A      0.155782    47A      0.157269    48A      0.167463  
      49A      0.170790    50A      0.175161    51A      0.186494  
      52A      0.187244    53A      0.193309    54A      0.206716  
      55A      0.210599    56A      0.223111    57A      0.232398  
      58A      0.238088    59A      0.249518    60A      0.250680  
      61A      0.256704    62A      0.267827    63A      0.271259  
      64A      0.272374    65A      0.275752    66A      0.278250  
      67A      0.280422    68A      0.294698    69A      0.297219  
      70A      0.305116    71A      0.312457    72A      0.336536  
      73A      0.344180    74A      0.348952    75A      0.348989  
      76A      0.377106    77A      0.421995    78A      0.424878  
      79A      0.438048    80A      0.491617    81A      0.521481  
      82A      0.528014    83A      0.555231    84A      0.561989  
      85A      0.569339    86A      0.578205    87A      0.582722  
      88A      0.593641    89A      0.596003    90A      0.606845  
      91A      0.616712    92A      0.620237    93A      0.631787  
      94A      0.676338    95A      0.679578    96A      0.684448  
      97A      0.698709    98A      0.725917    99A      0.753475  
     100A      0.761415   101A      0.773997   102A      0.781322  
     103A      0.789284   104A      0.799201   105A      0.810997  
     106A      0.822356   107A      0.824612   108A      0.839954  
     109A      0.843148   110A      0.864294   111A      0.865004  
     112A      0.892673   113A      0.906621   114A      0.918990  
     115A      0.934190   116A      0.952770   117A      0.995079  
     118A      1.040375   119A      1.056491   120A      1.084834  
     121A      1.121673   122A      1.177830   123A      1.211109  
     124A      1.223454   125A      1.279905   126A      1.300517  
     127A      1.407322   128A      1.444491   129A      1.583700  
     130A      1.650267   131A      1.658207   132A      1.692601  
     133A      1.854472   134A      1.881809   135A      1.901875  
     136A      1.985724   137A      2.191097   138A      2.232018  
     139A      2.327418   140A      2.394788   141A      2.445218  
     142A      2.476318   143A      2.525225   144A      2.599401  
     145A      2.643123   146A      2.679492   147A      2.713264  
     148A      2.734652   149A      3.227280   150A      3.609731  
     151A      3.672278   152A      3.887348   153A      4.050725  
     154A      4.097797   155A      4.136731   156A      4.261865  
     157A      4.357705   158A      4.362053   159A      4.443841  
     160A      4.444863   161A      4.632614   162A      4.711056  
     163A      4.981162   164A      4.987222   165A      5.101981  
     166A      5.167276   167A      5.372742   168A      5.664685  
     169A      6.141180   170A      6.405486   171A      6.582462  
     172A      6.723437   173A      7.005010   174A      7.109866  
     175A      7.120078   176A      7.194453   177A      7.197372  
     178A      7.240620   179A      7.472406   180A      7.707159  
     181A      7.751411   182A      8.681003   183A     10.664984  
     184A     15.983450  

    Final Occupation by Irrep:
              A 
    DOCC [     6 ]
    NA   [     6 ]
    NB   [     6 ]

  @DF-RHF Final Energy:   -83.34345627652696

   => Energetics <=

    Nuclear Repulsion Energy =             16.2284855108184587
    One-Electron Energy =                -143.9166465691518511
    Two-Electron Energy =                  44.3447047818064277
    Total Energy =                        -83.3434562765269646

Computation Completed


Properties will be evaluated at   0.000000,   0.000000,   0.000000 [a0]

Properties computed using the SCF density matrix


 Multipole Moments:

 ------------------------------------------------------------------------------------
     Multipole            Electronic (a.u.)      Nuclear  (a.u.)        Total (a.u.)
 ------------------------------------------------------------------------------------

 L = 1.  Multiply by 2.5417464519 to convert [e a0] to [Debye]
 Dipole X            :         -4.6457113            6.4344740            1.7887627
 Dipole Y            :          6.0342406           -8.6588253           -2.6245847
 Dipole Z            :          0.0000000            0.0000000            0.0000000
 Magnitude           :                                                    3.1761796

 ------------------------------------------------------------------------------------

*** tstop() called on ddmfs1 at Mon Jan 22 05:16:18 2024
Module time:
	user time   =      15.68 seconds =       0.26 minutes
	system time =       0.42 seconds =       0.01 minutes
	total time  =          0 seconds =       0.00 minutes
Total time:
	user time   =      79.13 seconds =       1.32 minutes
	system time =       3.07 seconds =       0.05 minutes
	total time  =          6 seconds =       0.10 minutes

*** tstart() called on ddmfs1
*** at Mon Jan 22 05:16:18 2024


  //>>>>>>>>>>>>>>>>>>>>>>>>>>>>>>>>>>>//
  //               DFMP2               //
  //<<<<<<<<<<<<<<<<<<<<<<<<<<<<<<<<<<<//

   => Loading Basis Set <=

    Name: (AUG-CC-PVTZ AUX)
    Role: RIFIT
    Keyword: DF_BASIS_MP2
    atoms 1   entry O          line   264 file /ddmfs1b/softs/psi4conda/share/psi4/basis/aug-cc-pvtz-ri.gbs 
    atoms 2-3 entry H          line    30 file /ddmfs1b/softs/psi4conda/share/psi4/basis/aug-cc-pvtz-ri.gbs 
    atoms 4-5 entry LI         line    90 file /ddmfs1b/softs/psi4conda/share/psi4/basis/def2-qzvpp-ri.gbs 

	 --------------------------------------------------------
	                          DF-MP2                         
	      2nd-Order Density-Fitted Moller-Plesset Theory     
	              RMP2 Wavefunction,  20 Threads             
	                                                         
	        Rob Parrish, Justin Turney, Andy Simmonett,      
	           Ed Hohenstein, and C. David Sherrill          
	 --------------------------------------------------------

   => Auxiliary Basis Set <=

  Basis Set: (AUG-CC-PVTZ AUX)
    Blend: AUG-CC-PVTZ-RI + DEF2-QZVPP-RI
    Number of shells: 110
    Number of basis functions: 400
    Number of Cartesian functions: 506
    Spherical Harmonics?: true
    Max angular momentum: 4

	 --------------------------------------------------------
	                 NBF =   184, NAUX =   400
	 --------------------------------------------------------
	   CLASS    FOCC     OCC    AOCC    AVIR     VIR    FVIR
	   PAIRS       0       6       6     178     178       0
	 --------------------------------------------------------

	-----------------------------------------------------------
	 ==================> DF-MP2 Energies <==================== 
	-----------------------------------------------------------
	 Reference Energy          =     -83.3434562765269646 [Eh]
	 Singles Energy            =      -0.0000000000000000 [Eh]
	 Same-Spin Energy          =      -0.0681936942993722 [Eh]
	 Opposite-Spin Energy      =      -0.2274950327464916 [Eh]
	 Correlation Energy        =      -0.2956887270458639 [Eh]
	 Total Energy              =     -83.6391450035728354 [Eh]
	-----------------------------------------------------------
	 ================> DF-SCS-MP2 Energies <================== 
	-----------------------------------------------------------
	 SCS Same-Spin Scale       =       0.3333333333333333 [-]
	 SCS Opposite-Spin Scale   =       1.2000000000000000 [-]
	 SCS Same-Spin Energy      =      -0.0227312314331241 [Eh]
	 SCS Opposite-Spin Energy  =      -0.2729940392957899 [Eh]
	 SCS Correlation Energy    =      -0.2957252707289140 [Eh]
	 SCS Total Energy          =     -83.6391815472558733 [Eh]
	-----------------------------------------------------------


*** tstop() called on ddmfs1 at Mon Jan 22 05:16:19 2024
Module time:
	user time   =       6.44 seconds =       0.11 minutes
	system time =       0.23 seconds =       0.00 minutes
	total time  =          1 seconds =       0.02 minutes
Total time:
	user time   =      85.59 seconds =       1.43 minutes
	system time =       3.30 seconds =       0.06 minutes
	total time  =          7 seconds =       0.12 minutes

    Psi4 stopped on: Monday, 22 January 2024 05:16AM
    Psi4 wall time for execution: 0:00:01.76


    -----------------------------------------------------------------------
          Psi4: An Open-Source Ab Initio Electronic Structure Package
                               Psi4 1.8.2 release

                         Git: Rev {} zzzzzzz 


    D. G. A. Smith, L. A. Burns, A. C. Simmonett, R. M. Parrish,
    M. C. Schieber, R. Galvelis, P. Kraus, H. Kruse, R. Di Remigio,
    A. Alenaizan, A. M. James, S. Lehtola, J. P. Misiewicz, M. Scheurer,
    R. A. Shaw, J. B. Schriber, Y. Xie, Z. L. Glick, D. A. Sirianni,
    J. S. O'Brien, J. M. Waldrop, A. Kumar, E. G. Hohenstein,
    B. P. Pritchard, B. R. Brooks, H. F. Schaefer III, A. Yu. Sokolov,
    K. Patkowski, A. E. DePrince III, U. Bozkaya, R. A. King,
    F. A. Evangelista, J. M. Turney, T. D. Crawford, C. D. Sherrill,
    J. Chem. Phys. 152(18) 184108 (2020). https://doi.org/10.1063/5.0006002

                            Additional Code Authors
    E. T. Seidl, C. L. Janssen, E. F. Valeev, M. L. Leininger,
    J. F. Gonthier, R. M. Richard, H. R. McAlexander, M. Saitow, X. Wang,
    P. Verma, M. H. Lechner, A. Jiang, S. Behnle, A. G. Heide,
    M. F. Herbst, and D. L. Poole

             Previous Authors, Complete List of Code Contributors,
                       and Citations for Specific Modules
    https://github.com/psi4/psi4/blob/master/codemeta.json
    https://github.com/psi4/psi4/graphs/contributors
    http://psicode.org/psi4manual/master/introduction.html#citing-psifour

    -----------------------------------------------------------------------


    Psi4 started on: Monday, 22 January 2024 05:16AM

    Process ID: 33103
    Host:       ddmfs1
    PSIDATADIR: /ddmfs1b/softs/psi4conda/share/psi4
    Memory:     55.9 GiB
    Threads:    20
    
  ==> Input QCSchema <==

--------------------------------------------------------------------------
{'driver': 'energy',
 'extras': {'psiapi': True, 'wfn_qcvars_only': True},
 'id': None,
 'keywords': {'SCF_TYPE': 'DF', 'function_kwargs': {}},
 'model': {'basis': 'aug-cc-pvtz', 'method': 'mp2'},
 'molecule': {'atom_labels': ['', '', '', '', ''],
              'atomic_numbers': [8, 1, 1, 3, 3],
              'extras': {},
              'fix_com': True,
              'fix_orientation': True,
              'fix_symmetry': 'c1',
              'fragment_charges': [0.0, 1.0, 0.0],
              'fragment_multiplicities': [1, 1, 1],
              'fragments': [[0, 1, 2], [3], [4]],
              'geometry': [0.0, 0.0, 0.0, -1.1121756344246994, 0.0, 1.4303677194292883, -1.1121756344246994, 0.0,
                           -1.4303677194292883, 2.886275087444139, 2.886275087444139, 0.0, 2.886275087444139,
                           -2.886275087444139, 0.0],
              'mass_numbers': [16, 1, 1, 7, 7],
              'masses': [15.99491461957, 1.00782503223, 1.00782503223, 7.0160034366, 7.0160034366],
              'molecular_charge': 1.0,
              'molecular_multiplicity': 1,
              'name': 'dimer',
              'provenance': {'creator': 'QCElemental',
                             'routine': 'qcelemental.molparse.from_string',
                             'version': '0.26.0'},
              'real': [True, True, True, True, False],
              'schema_name': 'qcschema_molecule',
              'schema_version': 2,
              'symbols': ['O', 'H', 'H', 'Li', 'Li'],
              'validated': True},
 'protocols': {'stdout': True},
 'provenance': {'creator': 'QCElemental', 'routine': 'qcelemental.models.results', 'version': '0.26.0'},
 'schema_name': 'qcschema_input',
 'schema_version': 1}
--------------------------------------------------------------------------

Scratch directory: /ddmfs1a/scratch/
   => Libint2 <=

    Primary   basis highest AM E, G, H:  5, 4, 3
    Auxiliary basis highest AM E, G, H:  6, 5, 4
    Onebody   basis highest AM E, G, H:  6, 5, 4
    Solid Harmonics ordering:            gaussian

*** tstart() called on ddmfs1
*** at Mon Jan 22 05:16:19 2024

   => Loading Basis Set <=

    Name: AUG-CC-PVTZ
    Role: ORBITAL
    Keyword: BASIS
    atoms 1   entry O          line   331 file /ddmfs1b/softs/psi4conda/share/psi4/basis/aug-cc-pvtz.gbs 
[...]
	-----------------------------------------------------------


*** tstop() called on ddmfs1 at Mon Jan 22 05:16:23 2024
Module time:
	user time   =       6.34 seconds =       0.11 minutes
	system time =       0.18 seconds =       0.00 minutes
	total time  =          1 seconds =       0.02 minutes
Total time:
	user time   =     129.09 seconds =       2.15 minutes
	system time =       5.30 seconds =       0.09 minutes
	total time  =         11 seconds =       0.18 minutes

    Psi4 stopped on: Monday, 22 January 2024 05:16AM
    Psi4 wall time for execution: 0:00:01.62


    -----------------------------------------------------------------------
          Psi4: An Open-Source Ab Initio Electronic Structure Package
                               Psi4 1.8.2 release

                         Git: Rev {} zzzzzzz 


    D. G. A. Smith, L. A. Burns, A. C. Simmonett, R. M. Parrish,
    M. C. Schieber, R. Galvelis, P. Kraus, H. Kruse, R. Di Remigio,
    A. Alenaizan, A. M. James, S. Lehtola, J. P. Misiewicz, M. Scheurer,
    R. A. Shaw, J. B. Schriber, Y. Xie, Z. L. Glick, D. A. Sirianni,
    J. S. O'Brien, J. M. Waldrop, A. Kumar, E. G. Hohenstein,
    B. P. Pritchard, B. R. Brooks, H. F. Schaefer III, A. Yu. Sokolov,
    K. Patkowski, A. E. DePrince III, U. Bozkaya, R. A. King,
    F. A. Evangelista, J. M. Turney, T. D. Crawford, C. D. Sherrill,
    J. Chem. Phys. 152(18) 184108 (2020). https://doi.org/10.1063/5.0006002

                            Additional Code Authors
    E. T. Seidl, C. L. Janssen, E. F. Valeev, M. L. Leininger,
    J. F. Gonthier, R. M. Richard, H. R. McAlexander, M. Saitow, X. Wang,
    P. Verma, M. H. Lechner, A. Jiang, S. Behnle, A. G. Heide,
    M. F. Herbst, and D. L. Poole

             Previous Authors, Complete List of Code Contributors,
                       and Citations for Specific Modules
    https://github.com/psi4/psi4/blob/master/codemeta.json
    https://github.com/psi4/psi4/graphs/contributors
    http://psicode.org/psi4manual/master/introduction.html#citing-psifour

    -----------------------------------------------------------------------


    Psi4 started on: Monday, 22 January 2024 05:16AM

    Process ID: 33103
    Host:       ddmfs1
    PSIDATADIR: /ddmfs1b/softs/psi4conda/share/psi4
    Memory:     55.9 GiB
    Threads:    20
    
  ==> Input QCSchema <==

--------------------------------------------------------------------------
{'driver': 'energy',
 'extras': {'psiapi': True, 'wfn_qcvars_only': True},
 'id': None,
 'keywords': {'SCF_TYPE': 'DF', 'function_kwargs': {}},
 'model': {'basis': 'aug-cc-pvtz', 'method': 'mp2'},
 'molecule': {'atom_labels': ['', '', '', '', ''],
              'atomic_numbers': [8, 1, 1, 3, 3],
              'extras': {},
              'fix_com': True,
              'fix_orientation': True,
              'fix_symmetry': 'c1',
              'fragment_charges': [0.0, 1.0, 1.0],
              'fragment_multiplicities': [1, 1, 1],
              'fragments': [[0, 1, 2], [3], [4]],
              'geometry': [0.0, 0.0, 0.0, -1.1121756344246994, 0.0, 1.4303677194292883, -1.1121756344246994, 0.0,
                           -1.4303677194292883, 2.886275087444139, 2.886275087444139, 0.0, 2.886275087444139,
                           -2.886275087444139, 0.0],
              'mass_numbers': [16, 1, 1, 7, 7],
              'masses': [15.99491461957, 1.00782503223, 1.00782503223, 7.0160034366, 7.0160034366],
              'molecular_charge': 2.0,
              'molecular_multiplicity': 1,
              'name': 'dimer',
              'provenance': {'creator': 'QCElemental',
                             'routine': 'qcelemental.molparse.from_string',
                             'version': '0.26.0'},
              'real': [True, True, True, True, True],
              'schema_name': 'qcschema_molecule',
              'schema_version': 2,
              'symbols': ['O', 'H', 'H', 'Li', 'Li'],
              'validated': True},
 'protocols': {'stdout': True},
 'provenance': {'creator': 'QCElemental', 'routine': 'qcelemental.models.results', 'version': '0.26.0'},
 'schema_name': 'qcschema_input',
 'schema_version': 1}
--------------------------------------------------------------------------

Scratch directory: /ddmfs1a/scratch/
   => Libint2 <=

    Primary   basis highest AM E, G, H:  5, 4, 3
    Auxiliary basis highest AM E, G, H:  6, 5, 4
    Onebody   basis highest AM E, G, H:  6, 5, 4
    Solid Harmonics ordering:            gaussian

*** tstart() called on ddmfs1
*** at Mon Jan 22 05:16:23 2024

   => Loading Basis Set <=

    Name: AUG-CC-PVTZ
    Role: ORBITAL
    Keyword: BASIS
    atoms 1   entry O          line   331 file /ddmfs1b/softs/psi4conda/share/psi4/basis/aug-cc-pvtz.gbs 
    atoms 2-3 entry H          line    40 file /ddmfs1b/softs/psi4conda/share/psi4/basis/aug-cc-pvtz.gbs 
    atoms 4-5 entry LI         line    85 file /ddmfs1b/softs/psi4conda/share/psi4/basis/aug-cc-pvtz.gbs 


         ---------------------------------------------------------
                                   SCF
               by Justin Turney, Rob Parrish, Andy Simmonett
                          and Daniel G. A. Smith
                              RHF Reference
                       20 Threads,  57220 MiB Core
         ---------------------------------------------------------

  ==> Geometry <==

    Molecular point group: c1
    Full point group: C2v

    Geometry (in Bohr), charge = 2, multiplicity = 1:

       Center              X                  Y                   Z               Mass       
    ------------   -----------------  -----------------  -----------------  -----------------
         O            0.000000000000     0.000000000000     0.000000000000    15.994914619570
         H           -1.112175634425     0.000000000000     1.430367719429     1.007825032230
         H           -1.112175634425     0.000000000000    -1.430367719429     1.007825032230
         LI           2.886275087444     2.886275087444     0.000000000000     7.016003436600
         LI           2.886275087444    -2.886275087444     0.000000000000     7.016003436600

  Running in c1 symmetry.

  Rotational constants: A =      0.49744  B =      0.48740  C =      0.25478 [cm^-1]
  Rotational constants: A =  14912.90775  B =  14611.87399  C =   7638.05422 [MHz]
  Nuclear repulsion =   24.835876122550687

  Charge       = 2
  Multiplicity = 1
  Electrons    = 14
  Nalpha       = 7
  Nbeta        = 7

  ==> Algorithm <==

  SCF Algorithm Type is DF.
  DIIS enabled.
  MOM disabled.
  Fractional occupation disabled.
  Guess Type is SAD.
  Energy threshold   = 1.00e-08
  Density threshold  = 1.00e-08
  Integral threshold = 1.00e-12

  ==> Primary Basis <==

  Basis Set: AUG-CC-PVTZ
    Blend: AUG-CC-PVTZ
    Number of shells: 60
    Number of basis functions: 184
    Number of Cartesian functions: 215
    Spherical Harmonics?: true
    Max angular momentum: 3

   => Loading Basis Set <=

    Name: (AUG-CC-PVTZ AUX)
    Role: JKFIT
    Keyword: DF_BASIS_SCF
    atoms 1   entry O          line   286 file /ddmfs1b/softs/psi4conda/share/psi4/basis/aug-cc-pvtz-jkfit.gbs 
    atoms 2-3 entry H          line    70 file /ddmfs1b/softs/psi4conda/share/psi4/basis/aug-cc-pvtz-jkfit.gbs 
    atoms 4-5 entry LI         line    54 file /ddmfs1b/softs/psi4conda/share/psi4/basis/def2-universal-jkfit.gbs 

  ==> Integral Setup <==

  DFHelper Memory: AOs need 0.088 GiB; user supplied 41.910 GiB. 
  Using in-core AOs.

  ==> MemDFJK: Density-Fitted J/K Matrices <==

    J tasked:                   Yes
    K tasked:                   Yes
    wK tasked:                   No
    OpenMP threads:              20
    Memory [MiB]:             42915
    Algorithm:                 Core
    Schwarz Cutoff:           1E-12
    Mask sparsity (%):       0.0000
    Fitting Condition:        1E-10

   => Auxiliary Basis Set <=

  Basis Set: (AUG-CC-PVTZ AUX)
    Blend: AUG-CC-PVTZ-JKFIT + DEF2-UNIVERSAL-JKFIT
    Number of shells: 92
    Number of basis functions: 298
    Number of Cartesian functions: 361
    Spherical Harmonics?: true
    Max angular momentum: 4

  Minimum eigenvalue in the overlap matrix is 4.4978719689E-05.
  Reciprocal condition number of the overlap matrix is 3.8234726426E-06.
    Using symmetric orthogonalization.

  ==> Pre-Iterations <==

  SCF Guess: Superposition of Atomic Densities via on-the-fly atomic UHF (no occupation information).

   -------------------------
    Irrep   Nso     Nmo    
   -------------------------
     A        184     184 
   -------------------------
    Total     184     184
   -------------------------

  ==> Iterations <==

                           Total Energy        Delta E     RMS |[F,P]|

   @DF-RHF iter SAD:   -90.26225603853685   -9.02623e+01   0.00000e+00 
   @DF-RHF iter   1:   -90.37853237865814   -1.16276e-01   2.44958e-03 DIIS/ADIIS
   @DF-RHF iter   2:   -90.42987428203386   -5.13419e-02   1.52464e-03 DIIS/ADIIS
   @DF-RHF iter   3:   -90.45340671192913   -2.35324e-02   1.26989e-04 DIIS/ADIIS
   @DF-RHF iter   4:   -90.45381146992678   -4.04758e-04   2.55577e-05 DIIS
   @DF-RHF iter   5:   -90.45382816999717   -1.67001e-05   4.96729e-06 DIIS
   @DF-RHF iter   6:   -90.45382904819671   -8.78200e-07   8.33000e-07 DIIS
   @DF-RHF iter   7:   -90.45382907740336   -2.92066e-08   1.74035e-07 DIIS
   @DF-RHF iter   8:   -90.45382907862600   -1.22265e-09   2.55437e-08 DIIS
   @DF-RHF iter   9:   -90.45382907864405   -1.80478e-11   4.14183e-09 DIIS
  Energy and wave function converged.


  ==> Post-Iterations <==

    Orbital Energies [Eh]
    ---------------------

    Doubly Occupied:                                                      

       1A    -21.020682     2A     -2.900528     3A     -2.900424  
       4A     -1.807916     5A     -1.165341     6A     -1.066236  
       7A     -0.979367  

    Virtual:                                                              

       8A     -0.336653     9A     -0.273401    10A     -0.269223  
      11A     -0.263153    12A     -0.230077    13A     -0.214793  
      14A     -0.200576    15A     -0.182181    16A     -0.174853  
      17A     -0.168486    18A     -0.145680    19A     -0.140252  
      20A     -0.139717    21A     -0.131646    22A     -0.130785  
      23A     -0.123725    24A     -0.120587    25A     -0.120345  
      26A     -0.114474    27A     -0.110826    28A     -0.106478  
      29A     -0.101849    30A     -0.097371    31A     -0.094813  
      32A     -0.084533    33A     -0.084465    34A     -0.082967  
      35A     -0.072137    36A     -0.071971    37A     -0.069927  
      38A     -0.068125    39A     -0.063269    40A     -0.060805  
      41A     -0.046107    42A     -0.045087    43A     -0.037658  
      44A     -0.024125    45A     -0.013654    46A     -0.004671  
      47A     -0.003151    48A      0.007635    49A      0.013040  
      50A      0.026415    51A      0.029905    52A      0.031599  
      53A      0.031998    54A      0.047006    55A      0.047458  
      56A      0.050999    57A      0.066322    58A      0.071630  
      59A      0.073729    60A      0.084769    61A      0.085743  
      62A      0.090088    63A      0.096477    64A      0.099263  
      65A      0.109501    66A      0.112022    67A      0.123405  
      68A      0.124410    69A      0.127854    70A      0.133410  
      71A      0.137276    72A      0.141996    73A      0.149737  
      74A      0.170667    75A      0.191836    76A      0.196106  
      77A      0.198808    78A      0.217394    79A      0.225801  
      80A      0.252146    81A      0.277952    82A      0.294321  
      83A      0.299445    84A      0.354261    85A      0.360759  
      86A      0.369896    87A      0.379239    88A      0.380592  
      89A      0.384339    90A      0.400653    91A      0.408429  
      92A      0.430231    93A      0.435667    94A      0.443797  
      95A      0.462743    96A      0.464977    97A      0.467865  
      98A      0.478959    99A      0.486882   100A      0.494679  
     101A      0.506296   102A      0.506307   103A      0.512178  
     104A      0.520334   105A      0.572097   106A      0.575502  
     107A      0.578751   108A      0.587121   109A      0.604267  
     110A      0.616650   111A      0.633343   112A      0.646869  
     113A      0.653220   114A      0.655822   115A      0.685564  
     116A      0.707215   117A      0.723207   118A      0.723821  
     119A      0.764547   120A      0.875523   121A      0.899330  
     122A      0.928560   123A      0.966049   124A      0.970491  
     125A      0.989722   126A      1.029904   127A      1.041893  
     128A      1.181661   129A      1.259748   130A      1.344713  
     131A      1.418817   132A      1.429352   133A      1.491647  
     134A      1.628966   135A      1.697870   136A      1.747564  
     137A      1.954276   138A      1.996194   139A      2.011202  
     140A      2.108620   141A      2.203009   142A      2.242665  
     143A      2.283462   144A      2.295231   145A      2.418785  
     146A      2.427266   147A      2.491284   148A      2.508503  
     149A      3.023953   150A      3.049745   151A      3.398112  
     152A      3.461824   153A      3.679587   154A      3.844497  
     155A      3.888863   156A      3.918862   157A      4.037152  
     158A      4.149903   159A      4.156759   160A      4.232252  
     161A      4.239916   162A      4.417583   163A      4.500724  
     164A      4.766876   165A      4.773325   166A      4.880967  
     167A      4.950679   168A      5.151703   169A      5.454425  
     170A      5.910632   171A      6.178414   172A      6.346299  
     173A      6.492899   174A      6.775915   175A      6.879387  
     176A      6.892405   177A      6.967850   178A      6.967858  
     179A      7.012600   180A      7.249105   181A      7.479374  
     182A      7.521788   183A      8.459125   184A     15.759848  

    Final Occupation by Irrep:
              A 
    DOCC [     7 ]
    NA   [     7 ]
    NB   [     7 ]

  @DF-RHF Final Energy:   -90.45382907864405

   => Energetics <=

    Nuclear Repulsion Energy =             24.8358761225506868
    One-Electron Energy =                -166.8984192964462068
    Two-Electron Energy =                  51.6087140952514574
    Total Energy =                        -90.4538290786440484

Computation Completed


Properties will be evaluated at   0.000000,   0.000000,   0.000000 [a0]

Properties computed using the SCF density matrix


 Multipole Moments:

 ------------------------------------------------------------------------------------
     Multipole            Electronic (a.u.)      Nuclear  (a.u.)        Total (a.u.)
 ------------------------------------------------------------------------------------

 L = 1.  Multiply by 2.5417464519 to convert [e a0] to [Debye]
 Dipole X            :        -10.6991452           15.0932993            4.3941540
 Dipole Y            :         -0.0000000            0.0000000           -0.0000000
 Dipole Z            :          0.0000000            0.0000000            0.0000000
 Magnitude           :                                                    4.3941540

 ------------------------------------------------------------------------------------

*** tstop() called on ddmfs1 at Mon Jan 22 05:16:24 2024
Module time:
	user time   =      15.76 seconds =       0.26 minutes
	system time =       0.80 seconds =       0.01 minutes
	total time  =          1 seconds =       0.02 minutes
Total time:
	user time   =     146.03 seconds =       2.43 minutes
	system time =       6.14 seconds =       0.10 minutes
	total time  =         12 seconds =       0.20 minutes

*** tstart() called on ddmfs1
*** at Mon Jan 22 05:16:24 2024


  //>>>>>>>>>>>>>>>>>>>>>>>>>>>>>>>>>>>//
  //               DFMP2               //
  //<<<<<<<<<<<<<<<<<<<<<<<<<<<<<<<<<<<//

   => Loading Basis Set <=

    Name: (AUG-CC-PVTZ AUX)
    Role: RIFIT
    Keyword: DF_BASIS_MP2
    atoms 1   entry O          line   264 file /ddmfs1b/softs/psi4conda/share/psi4/basis/aug-cc-pvtz-ri.gbs 
    atoms 2-3 entry H          line    30 file /ddmfs1b/softs/psi4conda/share/psi4/basis/aug-cc-pvtz-ri.gbs 
    atoms 4-5 entry LI         line    90 file /ddmfs1b/softs/psi4conda/share/psi4/basis/def2-qzvpp-ri.gbs 

	 --------------------------------------------------------
	                          DF-MP2                         
	      2nd-Order Density-Fitted Moller-Plesset Theory     
	              RMP2 Wavefunction,  20 Threads             
	                                                         
	        Rob Parrish, Justin Turney, Andy Simmonett,      
	           Ed Hohenstein, and C. David Sherrill          
	 --------------------------------------------------------

   => Auxiliary Basis Set <=

  Basis Set: (AUG-CC-PVTZ AUX)
    Blend: AUG-CC-PVTZ-RI + DEF2-QZVPP-RI
    Number of shells: 110
    Number of basis functions: 400
    Number of Cartesian functions: 506
    Spherical Harmonics?: true
    Max angular momentum: 4

	 --------------------------------------------------------
	                 NBF =   184, NAUX =   400
	 --------------------------------------------------------
	   CLASS    FOCC     OCC    AOCC    AVIR     VIR    FVIR
	   PAIRS       0       7       7     177     177       0
	 --------------------------------------------------------

	-----------------------------------------------------------
	 ==================> DF-MP2 Energies <==================== 
	-----------------------------------------------------------
	 Reference Energy          =     -90.4538290786440484 [Eh]
	 Singles Energy            =      -0.0000000000000000 [Eh]
	 Same-Spin Energy          =      -0.0679520549026339 [Eh]
	 Opposite-Spin Energy      =      -0.2389726957843842 [Eh]
	 Correlation Energy        =      -0.3069247506870181 [Eh]
	 Total Energy              =     -90.7607538293310654 [Eh]
	-----------------------------------------------------------
	 ================> DF-SCS-MP2 Energies <================== 
	-----------------------------------------------------------
	 SCS Same-Spin Scale       =       0.3333333333333333 [-]
	 SCS Opposite-Spin Scale   =       1.2000000000000000 [-]
	 SCS Same-Spin Energy      =      -0.0226506849675446 [Eh]
	 SCS Opposite-Spin Energy  =      -0.2867672349412610 [Eh]
	 SCS Correlation Energy    =      -0.3094179199088056 [Eh]
	 SCS Total Energy          =     -90.7632469985528587 [Eh]
	-----------------------------------------------------------


*** tstop() called on ddmfs1 at Mon Jan 22 05:16:24 2024
Module time:
	user time   =       6.56 seconds =       0.11 minutes
	system time =       0.16 seconds =       0.00 minutes
	total time  =          0 seconds =       0.00 minutes
Total time:
	user time   =     152.61 seconds =       2.54 minutes
	system time =       6.30 seconds =       0.10 minutes
	total time  =         12 seconds =       0.20 minutes

    Psi4 stopped on: Monday, 22 January 2024 05:16AM
    Psi4 wall time for execution: 0:00:01.79


  //>>>>>>>>>>>>>>>>>>>>>>>>>>>>>>>>>>>//
  //          ManyBody Results         //
  //<<<<<<<<<<<<<<<<<<<<<<<<<<<<<<<<<<<//


   ==> N-Body: Counterpoise Corrected (CP) energies <==

        n-Body     Total Energy            Interaction Energy                          N-body Contribution to Interaction Energy
                   [Eh]                    [Eh]                  [kcal/mol]            [Eh]                  [kcal/mol]
             1  N/A                         0.000000000000        0.000000000000        0.000000000000        0.000000000000
             2  N/A                         0.082967802384       52.063082014474        0.082967802384       52.063082014474
  FULL/RTN   3  N/A                         0.082370927381       51.688537295147       -0.000596875003       -0.374544719328


    Psi4 stopped on: Monday, 22 January 2024 05:16AM
    Psi4 wall time for execution: 0:00:14.98

*** Psi4 exiting successfully. Buy a developer a beer!
