
    -----------------------------------------------------------------------
          Psi4: An Open-Source Ab Initio Electronic Structure Package
                               Psi4 1.8.2 release

                         Git: Rev {} zzzzzzz 


    D. G. A. Smith, L. A. Burns, A. C. Simmonett, R. M. Parrish,
    M. C. Schieber, R. Galvelis, P. Kraus, H. Kruse, R. Di Remigio,
    A. Alenaizan, A. M. James, S. Lehtola, J. P. Misiewicz, M. Scheurer,
    R. A. Shaw, J. B. Schriber, Y. Xie, Z. L. Glick, D. A. Sirianni,
    J. S. O'Brien, J. M. Waldrop, A. Kumar, E. G. Hohenstein,
    B. P. Pritchard, B. R. Brooks, H. F. Schaefer III, A. Yu. Sokolov,
    K. Patkowski, A. E. DePrince III, U. Bozkaya, R. A. King,
    F. A. Evangelista, J. M. Turney, T. D. Crawford, C. D. Sherrill,
    J. Chem. Phys. 152(18) 184108 (2020). https://doi.org/10.1063/5.0006002

                            Additional Code Authors
    E. T. Seidl, C. L. Janssen, E. F. Valeev, M. L. Leininger,
    J. F. Gonthier, R. M. Richard, H. R. McAlexander, M. Saitow, X. Wang,
    P. Verma, M. H. Lechner, A. Jiang, S. Behnle, A. G. Heide,
    M. F. Herbst, and D. L. Poole

             Previous Authors, Complete List of Code Contributors,
                       and Citations for Specific Modules
    https://github.com/psi4/psi4/blob/master/codemeta.json
    https://github.com/psi4/psi4/graphs/contributors
    http://psicode.org/psi4manual/master/introduction.html#citing-psifour

    -----------------------------------------------------------------------


    Psi4 started on: Monday, 22 January 2024 12:34PM

    Process ID: 48838
    Host:       ddmfs1
    PSIDATADIR: /ddmfs1b/softs/psi4conda/share/psi4
    Memory:     500.0 MiB
    Threads:    20
    
  ==> Input File <==

--------------------------------------------------------------------------
MEMORY 60 GB

molecule dimer {
0 1
O          0.000000     0.000000     0.000000
H         -0.588538     0.000000     0.756918
H         -0.588538     0.000000    -0.756918
Gh(Na)     2.395678     2.395678     0.000000
Gh(Na)     2.395678    -2.395678     0.000000

units ang
no_reorient
no_com
symmetry c1
}

set {
basis        aug-cc-pVTZ
scf_type     df
}

energy("mp2")
--------------------------------------------------------------------------

  Memory set to  55.879 GiB by Python driver.

Scratch directory: /ddmfs1a/scratch/
   => Libint2 <=

    Primary   basis highest AM E, G, H:  5, 4, 3
    Auxiliary basis highest AM E, G, H:  6, 5, 4
    Onebody   basis highest AM E, G, H:  6, 5, 4
    Solid Harmonics ordering:            gaussian

*** tstart() called on ddmfs1
*** at Mon Jan 22 12:34:16 2024

   => Loading Basis Set <=

    Name: AUG-CC-PVTZ
    Role: ORBITAL
    Keyword: BASIS
    atoms 1   entry O          line   331 file /ddmfs1b/softs/psi4conda/share/psi4/basis/aug-cc-pvtz.gbs 
    atoms 2-3 entry H          line    40 file /ddmfs1b/softs/psi4conda/share/psi4/basis/aug-cc-pvtz.gbs 
    atoms 4-5 entry NA         line   469 file /ddmfs1b/softs/psi4conda/share/psi4/basis/aug-cc-pvtz.gbs 


         ---------------------------------------------------------
                                   SCF
               by Justin Turney, Rob Parrish, Andy Simmonett
                          and Daniel G. A. Smith
                              RHF Reference
                       20 Threads,  57220 MiB Core
         ---------------------------------------------------------

  ==> Geometry <==

    Molecular point group: c1
    Full point group: C2v

    Geometry (in Angstrom), charge = 0, multiplicity = 1:

       Center              X                  Y                   Z               Mass       
    ------------   -----------------  -----------------  -----------------  -----------------
         O            0.000000000000     0.000000000000     0.000000000000    15.994914619570
         H           -0.588538000000     0.000000000000     0.756918000000     1.007825032230
         H           -0.588538000000     0.000000000000    -0.756918000000     1.007825032230
      Gh(NA)          2.395678000000     2.395678000000     0.000000000000    22.989769282000
      Gh(NA)          2.395678000000    -2.395678000000     0.000000000000    22.989769282000

  Running in c1 symmetry.

  Rotational constants: A =      0.06360  B =      0.06344  C =      0.03190 [cm^-1]
  Rotational constants: A =   1906.77441  B =   1901.76481  C =    956.29432 [MHz]
  Nuclear repulsion =    9.180197847927069

  Charge       = 0
  Multiplicity = 1
  Electrons    = 10
  Nalpha       = 5
  Nbeta        = 5

  ==> Algorithm <==

  SCF Algorithm Type is DF.
  DIIS enabled.
  MOM disabled.
  Fractional occupation disabled.
  Guess Type is SAD.
  Energy threshold   = 1.00e-08
  Density threshold  = 1.00e-08
  Integral threshold = 1.00e-12

  ==> Primary Basis <==

  Basis Set: AUG-CC-PVTZ
    Blend: AUG-CC-PVTZ
    Number of shells: 64
    Number of basis functions: 192
    Number of Cartesian functions: 223
    Spherical Harmonics?: true
    Max angular momentum: 3

   => Loading Basis Set <=

    Name: (AUG-CC-PVTZ AUX)
    Role: JKFIT
    Keyword: DF_BASIS_SCF
    atoms 1   entry O          line   286 file /ddmfs1b/softs/psi4conda/share/psi4/basis/aug-cc-pvtz-jkfit.gbs 
    atoms 2-3 entry H          line    70 file /ddmfs1b/softs/psi4conda/share/psi4/basis/aug-cc-pvtz-jkfit.gbs 
    atoms 4-5 entry NA         line   498 file /ddmfs1b/softs/psi4conda/share/psi4/basis/def2-universal-jkfit.gbs 

  ==> Integral Setup <==

  DFHelper Memory: AOs need 0.130 GiB; user supplied 41.910 GiB. 
  Using in-core AOs.

  ==> MemDFJK: Density-Fitted J/K Matrices <==

    J tasked:                   Yes
    K tasked:                   Yes
    wK tasked:                   No
    OpenMP threads:              20
    Memory [MiB]:             42915
    Algorithm:                 Core
    Schwarz Cutoff:           1E-12
    Mask sparsity (%):       0.0000
    Fitting Condition:        1E-10

   => Auxiliary Basis Set <=

  Basis Set: (AUG-CC-PVTZ AUX)
    Blend: AUG-CC-PVTZ-JKFIT + DEF2-UNIVERSAL-JKFIT
    Number of shells: 126
    Number of basis functions: 420
    Number of Cartesian functions: 515
    Spherical Harmonics?: true
    Max angular momentum: 4

  Minimum eigenvalue in the overlap matrix is 2.0567803350E-04.
  Reciprocal condition number of the overlap matrix is 1.9905296263E-05.
    Using symmetric orthogonalization.

  ==> Pre-Iterations <==

  SCF Guess: Superposition of Atomic Densities via on-the-fly atomic UHF (no occupation information).

   -------------------------
    Irrep   Nso     Nmo    
   -------------------------
     A        192     192 
   -------------------------
    Total     192     192
   -------------------------

  ==> Iterations <==

                           Total Energy        Delta E     RMS |[F,P]|

   @DF-RHF iter SAD:   -75.47651206590527   -7.54765e+01   0.00000e+00 
   @DF-RHF iter   1:   -75.97616652999882   -4.99654e-01   2.44051e-03 DIIS/ADIIS
   @DF-RHF iter   2:   -76.02869490653144   -5.25284e-02   1.66258e-03 DIIS/ADIIS
   @DF-RHF iter   3:   -76.06009584519593   -3.14009e-02   1.13426e-04 DIIS/ADIIS
   @DF-RHF iter   4:   -76.06048598499598   -3.90140e-04   2.69081e-05 DIIS
   @DF-RHF iter   5:   -76.06051007944720   -2.40945e-05   6.12198e-06 DIIS
   @DF-RHF iter   6:   -76.06051205296835   -1.97352e-06   1.33993e-06 DIIS
   @DF-RHF iter   7:   -76.06051215710558   -1.04137e-07   2.42228e-07 DIIS
   @DF-RHF iter   8:   -76.06051216009460   -2.98903e-09   4.03299e-08 DIIS
   @DF-RHF iter   9:   -76.06051216015994   -6.53415e-11   9.93114e-09 DIIS
  Energy and wave function converged.


  ==> Post-Iterations <==

    Orbital Energies [Eh]
    ---------------------

    Doubly Occupied:                                                      

       1A    -20.567557     2A     -1.352961     3A     -0.716494  
       4A     -0.585123     5A     -0.510300  

    Virtual:                                                              

       6A      0.008062     7A      0.012503     8A      0.015828  
       9A      0.017191    10A      0.024815    11A      0.025280  
      12A      0.025775    13A      0.033114    14A      0.044185  
      15A      0.048943    16A      0.053990    17A      0.056941  
      18A      0.059936    19A      0.062074    20A      0.070365  
      21A      0.070545    22A      0.070695    23A      0.078653  
      24A      0.082660    25A      0.084666    26A      0.085659  
      27A      0.092095    28A      0.093393    29A      0.100795  
      30A      0.107283    31A      0.108433    32A      0.108589  
      33A      0.110114    34A      0.150394    35A      0.154161  
      36A      0.156650    37A      0.167769    38A      0.169936  
      39A      0.180035    40A      0.188424    41A      0.189686  
      42A      0.206735    43A      0.226931    44A      0.240931  
      45A      0.245511    46A      0.246679    47A      0.250748  
      48A      0.259107    49A      0.259853    50A      0.271479  
      51A      0.271979    52A      0.274862    53A      0.280371  
      54A      0.283826    55A      0.293824    56A      0.294271  
      57A      0.303770    58A      0.306888    59A      0.311103  
      60A      0.311370    61A      0.320338    62A      0.324310  
      63A      0.330587    64A      0.337626    65A      0.371783  
      66A      0.380220    67A      0.389646    68A      0.394584  
      69A      0.400297    70A      0.403388    71A      0.410062  
      72A      0.414069    73A      0.426341    74A      0.438904  
      75A      0.448970    76A      0.449174    77A      0.449364  
      78A      0.464194    79A      0.475484    80A      0.481954  
      81A      0.521079    82A      0.529483    83A      0.559318  
      84A      0.635689    85A      0.691717    86A      0.712266  
      87A      0.722905    88A      0.733297    89A      0.734693  
      90A      0.742984    91A      0.744033    92A      0.753027  
      93A      0.754893    94A      0.758575    95A      0.765751  
      96A      0.768366    97A      0.778604    98A      0.779655  
      99A      0.789686   100A      0.791495   101A      0.792740  
     102A      0.794991   103A      0.804940   104A      0.814924  
     105A      0.831636   106A      0.840344   107A      0.841292  
     108A      0.842963   109A      0.856922   110A      0.863419  
     111A      0.885484   112A      0.903693   113A      0.937248  
     114A      0.956694   115A      0.981716   116A      0.981843  
     117A      0.999267   118A      1.057129   119A      1.062697  
     120A      1.069806   121A      1.127439   122A      1.173584  
     123A      1.196919   124A      1.208918   125A      1.222543  
     126A      1.229204   127A      1.280580   128A      1.303513  
     129A      1.316051   130A      1.603021   131A      1.626920  
     132A      1.679465   133A      1.844236   134A      1.893593  
     135A      2.017025   136A      2.134099   137A      2.338891  
     138A      2.362558   139A      2.434697   140A      2.465735  
     141A      2.493626   142A      2.501725   143A      2.610670  
     144A      2.693489   145A      2.790927   146A      2.826883  
     147A      2.854373   148A      2.916014   149A      3.698857  
     150A      3.797553   151A      4.034638   152A      4.152359  
     153A      4.211493   154A      4.265165   155A      4.308267  
     156A      4.414838   157A      4.415630   158A      4.444570  
     159A      4.491660   160A      4.493715   161A      4.526845  
     162A      4.777356   163A      4.877703   164A      5.155444  
     165A      5.163221   166A      5.276466   167A      5.347042  
     168A      5.538666   169A      5.757288   170A      6.213158  
     171A      6.332224   172A      6.333308   173A      6.338231  
     174A      6.357247   175A      6.423658   176A      6.541471  
     177A      6.589925   178A      6.733046   179A      6.919944  
     180A      7.199616   181A      7.323102   182A      7.326128  
     183A      7.361668   184A      7.378472   185A      7.384857  
     186A      7.577445   187A      7.923257   188A      7.938166  
     189A      8.830017   190A     15.867152   191A     64.431509  
     192A     64.452910  

    Final Occupation by Irrep:
              A 
    DOCC [     5 ]
    NA   [     5 ]
    NB   [     5 ]

  @DF-RHF Final Energy:   -76.06051216015994

   => Energetics <=

    Nuclear Repulsion Energy =              9.1801978479270687
    One-Electron Energy =                -123.0165482486758179
    Two-Electron Energy =                  37.7758382405888113
    Total Energy =                        -76.0605121601599450

Computation Completed


Properties will be evaluated at   0.000000,   0.000000,   0.000000 [a0]

Properties computed using the SCF density matrix


 Multipole Moments:

 ------------------------------------------------------------------------------------
     Multipole            Electronic (a.u.)      Nuclear  (a.u.)        Total (a.u.)
 ------------------------------------------------------------------------------------

 L = 1.  Multiply by 2.5417464519 to convert [e a0] to [Debye]
 Dipole X            :          1.4420252           -2.2243513           -0.7823260
 Dipole Y            :         -0.0000000            0.0000000           -0.0000000
 Dipole Z            :         -0.0000000            0.0000000           -0.0000000
 Magnitude           :                                                    0.7823260

 ------------------------------------------------------------------------------------

*** tstop() called on ddmfs1 at Mon Jan 22 12:34:19 2024
Module time:
	user time   =      24.59 seconds =       0.41 minutes
	system time =       2.76 seconds =       0.05 minutes
	total time  =          3 seconds =       0.05 minutes
Total time:
	user time   =      24.59 seconds =       0.41 minutes
	system time =       2.76 seconds =       0.05 minutes
	total time  =          3 seconds =       0.05 minutes

*** tstart() called on ddmfs1
*** at Mon Jan 22 12:34:19 2024


  //>>>>>>>>>>>>>>>>>>>>>>>>>>>>>>>>>>>//
  //               DFMP2               //
  //<<<<<<<<<<<<<<<<<<<<<<<<<<<<<<<<<<<//

   => Loading Basis Set <=

    Name: (AUG-CC-PVTZ AUX)
    Role: RIFIT
    Keyword: DF_BASIS_MP2
    atoms 1   entry O          line   264 file /ddmfs1b/softs/psi4conda/share/psi4/basis/aug-cc-pvtz-ri.gbs 
    atoms 2-3 entry H          line    30 file /ddmfs1b/softs/psi4conda/share/psi4/basis/aug-cc-pvtz-ri.gbs 
    atoms 4-5 entry NA         line   610 file /ddmfs1b/softs/psi4conda/share/psi4/basis/def2-qzvpp-ri.gbs 

	 --------------------------------------------------------
	                          DF-MP2                         
	      2nd-Order Density-Fitted Moller-Plesset Theory     
	              RMP2 Wavefunction,  20 Threads             
	                                                         
	        Rob Parrish, Justin Turney, Andy Simmonett,      
	           Ed Hohenstein, and C. David Sherrill          
	 --------------------------------------------------------

   => Auxiliary Basis Set <=

  Basis Set: (AUG-CC-PVTZ AUX)
    Blend: AUG-CC-PVTZ-RI + DEF2-QZVPP-RI
    Number of shells: 140
    Number of basis functions: 530
    Number of Cartesian functions: 674
    Spherical Harmonics?: true
    Max angular momentum: 4

	 --------------------------------------------------------
	                 NBF =   192, NAUX =   530
	 --------------------------------------------------------
	   CLASS    FOCC     OCC    AOCC    AVIR     VIR    FVIR
	   PAIRS       0       5       5     187     187       0
	 --------------------------------------------------------

	-----------------------------------------------------------
	 ==================> DF-MP2 Energies <==================== 
	-----------------------------------------------------------
	 Reference Energy          =     -76.0605121601599450 [Eh]
	 Singles Energy            =      -0.0000000000000000 [Eh]
	 Same-Spin Energy          =      -0.0683966272663771 [Eh]
	 Opposite-Spin Energy      =      -0.2154487044114399 [Eh]
	 Correlation Energy        =      -0.2838453316778170 [Eh]
	 Total Energy              =     -76.3443574918377550 [Eh]
	-----------------------------------------------------------
	 ================> DF-SCS-MP2 Energies <================== 
	-----------------------------------------------------------
	 SCS Same-Spin Scale       =       0.3333333333333333 [-]
	 SCS Opposite-Spin Scale   =       1.2000000000000000 [-]
	 SCS Same-Spin Energy      =      -0.0227988757554590 [Eh]
	 SCS Opposite-Spin Energy  =      -0.2585384452937279 [Eh]
	 SCS Correlation Energy    =      -0.2813373210491869 [Eh]
	 SCS Total Energy          =     -76.3418494812091382 [Eh]
	-----------------------------------------------------------


*** tstop() called on ddmfs1 at Mon Jan 22 12:34:24 2024
Module time:
	user time   =      13.53 seconds =       0.23 minutes
	system time =       1.03 seconds =       0.02 minutes
	total time  =          5 seconds =       0.08 minutes
Total time:
	user time   =      38.14 seconds =       0.64 minutes
	system time =       3.79 seconds =       0.06 minutes
	total time  =          8 seconds =       0.13 minutes

    Psi4 stopped on: Monday, 22 January 2024 12:34PM
    Psi4 wall time for execution: 0:00:07.74

*** Psi4 exiting successfully. Buy a developer a beer!
