
    -----------------------------------------------------------------------
          Psi4: An Open-Source Ab Initio Electronic Structure Package
                               Psi4 1.8.2 release

                         Git: Rev {} zzzzzzz 


    D. G. A. Smith, L. A. Burns, A. C. Simmonett, R. M. Parrish,
    M. C. Schieber, R. Galvelis, P. Kraus, H. Kruse, R. Di Remigio,
    A. Alenaizan, A. M. James, S. Lehtola, J. P. Misiewicz, M. Scheurer,
    R. A. Shaw, J. B. Schriber, Y. Xie, Z. L. Glick, D. A. Sirianni,
    J. S. O'Brien, J. M. Waldrop, A. Kumar, E. G. Hohenstein,
    B. P. Pritchard, B. R. Brooks, H. F. Schaefer III, A. Yu. Sokolov,
    K. Patkowski, A. E. DePrince III, U. Bozkaya, R. A. King,
    F. A. Evangelista, J. M. Turney, T. D. Crawford, C. D. Sherrill,
    J. Chem. Phys. 152(18) 184108 (2020). https://doi.org/10.1063/5.0006002

                            Additional Code Authors
    E. T. Seidl, C. L. Janssen, E. F. Valeev, M. L. Leininger,
    J. F. Gonthier, R. M. Richard, H. R. McAlexander, M. Saitow, X. Wang,
    P. Verma, M. H. Lechner, A. Jiang, S. Behnle, A. G. Heide,
    M. F. Herbst, and D. L. Poole

             Previous Authors, Complete List of Code Contributors,
                       and Citations for Specific Modules
    https://github.com/psi4/psi4/blob/master/codemeta.json
    https://github.com/psi4/psi4/graphs/contributors
    http://psicode.org/psi4manual/master/introduction.html#citing-psifour

    -----------------------------------------------------------------------


    Psi4 started on: Monday, 22 January 2024 12:32PM

    Process ID: 48576
    Host:       ddmfs1
    PSIDATADIR: /ddmfs1b/softs/psi4conda/share/psi4
    Memory:     500.0 MiB
    Threads:    20
    
  ==> Input File <==

--------------------------------------------------------------------------
MEMORY 60 GB

molecule dimer {
0 1
O          0.000000     0.000000     0.000000
H         -0.588538     0.000000     0.756918
H         -0.588538     0.000000    -0.756918
Gh(Na)     1.882318     1.882318     0.000000
Gh(Na)     1.882318    -1.882318     0.000000

units ang
no_reorient
no_com
symmetry c1
}

set {
basis        aug-cc-pVTZ
scf_type     df
}

energy("mp2")
--------------------------------------------------------------------------

  Memory set to  55.879 GiB by Python driver.

Scratch directory: /ddmfs1a/scratch/
   => Libint2 <=

    Primary   basis highest AM E, G, H:  5, 4, 3
    Auxiliary basis highest AM E, G, H:  6, 5, 4
    Onebody   basis highest AM E, G, H:  6, 5, 4
    Solid Harmonics ordering:            gaussian

*** tstart() called on ddmfs1
*** at Mon Jan 22 12:32:31 2024

   => Loading Basis Set <=

    Name: AUG-CC-PVTZ
    Role: ORBITAL
    Keyword: BASIS
    atoms 1   entry O          line   331 file /ddmfs1b/softs/psi4conda/share/psi4/basis/aug-cc-pvtz.gbs 
    atoms 2-3 entry H          line    40 file /ddmfs1b/softs/psi4conda/share/psi4/basis/aug-cc-pvtz.gbs 
    atoms 4-5 entry NA         line   469 file /ddmfs1b/softs/psi4conda/share/psi4/basis/aug-cc-pvtz.gbs 


         ---------------------------------------------------------
                                   SCF
               by Justin Turney, Rob Parrish, Andy Simmonett
                          and Daniel G. A. Smith
                              RHF Reference
                       20 Threads,  57220 MiB Core
         ---------------------------------------------------------

  ==> Geometry <==

    Molecular point group: c1
    Full point group: C2v

    Geometry (in Angstrom), charge = 0, multiplicity = 1:

       Center              X                  Y                   Z               Mass       
    ------------   -----------------  -----------------  -----------------  -----------------
         O            0.000000000000     0.000000000000     0.000000000000    15.994914619570
         H           -0.588538000000     0.000000000000     0.756918000000     1.007825032230
         H           -0.588538000000     0.000000000000    -0.756918000000     1.007825032230
      Gh(NA)          1.882318000000     1.882318000000     0.000000000000    22.989769282000
      Gh(NA)          1.882318000000    -1.882318000000     0.000000000000    22.989769282000

  Running in c1 symmetry.

  Rotational constants: A =      0.10275  B =      0.10231  C =      0.05163 [cm^-1]
  Rotational constants: A =   3080.34179  B =   3067.28909  C =   1547.77201 [MHz]
  Nuclear repulsion =    9.180197847927069

  Charge       = 0
  Multiplicity = 1
  Electrons    = 10
  Nalpha       = 5
  Nbeta        = 5

  ==> Algorithm <==

  SCF Algorithm Type is DF.
  DIIS enabled.
  MOM disabled.
  Fractional occupation disabled.
  Guess Type is SAD.
  Energy threshold   = 1.00e-08
  Density threshold  = 1.00e-08
  Integral threshold = 1.00e-12

  ==> Primary Basis <==

  Basis Set: AUG-CC-PVTZ
    Blend: AUG-CC-PVTZ
    Number of shells: 64
    Number of basis functions: 192
    Number of Cartesian functions: 223
    Spherical Harmonics?: true
    Max angular momentum: 3

   => Loading Basis Set <=

    Name: (AUG-CC-PVTZ AUX)
    Role: JKFIT
    Keyword: DF_BASIS_SCF
    atoms 1   entry O          line   286 file /ddmfs1b/softs/psi4conda/share/psi4/basis/aug-cc-pvtz-jkfit.gbs 
    atoms 2-3 entry H          line    70 file /ddmfs1b/softs/psi4conda/share/psi4/basis/aug-cc-pvtz-jkfit.gbs 
    atoms 4-5 entry NA         line   498 file /ddmfs1b/softs/psi4conda/share/psi4/basis/def2-universal-jkfit.gbs 

  ==> Integral Setup <==

  DFHelper Memory: AOs need 0.130 GiB; user supplied 41.910 GiB. 
  Using in-core AOs.

  ==> MemDFJK: Density-Fitted J/K Matrices <==

    J tasked:                   Yes
    K tasked:                   Yes
    wK tasked:                   No
    OpenMP threads:              20
    Memory [MiB]:             42915
    Algorithm:                 Core
    Schwarz Cutoff:           1E-12
    Mask sparsity (%):       0.0000
    Fitting Condition:        1E-10

   => Auxiliary Basis Set <=

  Basis Set: (AUG-CC-PVTZ AUX)
    Blend: AUG-CC-PVTZ-JKFIT + DEF2-UNIVERSAL-JKFIT
    Number of shells: 126
    Number of basis functions: 420
    Number of Cartesian functions: 515
    Spherical Harmonics?: true
    Max angular momentum: 4

  Minimum eigenvalue in the overlap matrix is 7.0652104361E-05.
  Reciprocal condition number of the overlap matrix is 6.4035638187E-06.
    Using symmetric orthogonalization.

  ==> Pre-Iterations <==

  SCF Guess: Superposition of Atomic Densities via on-the-fly atomic UHF (no occupation information).

   -------------------------
    Irrep   Nso     Nmo    
   -------------------------
     A        192     192 
   -------------------------
    Total     192     192
   -------------------------

  ==> Iterations <==

                           Total Energy        Delta E     RMS |[F,P]|

   @DF-RHF iter SAD:   -75.47651208113639   -7.54765e+01   0.00000e+00 
   @DF-RHF iter   1:   -75.97625442390682   -4.99742e-01   2.44061e-03 DIIS/ADIIS
   @DF-RHF iter   2:   -76.02879223084487   -5.25378e-02   1.66232e-03 DIIS/ADIIS
   @DF-RHF iter   3:   -76.06017874404280   -3.13865e-02   1.13451e-04 DIIS/ADIIS
   @DF-RHF iter   4:   -76.06056907734559   -3.90333e-04   2.69257e-05 DIIS
   @DF-RHF iter   5:   -76.06059321809647   -2.41408e-05   6.12891e-06 DIIS
   @DF-RHF iter   6:   -76.06059519728755   -1.97919e-06   1.34298e-06 DIIS
   @DF-RHF iter   7:   -76.06059530199775   -1.04710e-07   2.42951e-07 DIIS
   @DF-RHF iter   8:   -76.06059530501085   -3.01310e-09   4.04760e-08 DIIS
   @DF-RHF iter   9:   -76.06059530507675   -6.58957e-11   9.96098e-09 DIIS
  Energy and wave function converged.


  ==> Post-Iterations <==

    Orbital Energies [Eh]
    ---------------------

    Doubly Occupied:                                                      

       1A    -20.567373     2A     -1.352856     3A     -0.716390  
       4A     -0.585032     5A     -0.510281  

    Virtual:                                                              

       6A      0.007524     7A      0.011450     8A      0.016175  
       9A      0.017081    10A      0.025091    11A      0.025750  
      12A      0.026747    13A      0.031912    14A      0.041462  
      15A      0.054906    16A      0.055041    17A      0.057474  
      18A      0.061036    19A      0.063866    20A      0.070103  
      21A      0.071643    22A      0.073213    23A      0.083953  
      24A      0.086014    25A      0.086936    26A      0.087770  
      27A      0.088228    28A      0.095051    29A      0.101366  
      30A      0.110103    31A      0.110362    32A      0.113059  
      33A      0.119298    34A      0.147583    35A      0.150452  
      36A      0.164537    37A      0.166064    38A      0.172656  
      39A      0.177083    40A      0.190961    41A      0.193683  
      42A      0.206793    43A      0.244242    44A      0.244356  
      45A      0.249659    46A      0.254161    47A      0.255805  
      48A      0.266857    49A      0.270430    50A      0.283150  
      51A      0.285988    52A      0.289171    53A      0.292815  
      54A      0.299767    55A      0.308443    56A      0.310256  
      57A      0.315399    58A      0.327822    59A      0.330644  
      60A      0.333134    61A      0.340902    62A      0.341545  
      63A      0.350093    64A      0.361720    65A      0.365574  
      66A      0.378987    67A      0.381968    68A      0.392671  
      69A      0.408793    70A      0.426210    71A      0.427829  
      72A      0.435521    73A      0.438529    74A      0.457753  
      75A      0.459028    76A      0.482591    77A      0.486602  
      78A      0.510460    79A      0.512628    80A      0.530916  
      81A      0.543307    82A      0.584954    83A      0.638105  
      84A      0.663846    85A      0.699423    86A      0.710446  
      87A      0.722427    88A      0.745543    89A      0.746666  
      90A      0.749898    91A      0.750701    92A      0.758066  
      93A      0.766440    94A      0.770524    95A      0.774359  
      96A      0.776428    97A      0.777739    98A      0.787355  
      99A      0.791713   100A      0.811104   101A      0.828414  
     102A      0.829177   103A      0.861589   104A      0.878238  
     105A      0.898302   106A      0.911294   107A      0.913439  
     108A      0.917757   109A      0.938236   110A      0.957118  
     111A      0.969663   112A      0.984994   113A      0.988135  
     114A      1.015520   115A      1.017851   116A      1.025987  
     117A      1.079784   118A      1.109556   119A      1.141355  
     120A      1.160377   121A      1.188781   122A      1.261300  
     123A      1.267074   124A      1.302119   125A      1.319557  
     126A      1.323245   127A      1.382323   128A      1.584106  
     129A      1.637370   130A      1.699869   131A      1.740589  
     132A      1.750467   133A      1.852886   134A      1.962747  
     135A      2.061188   136A      2.155681   137A      2.371304  
     138A      2.422860   139A      2.473221   140A      2.500180  
     141A      2.584451   142A      2.599620   143A      2.725342  
     144A      2.830641   145A      2.886802   146A      2.899346  
     147A      2.903986   148A      2.930829   149A      3.750220  
     150A      3.849326   151A      4.056642   152A      4.237150  
     153A      4.282490   154A      4.286119   155A      4.375345  
     156A      4.462394   157A      4.535419   158A      4.539911  
     159A      4.574929   160A      4.611461   161A      4.656707  
     162A      4.802571   163A      4.904287   164A      5.169337  
     165A      5.178057   166A      5.297765   167A      5.361087  
     168A      5.556533   169A      5.832327   170A      6.260874  
     171A      6.349842   172A      6.372660   173A      6.392313  
     174A      6.476930   175A      6.585578   176A      6.608089  
     177A      6.712603   178A      6.869290   179A      6.932856  
     180A      7.215017   181A      7.331498   182A      7.331926  
     183A      7.405684   184A      7.425196   185A      7.444656  
     186A      7.618050   187A      7.930397   188A      7.963671  
     189A      8.860218   190A     15.983808   191A     64.478688  
     192A     64.526177  

    Final Occupation by Irrep:
              A 
    DOCC [     5 ]
    NA   [     5 ]
    NB   [     5 ]

  @DF-RHF Final Energy:   -76.06059530507675

   => Energetics <=

    Nuclear Repulsion Energy =              9.1801978479270687
    One-Electron Energy =                -123.0177198220191741
    Two-Electron Energy =                  37.7769266690153742
    Total Energy =                        -76.0605953050767312

Computation Completed


Properties will be evaluated at   0.000000,   0.000000,   0.000000 [a0]

Properties computed using the SCF density matrix


 Multipole Moments:

 ------------------------------------------------------------------------------------
     Multipole            Electronic (a.u.)      Nuclear  (a.u.)        Total (a.u.)
 ------------------------------------------------------------------------------------

 L = 1.  Multiply by 2.5417464519 to convert [e a0] to [Debye]
 Dipole X            :          1.4429804           -2.2243513           -0.7813709
 Dipole Y            :         -0.0000000            0.0000000           -0.0000000
 Dipole Z            :         -0.0000000            0.0000000           -0.0000000
 Magnitude           :                                                    0.7813709

 ------------------------------------------------------------------------------------

*** tstop() called on ddmfs1 at Mon Jan 22 12:32:33 2024
Module time:
	user time   =      24.50 seconds =       0.41 minutes
	system time =       2.90 seconds =       0.05 minutes
	total time  =          2 seconds =       0.03 minutes
Total time:
	user time   =      24.50 seconds =       0.41 minutes
	system time =       2.90 seconds =       0.05 minutes
	total time  =          2 seconds =       0.03 minutes

*** tstart() called on ddmfs1
*** at Mon Jan 22 12:32:33 2024


  //>>>>>>>>>>>>>>>>>>>>>>>>>>>>>>>>>>>//
  //               DFMP2               //
  //<<<<<<<<<<<<<<<<<<<<<<<<<<<<<<<<<<<//

   => Loading Basis Set <=

    Name: (AUG-CC-PVTZ AUX)
    Role: RIFIT
    Keyword: DF_BASIS_MP2
    atoms 1   entry O          line   264 file /ddmfs1b/softs/psi4conda/share/psi4/basis/aug-cc-pvtz-ri.gbs 
    atoms 2-3 entry H          line    30 file /ddmfs1b/softs/psi4conda/share/psi4/basis/aug-cc-pvtz-ri.gbs 
    atoms 4-5 entry NA         line   610 file /ddmfs1b/softs/psi4conda/share/psi4/basis/def2-qzvpp-ri.gbs 

	 --------------------------------------------------------
	                          DF-MP2                         
	      2nd-Order Density-Fitted Moller-Plesset Theory     
	              RMP2 Wavefunction,  20 Threads             
	                                                         
	        Rob Parrish, Justin Turney, Andy Simmonett,      
	           Ed Hohenstein, and C. David Sherrill          
	 --------------------------------------------------------

   => Auxiliary Basis Set <=

  Basis Set: (AUG-CC-PVTZ AUX)
    Blend: AUG-CC-PVTZ-RI + DEF2-QZVPP-RI
    Number of shells: 140
    Number of basis functions: 530
    Number of Cartesian functions: 674
    Spherical Harmonics?: true
    Max angular momentum: 4

	 --------------------------------------------------------
	                 NBF =   192, NAUX =   530
	 --------------------------------------------------------
	   CLASS    FOCC     OCC    AOCC    AVIR     VIR    FVIR
	   PAIRS       0       5       5     187     187       0
	 --------------------------------------------------------

	-----------------------------------------------------------
	 ==================> DF-MP2 Energies <==================== 
	-----------------------------------------------------------
	 Reference Energy          =     -76.0605953050767454 [Eh]
	 Singles Energy            =      -0.0000000000000000 [Eh]
	 Same-Spin Energy          =      -0.0684283505945204 [Eh]
	 Opposite-Spin Energy      =      -0.2157136745997996 [Eh]
	 Correlation Energy        =      -0.2841420251943200 [Eh]
	 Total Energy              =     -76.3447373302710588 [Eh]
	-----------------------------------------------------------
	 ================> DF-SCS-MP2 Energies <================== 
	-----------------------------------------------------------
	 SCS Same-Spin Scale       =       0.3333333333333333 [-]
	 SCS Opposite-Spin Scale   =       1.2000000000000000 [-]
	 SCS Same-Spin Energy      =      -0.0228094501981735 [Eh]
	 SCS Opposite-Spin Energy  =      -0.2588564095197595 [Eh]
	 SCS Correlation Energy    =      -0.2816658597179329 [Eh]
	 SCS Total Energy          =     -76.3422611647946781 [Eh]
	-----------------------------------------------------------


*** tstop() called on ddmfs1 at Mon Jan 22 12:32:39 2024
Module time:
	user time   =      13.48 seconds =       0.22 minutes
	system time =       1.02 seconds =       0.02 minutes
	total time  =          6 seconds =       0.10 minutes
Total time:
	user time   =      38.00 seconds =       0.63 minutes
	system time =       3.92 seconds =       0.07 minutes
	total time  =          8 seconds =       0.13 minutes

    Psi4 stopped on: Monday, 22 January 2024 12:32PM
    Psi4 wall time for execution: 0:00:07.82

*** Psi4 exiting successfully. Buy a developer a beer!
