
    -----------------------------------------------------------------------
          Psi4: An Open-Source Ab Initio Electronic Structure Package
                               Psi4 1.8.2 release

                         Git: Rev {} zzzzzzz 


    D. G. A. Smith, L. A. Burns, A. C. Simmonett, R. M. Parrish,
    M. C. Schieber, R. Galvelis, P. Kraus, H. Kruse, R. Di Remigio,
    A. Alenaizan, A. M. James, S. Lehtola, J. P. Misiewicz, M. Scheurer,
    R. A. Shaw, J. B. Schriber, Y. Xie, Z. L. Glick, D. A. Sirianni,
    J. S. O'Brien, J. M. Waldrop, A. Kumar, E. G. Hohenstein,
    B. P. Pritchard, B. R. Brooks, H. F. Schaefer III, A. Yu. Sokolov,
    K. Patkowski, A. E. DePrince III, U. Bozkaya, R. A. King,
    F. A. Evangelista, J. M. Turney, T. D. Crawford, C. D. Sherrill,
    J. Chem. Phys. 152(18) 184108 (2020). https://doi.org/10.1063/5.0006002

                            Additional Code Authors
    E. T. Seidl, C. L. Janssen, E. F. Valeev, M. L. Leininger,
    J. F. Gonthier, R. M. Richard, H. R. McAlexander, M. Saitow, X. Wang,
    P. Verma, M. H. Lechner, A. Jiang, S. Behnle, A. G. Heide,
    M. F. Herbst, and D. L. Poole

             Previous Authors, Complete List of Code Contributors,
                       and Citations for Specific Modules
    https://github.com/psi4/psi4/blob/master/codemeta.json
    https://github.com/psi4/psi4/graphs/contributors
    http://psicode.org/psi4manual/master/introduction.html#citing-psifour

    -----------------------------------------------------------------------


    Psi4 started on: Monday, 22 January 2024 05:19AM

    Process ID: 33432
    Host:       ddmfs1
    PSIDATADIR: /ddmfs1b/softs/psi4conda/share/psi4
    Memory:     500.0 MiB
    Threads:    20
    
  ==> Input File <==

--------------------------------------------------------------------------
MEMORY 60 GB

molecule dimer {
0 1
O      0.000000     0.000000     0.000000
H     -0.588538     0.000000     0.756918
H     -0.588538     0.000000    -0.756918
--
1 1
Na     2.053438     2.053438     0.000000
--
1 1
Na     2.053438    -2.053438     0.000000

units ang
no_reorient
no_com
symmetry c1
}

set {
basis        aug-cc-pVTZ
scf_type     df
}

energy("mp2", bsse_type="cp")
--------------------------------------------------------------------------

  Memory set to  55.879 GiB by Python driver.

Scratch directory: /ddmfs1a/scratch/

  //>>>>>>>>>>>>>>>>>>>>>>>>>>>>>>>>>>>>>>>>//
  // ManyBody Setup: N-Body Levels [1, 2, 3]//
  //<<<<<<<<<<<<<<<<<<<<<<<<<<<<<<<<<<<<<<<<//

        Number of 1-body computations:     3
        Number of 2-body computations:     3
        Number of 3-body computations:     1

    -----------------------------------------------------------------------
          Psi4: An Open-Source Ab Initio Electronic Structure Package
                               Psi4 1.8.2 release

                         Git: Rev {} zzzzzzz 


    D. G. A. Smith, L. A. Burns, A. C. Simmonett, R. M. Parrish,
    M. C. Schieber, R. Galvelis, P. Kraus, H. Kruse, R. Di Remigio,
    A. Alenaizan, A. M. James, S. Lehtola, J. P. Misiewicz, M. Scheurer,
    R. A. Shaw, J. B. Schriber, Y. Xie, Z. L. Glick, D. A. Sirianni,
    J. S. O'Brien, J. M. Waldrop, A. Kumar, E. G. Hohenstein,
    B. P. Pritchard, B. R. Brooks, H. F. Schaefer III, A. Yu. Sokolov,
    K. Patkowski, A. E. DePrince III, U. Bozkaya, R. A. King,
    F. A. Evangelista, J. M. Turney, T. D. Crawford, C. D. Sherrill,
    J. Chem. Phys. 152(18) 184108 (2020). https://doi.org/10.1063/5.0006002

                            Additional Code Authors
    E. T. Seidl, C. L. Janssen, E. F. Valeev, M. L. Leininger,
    J. F. Gonthier, R. M. Richard, H. R. McAlexander, M. Saitow, X. Wang,
    P. Verma, M. H. Lechner, A. Jiang, S. Behnle, A. G. Heide,
    M. F. Herbst, and D. L. Poole

             Previous Authors, Complete List of Code Contributors,
                       and Citations for Specific Modules
    https://github.com/psi4/psi4/blob/master/codemeta.json
    https://github.com/psi4/psi4/graphs/contributors
    http://psicode.org/psi4manual/master/introduction.html#citing-psifour

    -----------------------------------------------------------------------


    Psi4 started on: Monday, 22 January 2024 05:19AM

    Process ID: 33432
    Host:       ddmfs1
    PSIDATADIR: /ddmfs1b/softs/psi4conda/share/psi4
    Memory:     55.9 GiB
    Threads:    20
    
  ==> Input QCSchema <==

--------------------------------------------------------------------------
{'driver': 'energy',
 'extras': {'psiapi': True, 'wfn_qcvars_only': True},
 'id': None,
 'keywords': {'SCF_TYPE': 'DF', 'function_kwargs': {}},
 'model': {'basis': 'aug-cc-pvtz', 'method': 'mp2'},
 'molecule': {'atom_labels': ['', '', '', '', ''],
              'atomic_numbers': [8, 1, 1, 11, 11],
              'extras': {},
              'fix_com': True,
              'fix_orientation': True,
              'fix_symmetry': 'c1',
              'fragment_charges': [0.0, 0.0, 0.0],
              'fragment_multiplicities': [1, 1, 1],
              'fragments': [[0, 1, 2], [3], [4]],
              'geometry': [0.0, 0.0, 0.0, -1.1121756344246994, 0.0, 1.4303677194292883, -1.1121756344246994, 0.0,
                           -1.4303677194292883, 3.8804354356078714, 3.8804354356078714, 0.0, 3.8804354356078714,
                           -3.8804354356078714, 0.0],
              'mass_numbers': [16, 1, 1, 23, 23],
              'masses': [15.99491461957, 1.00782503223, 1.00782503223, 22.989769282, 22.989769282],
              'molecular_charge': 0.0,
              'molecular_multiplicity': 1,
              'name': 'dimer',
              'provenance': {'creator': 'QCElemental',
                             'routine': 'qcelemental.molparse.from_string',
                             'version': '0.26.0'},
              'real': [True, True, True, False, False],
              'schema_name': 'qcschema_molecule',
              'schema_version': 2,
              'symbols': ['O', 'H', 'H', 'Na', 'Na'],
              'validated': True},
 'protocols': {'stdout': True},
 'provenance': {'creator': 'QCElemental', 'routine': 'qcelemental.models.results', 'version': '0.26.0'},
 'schema_name': 'qcschema_input',
 'schema_version': 1}
--------------------------------------------------------------------------

Scratch directory: /ddmfs1a/scratch/
   => Libint2 <=

    Primary   basis highest AM E, G, H:  5, 4, 3
    Auxiliary basis highest AM E, G, H:  6, 5, 4
    Onebody   basis highest AM E, G, H:  6, 5, 4
    Solid Harmonics ordering:            gaussian

*** tstart() called on ddmfs1
*** at Mon Jan 22 05:20:00 2024

   => Loading Basis Set <=

    Name: AUG-CC-PVTZ
    Role: ORBITAL
    Keyword: BASIS
    atoms 1   entry O          line   331 file /ddmfs1b/softs/psi4conda/share/psi4/basis/aug-cc-pvtz.gbs 
    atoms 2-3 entry H          line    40 file /ddmfs1b/softs/psi4conda/share/psi4/basis/aug-cc-pvtz.gbs 
    atoms 4-5 entry NA         line   469 file /ddmfs1b/softs/psi4conda/share/psi4/basis/aug-cc-pvtz.gbs 


         ---------------------------------------------------------
                                   SCF
               by Justin Turney, Rob Parrish, Andy Simmonett
                          and Daniel G. A. Smith
                              RHF Reference
                       20 Threads,  57220 MiB Core
         ---------------------------------------------------------

  ==> Geometry <==

    Molecular point group: c1
    Full point group: C2v

    Geometry (in Bohr), charge = 0, multiplicity = 1:

       Center              X                  Y                   Z               Mass       
    ------------   -----------------  -----------------  -----------------  -----------------
         O            0.000000000000     0.000000000000     0.000000000000    15.994914619570
         H           -1.112175634425     0.000000000000     1.430367719429     1.007825032230
         H           -1.112175634425     0.000000000000    -1.430367719429     1.007825032230
      Gh(NA)          3.880435435608     3.880435435608     0.000000000000    22.989769282000
      Gh(NA)          3.880435435608    -3.880435435608     0.000000000000    22.989769282000

  Running in c1 symmetry.

  Rotational constants: A =      0.08643  B =      0.08613  C =      0.04340 [cm^-1]
  Rotational constants: A =   2591.25550  B =   2582.01244  C =   1301.00252 [MHz]
  Nuclear repulsion =    9.180197847927069

  Charge       = 0
  Multiplicity = 1
  Electrons    = 10
  Nalpha       = 5
  Nbeta        = 5

  ==> Algorithm <==

  SCF Algorithm Type is DF.
  DIIS enabled.
  MOM disabled.
  Fractional occupation disabled.
  Guess Type is SAD.
  Energy threshold   = 1.00e-08
  Density threshold  = 1.00e-08
  Integral threshold = 1.00e-12

  ==> Primary Basis <==

  Basis Set: AUG-CC-PVTZ
    Blend: AUG-CC-PVTZ
    Number of shells: 64
    Number of basis functions: 192
    Number of Cartesian functions: 223
    Spherical Harmonics?: true
    Max angular momentum: 3

   => Loading Basis Set <=

    Name: (AUG-CC-PVTZ AUX)
    Role: JKFIT
    Keyword: DF_BASIS_SCF
    atoms 1   entry O          line   286 file /ddmfs1b/softs/psi4conda/share/psi4/basis/aug-cc-pvtz-jkfit.gbs 
    atoms 2-3 entry H          line    70 file /ddmfs1b/softs/psi4conda/share/psi4/basis/aug-cc-pvtz-jkfit.gbs 
    atoms 4-5 entry NA         line   498 file /ddmfs1b/softs/psi4conda/share/psi4/basis/def2-universal-jkfit.gbs 

  ==> Integral Setup <==

  DFHelper Memory: AOs need 0.130 GiB; user supplied 41.910 GiB. 
  Using in-core AOs.

  ==> MemDFJK: Density-Fitted J/K Matrices <==

    J tasked:                   Yes
    K tasked:                   Yes
    wK tasked:                   No
    OpenMP threads:              20
    Memory [MiB]:             42915
    Algorithm:                 Core
    Schwarz Cutoff:           1E-12
    Mask sparsity (%):       0.0000
    Fitting Condition:        1E-10

   => Auxiliary Basis Set <=

  Basis Set: (AUG-CC-PVTZ AUX)
    Blend: AUG-CC-PVTZ-JKFIT + DEF2-UNIVERSAL-JKFIT
    Number of shells: 126
    Number of basis functions: 420
    Number of Cartesian functions: 515
    Spherical Harmonics?: true
    Max angular momentum: 4

  Minimum eigenvalue in the overlap matrix is 1.3550040548E-04.
  Reciprocal condition number of the overlap matrix is 1.2516188025E-05.
    Using symmetric orthogonalization.

  ==> Pre-Iterations <==

  SCF Guess: Superposition of Atomic Densities via on-the-fly atomic UHF (no occupation information).

   -------------------------
    Irrep   Nso     Nmo    
   -------------------------
     A        192     192 
   -------------------------
    Total     192     192
   -------------------------

  ==> Iterations <==

                           Total Energy        Delta E     RMS |[F,P]|

   @DF-RHF iter SAD:   -75.47651207146124   -7.54765e+01   0.00000e+00 
   @DF-RHF iter   1:   -75.97620813621212   -4.99696e-01   2.44062e-03 DIIS/ADIIS
   @DF-RHF iter   2:   -76.02874250798394   -5.25344e-02   1.66252e-03 DIIS/ADIIS
   @DF-RHF iter   3:   -76.06013909011594   -3.13966e-02   1.13443e-04 DIIS/ADIIS
   @DF-RHF iter   4:   -76.06052933027820   -3.90240e-04   2.69204e-05 DIIS
   @DF-RHF iter   5:   -76.06055345232133   -2.41220e-05   6.12672e-06 DIIS
   @DF-RHF iter   6:   -76.06055542957584   -1.97725e-06   1.34194e-06 DIIS
   @DF-RHF iter   7:   -76.06055553408210   -1.04506e-07   2.42739e-07 DIIS
   @DF-RHF iter   8:   -76.06055553708730   -3.00520e-09   4.04399e-08 DIIS
   @DF-RHF iter   9:   -76.06055553715314   -6.58389e-11   9.95040e-09 DIIS
  Energy and wave function converged.


  ==> Post-Iterations <==

    Orbital Energies [Eh]
    ---------------------

    Doubly Occupied:                                                      

       1A    -20.567448     2A     -1.352897     3A     -0.716431  
       4A     -0.585067     5A     -0.510289  

    Virtual:                                                              

       6A      0.007699     7A      0.011832     8A      0.016056  
       9A      0.017152    10A      0.025118    11A      0.025644  
      12A      0.026449    13A      0.032180    14A      0.042339  
      15A      0.052595    16A      0.054718    17A      0.057503  
      18A      0.060558    19A      0.063314    20A      0.070557  
      21A      0.071570    22A      0.072401    23A      0.082039  
      24A      0.085480    25A      0.085843    26A      0.087355  
      27A      0.088590    28A      0.094652    29A      0.101192  
      30A      0.109227    31A      0.109622    32A      0.112034  
      33A      0.115138    34A      0.148091    35A      0.152353  
      36A      0.161888    37A      0.169115    38A      0.171382  
      39A      0.177931    40A      0.190037    41A      0.197109  
      42A      0.199805    43A      0.235394    44A      0.242574  
      45A      0.243025    46A      0.252697    47A      0.252719  
      48A      0.264029    49A      0.266607    50A      0.278769  
      51A      0.281484    52A      0.284695    53A      0.286965  
      54A      0.294475    55A      0.303101    56A      0.304446  
      57A      0.311756    58A      0.321952    59A      0.322191  
      60A      0.327918    61A      0.335483    62A      0.340144  
      63A      0.343503    64A      0.350625    65A      0.371997  
      66A      0.380809    67A      0.389847    68A      0.390408  
      69A      0.418855    70A      0.418949    71A      0.419280  
      72A      0.424222    73A      0.428200    74A      0.445289  
      75A      0.454902    76A      0.464952    77A      0.476790  
      78A      0.491155    79A      0.502763    80A      0.504556  
      81A      0.527054    82A      0.566687    83A      0.622355  
      84A      0.634087    85A      0.697610    86A      0.709571  
      87A      0.731050    88A      0.737852    89A      0.743604  
      90A      0.746166    91A      0.753577    92A      0.754727  
      93A      0.755803    94A      0.771703    95A      0.772721  
      96A      0.774437    97A      0.774897    98A      0.776428  
      99A      0.777420   100A      0.801419   101A      0.812392  
     102A      0.813968   103A      0.833968   104A      0.851200  
     105A      0.866871   106A      0.885666   107A      0.886344  
     108A      0.900069   109A      0.909690   110A      0.922732  
     111A      0.939218   112A      0.970729   113A      0.979933  
     114A      0.981786   115A      0.985641   116A      1.003105  
     117A      1.068682   118A      1.072736   119A      1.105023  
     120A      1.123718   121A      1.170088   122A      1.243675  
     123A      1.253953   124A      1.270499   125A      1.274001  
     126A      1.311628   127A      1.351602   128A      1.452199  
     129A      1.510457   130A      1.666151   131A      1.695805  
     132A      1.718342   133A      1.848733   134A      1.945270  
     135A      2.044363   136A      2.148477   137A      2.356145  
     138A      2.424243   139A      2.468601   140A      2.473154  
     141A      2.545427   142A      2.557948   143A      2.712682  
     144A      2.803054   145A      2.843355   146A      2.850908  
     147A      2.880110   148A      2.925042   149A      3.729023  
     150A      3.826872   151A      4.047214   152A      4.227434  
     153A      4.230723   154A      4.279111   155A      4.329697  
     156A      4.456088   157A      4.502155   158A      4.524623  
     159A      4.531843   160A      4.570100   161A      4.586364  
     162A      4.796545   163A      4.894090   164A      5.162519  
     165A      5.171111   166A      5.290069   167A      5.355903  
     168A      5.549063   169A      5.854350   170A      6.310514  
     171A      6.351268   172A      6.353845   173A      6.368513  
     174A      6.405012   175A      6.564020   176A      6.568073  
     177A      6.634101   178A      6.795751   179A      6.933459  
     180A      7.211798   181A      7.327549   182A      7.329183  
     183A      7.396102   184A      7.422308   185A      7.426643  
     186A      7.597626   187A      7.927329   188A      7.951032  
     189A      8.847814   190A     15.928285   191A     64.472622  
     192A     64.504259  

    Final Occupation by Irrep:
              A 
    DOCC [     5 ]
    NA   [     5 ]
    NB   [     5 ]

  @DF-RHF Final Energy:   -76.06055553715314

   => Energetics <=

    Nuclear Repulsion Energy =              9.1801978479270687
    One-Electron Energy =                -123.0172393569038292
    Two-Electron Energy =                  37.7764859718236181
    Total Energy =                        -76.0605555371531494

Computation Completed


Properties will be evaluated at   0.000000,   0.000000,   0.000000 [a0]

Properties computed using the SCF density matrix


 Multipole Moments:

 ------------------------------------------------------------------------------------
     Multipole            Electronic (a.u.)      Nuclear  (a.u.)        Total (a.u.)
 ------------------------------------------------------------------------------------

 L = 1.  Multiply by 2.5417464519 to convert [e a0] to [Debye]
 Dipole X            :          1.4426310           -2.2243513           -0.7817203
 Dipole Y            :          0.0000000            0.0000000            0.0000000
 Dipole Z            :         -0.0000000            0.0000000           -0.0000000
 Magnitude           :                                                    0.7817203

 ------------------------------------------------------------------------------------

*** tstop() called on ddmfs1 at Mon Jan 22 05:20:02 2024
Module time:
	user time   =      25.29 seconds =       0.42 minutes
	system time =       2.84 seconds =       0.05 minutes
	total time  =          2 seconds =       0.03 minutes
Total time:
	user time   =      25.29 seconds =       0.42 minutes
	system time =       2.84 seconds =       0.05 minutes
	total time  =          2 seconds =       0.03 minutes

*** tstart() called on ddmfs1
*** at Mon Jan 22 05:20:02 2024


  //>>>>>>>>>>>>>>>>>>>>>>>>>>>>>>>>>>>//
  //               DFMP2               //
  //<<<<<<<<<<<<<<<<<<<<<<<<<<<<<<<<<<<//

   => Loading Basis Set <=

    Name: (AUG-CC-PVTZ AUX)
    Role: RIFIT
    Keyword: DF_BASIS_MP2
    atoms 1   entry O          line   264 file /ddmfs1b/softs/psi4conda/share/psi4/basis/aug-cc-pvtz-ri.gbs 
    atoms 2-3 entry H          line    30 file /ddmfs1b/softs/psi4conda/share/psi4/basis/aug-cc-pvtz-ri.gbs 
    atoms 4-5 entry NA         line   610 file /ddmfs1b/softs/psi4conda/share/psi4/basis/def2-qzvpp-ri.gbs 

	 --------------------------------------------------------
	                          DF-MP2                         
	      2nd-Order Density-Fitted Moller-Plesset Theory     
	              RMP2 Wavefunction,  20 Threads             
	                                                         
	        Rob Parrish, Justin Turney, Andy Simmonett,      
	           Ed Hohenstein, and C. David Sherrill          
	 --------------------------------------------------------

   => Auxiliary Basis Set <=

  Basis Set: (AUG-CC-PVTZ AUX)
    Blend: AUG-CC-PVTZ-RI + DEF2-QZVPP-RI
    Number of shells: 140
    Number of basis functions: 530
    Number of Cartesian functions: 674
    Spherical Harmonics?: true
    Max angular momentum: 4

	 --------------------------------------------------------
	                 NBF =   192, NAUX =   530
	 --------------------------------------------------------
	   CLASS    FOCC     OCC    AOCC    AVIR     VIR    FVIR
	   PAIRS       0       5       5     187     187       0
	 --------------------------------------------------------

	-----------------------------------------------------------
	 ==================> DF-MP2 Energies <==================== 
	-----------------------------------------------------------
	 Reference Energy          =     -76.0605555371531352 [Eh]
	 Singles Energy            =      -0.0000000000000000 [Eh]
	 Same-Spin Energy          =      -0.0684174696132844 [Eh]
	 Opposite-Spin Energy      =      -0.2156111084841711 [Eh]
	 Correlation Energy        =      -0.2840285780974555 [Eh]
	 Total Energy              =     -76.3445841152505977 [Eh]
	-----------------------------------------------------------
	 ================> DF-SCS-MP2 Energies <================== 
	-----------------------------------------------------------
	 SCS Same-Spin Scale       =       0.3333333333333333 [-]
	 SCS Opposite-Spin Scale   =       1.2000000000000000 [-]
	 SCS Same-Spin Energy      =      -0.0228058232044281 [Eh]
	 SCS Opposite-Spin Energy  =      -0.2587333301810054 [Eh]
	 SCS Correlation Energy    =      -0.2815391533854335 [Eh]
	 SCS Total Energy          =     -76.3420946905385733 [Eh]
	-----------------------------------------------------------


*** tstop() called on ddmfs1 at Mon Jan 22 05:20:08 2024
Module time:
	user time   =      13.85 seconds =       0.23 minutes
	system time =       0.99 seconds =       0.02 minutes
	total time  =          6 seconds =       0.10 minutes
Total time:
	user time   =      39.16 seconds =       0.65 minutes
	system time =       3.84 seconds =       0.06 minutes
	total time  =          8 seconds =       0.13 minutes

    Psi4 stopped on: Monday, 22 January 2024 05:20AM
    Psi4 wall time for execution: 0:00:07.78


    -----------------------------------------------------------------------
          Psi4: An Open-Source Ab Initio Electronic Structure Package
                               Psi4 1.8.2 release

                         Git: Rev {} zzzzzzz 


    D. G. A. Smith, L. A. Burns, A. C. Simmonett, R. M. Parrish,
    M. C. Schieber, R. Galvelis, P. Kraus, H. Kruse, R. Di Remigio,
    A. Alenaizan, A. M. James, S. Lehtola, J. P. Misiewicz, M. Scheurer,
    R. A. Shaw, J. B. Schriber, Y. Xie, Z. L. Glick, D. A. Sirianni,
    J. S. O'Brien, J. M. Waldrop, A. Kumar, E. G. Hohenstein,
    B. P. Pritchard, B. R. Brooks, H. F. Schaefer III, A. Yu. Sokolov,
    K. Patkowski, A. E. DePrince III, U. Bozkaya, R. A. King,
    F. A. Evangelista, J. M. Turney, T. D. Crawford, C. D. Sherrill,
    J. Chem. Phys. 152(18) 184108 (2020). https://doi.org/10.1063/5.0006002

                            Additional Code Authors
    E. T. Seidl, C. L. Janssen, E. F. Valeev, M. L. Leininger,
    J. F. Gonthier, R. M. Richard, H. R. McAlexander, M. Saitow, X. Wang,
    P. Verma, M. H. Lechner, A. Jiang, S. Behnle, A. G. Heide,
    M. F. Herbst, and D. L. Poole

             Previous Authors, Complete List of Code Contributors,
                       and Citations for Specific Modules
    https://github.com/psi4/psi4/blob/master/codemeta.json
    https://github.com/psi4/psi4/graphs/contributors
    http://psicode.org/psi4manual/master/introduction.html#citing-psifour

    -----------------------------------------------------------------------


    Psi4 started on: Monday, 22 January 2024 05:19AM

    Process ID: 33432
    Host:       ddmfs1
    PSIDATADIR: /ddmfs1b/softs/psi4conda/share/psi4
    Memory:     55.9 GiB
    Threads:    20
    
  ==> Input QCSchema <==

--------------------------------------------------------------------------
{'driver': 'energy',
 'extras': {'psiapi': True, 'wfn_qcvars_only': True},
 'id': None,
 'keywords': {'SCF_TYPE': 'DF', 'function_kwargs': {}},
 'model': {'basis': 'aug-cc-pvtz', 'method': 'mp2'},
 'molecule': {'atom_labels': ['', '', '', '', ''],
              'atomic_numbers': [8, 1, 1, 11, 11],
              'extras': {},
              'fix_com': True,
              'fix_orientation': True,
              'fix_symmetry': 'c1',
              'fragment_charges': [0.0, 1.0, 0.0],
              'fragment_multiplicities': [1, 1, 1],
              'fragments': [[0, 1, 2], [3], [4]],
              'geometry': [0.0, 0.0, 0.0, -1.1121756344246994, 0.0, 1.4303677194292883, -1.1121756344246994, 0.0,
                           -1.4303677194292883, 3.8804354356078714, 3.8804354356078714, 0.0, 3.8804354356078714,
                           -3.8804354356078714, 0.0],
              'mass_numbers': [16, 1, 1, 23, 23],
              'masses': [15.99491461957, 1.00782503223, 1.00782503223, 22.989769282, 22.989769282],
              'molecular_charge': 1.0,
              'molecular_multiplicity': 1,
              'name': 'dimer',
              'provenance': {'creator': 'QCElemental',
                             'routine': 'qcelemental.molparse.from_string',
                             'version': '0.26.0'},
              'real': [False, False, False, True, False],
              'schema_name': 'qcschema_molecule',
              'schema_version': 2,
              'symbols': ['O', 'H', 'H', 'Na', 'Na'],
              'validated': True},
 'protocols': {'stdout': True},
 'provenance': {'creator': 'QCElemental', 'routine': 'qcelemental.models.results', 'version': '0.26.0'},
 'schema_name': 'qcschema_input',
 'schema_version': 1}
--------------------------------------------------------------------------

Scratch directory: /ddmfs1a/scratch/
   => Libint2 <=

    Primary   basis highest AM E, G, H:  5, 4, 3
    Auxiliary basis highest AM E, G, H:  6, 5, 4
    Onebody   basis highest AM E, G, H:  6, 5, 4
    Solid Harmonics ordering:            gaussian

*** tstart() called on ddmfs1
*** at Mon Jan 22 05:20:08 2024

   => Loading Basis Set <=

    Name: AUG-CC-PVTZ
    Role: ORBITAL
    Keyword: BASIS
    atoms 1   entry O          line   331 file /ddmfs1b/softs/psi4conda/share/psi4/basis/aug-cc-pvtz.gbs 
    atoms 2-3 entry H          line    40 file /ddmfs1b/softs/psi4conda/share/psi4/basis/aug-cc-pvtz.gbs 
    atoms 4-5 entry NA         line   469 file /ddmfs1b/softs/psi4conda/share/psi4/basis/aug-cc-pvtz.gbs 


         ---------------------------------------------------------
                                   SCF
               by Justin Turney, Rob Parrish, Andy Simmonett
                          and Daniel G. A. Smith
                              RHF Reference
                       20 Threads,  57220 MiB Core
         ---------------------------------------------------------

  ==> Geometry <==

    Molecular point group: c1
    Full point group: Cs

    Geometry (in Bohr), charge = 1, multiplicity = 1:

       Center              X                  Y                   Z               Mass       
    ------------   -----------------  -----------------  -----------------  -----------------
      Gh(O)           0.000000000000     0.000000000000     0.000000000000    15.994914619570
      Gh(H)          -1.112175634425     0.000000000000     1.430367719429     1.007825032230
      Gh(H)          -1.112175634425     0.000000000000    -1.430367719429     1.007825032230
         NA           3.880435435608     3.880435435608     0.000000000000    22.989769282000
      Gh(NA)          3.880435435608    -3.880435435608     0.000000000000    22.989769282000

  Running in c1 symmetry.

  Rotational constants: A =      0.08643  B =      0.08613  C =      0.04340 [cm^-1]
  Rotational constants: A =   2591.25550  B =   2582.01244  C =   1301.00252 [MHz]
  Nuclear repulsion =    0.000000000000000

  Charge       = 1
  Multiplicity = 1
  Electrons    = 10
  Nalpha       = 5
  Nbeta        = 5

  ==> Algorithm <==

  SCF Algorithm Type is DF.
  DIIS enabled.
  MOM disabled.
  Fractional occupation disabled.
  Guess Type is SAD.
  Energy threshold   = 1.00e-08
  Density threshold  = 1.00e-08
  Integral threshold = 1.00e-12

  ==> Primary Basis <==

  Basis Set: AUG-CC-PVTZ
    Blend: AUG-CC-PVTZ
    Number of shells: 64
    Number of basis functions: 192
    Number of Cartesian functions: 223
    Spherical Harmonics?: true
    Max angular momentum: 3

   => Loading Basis Set <=

    Name: (AUG-CC-PVTZ AUX)
    Role: JKFIT
    Keyword: DF_BASIS_SCF
    atoms 1   entry O          line   286 file /ddmfs1b/softs/psi4conda/share/psi4/basis/aug-cc-pvtz-jkfit.gbs 
    atoms 2-3 entry H          line    70 file /ddmfs1b/softs/psi4conda/share/psi4/basis/aug-cc-pvtz-jkfit.gbs 
    atoms 4-5 entry NA         line   498 file /ddmfs1b/softs/psi4conda/share/psi4/basis/def2-universal-jkfit.gbs 

  ==> Integral Setup <==

  DFHelper Memory: AOs need 0.130 GiB; user supplied 41.910 GiB. 
  Using in-core AOs.

  ==> MemDFJK: Density-Fitted J/K Matrices <==

    J tasked:                   Yes
    K tasked:                   Yes
    wK tasked:                   No
    OpenMP threads:              20
    Memory [MiB]:             42915
    Algorithm:                 Core
    Schwarz Cutoff:           1E-12
    Mask sparsity (%):       0.0000
    Fitting Condition:        1E-10

   => Auxiliary Basis Set <=

  Basis Set: (AUG-CC-PVTZ AUX)
    Blend: AUG-CC-PVTZ-JKFIT + DEF2-UNIVERSAL-JKFIT
    Number of shells: 126
    Number of basis functions: 420
    Number of Cartesian functions: 515
    Spherical Harmonics?: true
    Max angular momentum: 4

  Minimum eigenvalue in the overlap matrix is 1.3550040548E-04.
  Reciprocal condition number of the overlap matrix is 1.2516188025E-05.
    Using symmetric orthogonalization.

  ==> Pre-Iterations <==

  SCF Guess: Superposition of Atomic Densities via on-the-fly atomic UHF (no occupation information).

   -------------------------
    Irrep   Nso     Nmo    
   -------------------------
     A        192     192 
   -------------------------
    Total     192     192
   -------------------------

  ==> Iterations <==

                           Total Energy        Delta E     RMS |[F,P]|

   @DF-RHF iter SAD:  -161.74558226114823   -1.61746e+02   0.00000e+00 
   @DF-RHF iter   1:  -161.67601931349182    6.95629e-02   3.01696e-05 DIIS
   @DF-RHF iter   2:  -161.67603710391160   -1.77904e-05   5.83728e-06 DIIS
   @DF-RHF iter   3:  -161.67603755251437   -4.48603e-07   2.25346e-07 DIIS
   @DF-RHF iter   4:  -161.67603755325283   -7.38453e-10   1.66276e-08 DIIS
   @DF-RHF iter   5:  -161.67603755325655   -3.72324e-12   1.07710e-09 DIIS
  Energy and wave function converged.


  ==> Post-Iterations <==

    Orbital Energies [Eh]
    ---------------------

    Doubly Occupied:                                                      

       1A    -40.762998     2A     -3.074988     3A     -1.798244  
       4A     -1.798160     5A     -1.798133  

    Virtual:                                                              

       6A     -0.181838     7A     -0.109446     8A     -0.109439  
       9A     -0.109437    10A     -0.070059    11A     -0.054667  
      12A     -0.054345    13A     -0.054287    14A     -0.050817  
      15A     -0.050792    16A     -0.049804    17A     -0.049097  
      18A     -0.049062    19A     -0.029542    20A     -0.025800  
      21A     -0.025139    22A     -0.024977    23A     -0.022236  
      24A     -0.010830    25A     -0.010707    26A     -0.008614  
      27A     -0.008547    28A     -0.003040    29A      0.000300  
      30A      0.001397    31A      0.005912    32A      0.007076  
      33A      0.015887    34A      0.024741    35A      0.026683  
      36A      0.028082    37A      0.034424    38A      0.040633  
      39A      0.041921    40A      0.048812    41A      0.050642  
      42A      0.073189    43A      0.076552    44A      0.080338  
      45A      0.087154    46A      0.095869    47A      0.100506  
      48A      0.101809    49A      0.113265    50A      0.123068  
      51A      0.130361    52A      0.143395    53A      0.149931  
      54A      0.152691    55A      0.155901    56A      0.157685  
      57A      0.163971    58A      0.165895    59A      0.171938  
      60A      0.185793    61A      0.201863    62A      0.202646  
      63A      0.203275    64A      0.209547    65A      0.211968  
      66A      0.224941    67A      0.226742    68A      0.231422  
      69A      0.241512    70A      0.261281    71A      0.280612  
      72A      0.287068    73A      0.292298    74A      0.296829  
      75A      0.304389    76A      0.305059    77A      0.317453  
      78A      0.322658    79A      0.328843    80A      0.342309  
      81A      0.385696    82A      0.390006    83A      0.401280  
      84A      0.413301    85A      0.420705    86A      0.420919  
      87A      0.446631    88A      0.482339    89A      0.492765  
      90A      0.498924    91A      0.507358    92A      0.508800  
      93A      0.523024    94A      0.525767    95A      0.554696  
      96A      0.589923    97A      0.594922    98A      0.614048  
      99A      0.626755   100A      0.645201   101A      0.655606  
     102A      0.661419   103A      0.662682   104A      0.675364  
     105A      0.685086   106A      0.698425   107A      0.713065  
     108A      0.729135   109A      0.753859   110A      0.755772  
     111A      0.792202   112A      0.800595   113A      0.818996  
     114A      0.821377   115A      0.833901   116A      0.899259  
     117A      0.905539   118A      0.932927   119A      0.983008  
     120A      0.990921   121A      1.026462   122A      1.073863  
     123A      1.143128   124A      1.151832   125A      1.162601  
     126A      1.195516   127A      1.215386   128A      1.402065  
     129A      1.442124   130A      1.653670   131A      1.677693  
     132A      1.700561   133A      1.728994   134A      1.801759  
     135A      1.877872   136A      1.937758   137A      2.224045  
     138A      2.297228   139A      2.382110   140A      2.409669  
     141A      2.421312   142A      2.425981   143A      2.623555  
     144A      2.693821   145A      2.708465   146A      3.050807  
     147A      3.092264   148A      3.176964   149A      3.190282  
     150A      3.229010   151A      3.481376   152A      3.534554  
     153A      4.219986   154A      4.327824   155A      4.367201  
     156A      4.431254   157A      4.493007   158A      4.531686  
     159A      4.600880   160A      4.787704   161A      4.800382  
     162A      4.865603   163A      5.060875   164A      5.394667  
     165A      5.479686   166A      5.498647   167A      5.732301  
     168A      5.974422   169A      6.213433   170A      6.232561  
     171A      6.240150   172A      6.456088   173A      6.573261  
     174A      6.929071   175A      7.512827   176A      7.652942  
     177A      7.944246   178A      7.996556   179A      8.112574  
     180A      8.585083   181A      8.675598   182A      9.579403  
     183A      9.826322   184A      9.838587   185A     10.059664  
     186A     11.073267   187A     11.553428   188A     12.036126  
     189A     13.416459   190A     13.668349   191A     64.338007  
     192A     64.738749  

    Final Occupation by Irrep:
              A 
    DOCC [     5 ]
    NA   [     5 ]
    NB   [     5 ]

  @DF-RHF Final Energy:  -161.67603755325655

   => Energetics <=

    Nuclear Repulsion Energy =              0.0000000000000000
    One-Electron Energy =                -224.8870292191557780
    Two-Electron Energy =                  63.2109916658992219
    Total Energy =                       -161.6760375532565490

Computation Completed


Properties will be evaluated at   0.000000,   0.000000,   0.000000 [a0]

Properties computed using the SCF density matrix


 Multipole Moments:

 ------------------------------------------------------------------------------------
     Multipole            Electronic (a.u.)      Nuclear  (a.u.)        Total (a.u.)
 ------------------------------------------------------------------------------------

 L = 1.  Multiply by 2.5417464519 to convert [e a0] to [Debye]
 Dipole X            :        -38.8047137           42.6847898            3.8800761
 Dipole Y            :        -38.8048078           42.6847898            3.8799820
 Dipole Z            :         -0.0000000            0.0000000           -0.0000000
 Magnitude           :                                                    5.4871897

 ------------------------------------------------------------------------------------

*** tstop() called on ddmfs1 at Mon Jan 22 05:20:10 2024
Module time:
	user time   =      28.15 seconds =       0.47 minutes
	system time =       4.09 seconds =       0.07 minutes
	total time  =          2 seconds =       0.03 minutes
Total time:
	user time   =      68.47 seconds =       1.14 minutes
	system time =       7.97 seconds =       0.13 minutes
	total time  =         10 seconds =       0.17 minutes

*** tstart() called on ddmfs1
*** at Mon Jan 22 05:20:10 2024


  //>>>>>>>>>>>>>>>>>>>>>>>>>>>>>>>>>>>//
  //               DFMP2               //
  //<<<<<<<<<<<<<<<<<<<<<<<<<<<<<<<<<<<//

   => Loading Basis Set <=

    Name: (AUG-CC-PVTZ AUX)
    Role: RIFIT
    Keyword: DF_BASIS_MP2
    atoms 1   entry O          line   264 file /ddmfs1b/softs/psi4conda/share/psi4/basis/aug-cc-pvtz-ri.gbs 
    atoms 2-3 entry H          line    30 file /ddmfs1b/softs/psi4conda/share/psi4/basis/aug-cc-pvtz-ri.gbs 
    atoms 4-5 entry NA         line   610 file /ddmfs1b/softs/psi4conda/share/psi4/basis/def2-qzvpp-ri.gbs 

	 --------------------------------------------------------
	                          DF-MP2                         
	      2nd-Order Density-Fitted Moller-Plesset Theory     
	              RMP2 Wavefunction,  20 Threads             
	                                                         
	        Rob Parrish, Justin Turney, Andy Simmonett,      
	           Ed Hohenstein, and C. David Sherrill          
	 --------------------------------------------------------

   => Auxiliary Basis Set <=

  Basis Set: (AUG-CC-PVTZ AUX)
    Blend: AUG-CC-PVTZ-RI + DEF2-QZVPP-RI
    Number of shells: 140
    Number of basis functions: 530
    Number of Cartesian functions: 674
    Spherical Harmonics?: true
    Max angular momentum: 4

	 --------------------------------------------------------
	                 NBF =   192, NAUX =   530
	 --------------------------------------------------------
	   CLASS    FOCC     OCC    AOCC    AVIR     VIR    FVIR
	   PAIRS       0       5       5     187     187       0
	 --------------------------------------------------------

	-----------------------------------------------------------
	 ==================> DF-MP2 Energies <==================== 
	-----------------------------------------------------------
	 Reference Energy          =    -161.6760375532565490 [Eh]
	 Singles Energy            =      -0.0000000000000000 [Eh]
	 Same-Spin Energy          =      -0.0023860081312962 [Eh]
	 Opposite-Spin Energy      =      -0.0091138178887180 [Eh]
	 Correlation Energy        =      -0.0114998260200142 [Eh]
	 Total Energy              =    -161.6875373792765629 [Eh]
	-----------------------------------------------------------
	 ================> DF-SCS-MP2 Energies <================== 
	-----------------------------------------------------------
	 SCS Same-Spin Scale       =       0.3333333333333333 [-]
	 SCS Opposite-Spin Scale   =       1.2000000000000000 [-]
	 SCS Same-Spin Energy      =      -0.0007953360437654 [Eh]
	 SCS Opposite-Spin Energy  =      -0.0109365814664616 [Eh]
	 SCS Correlation Energy    =      -0.0117319175102270 [Eh]
	 SCS Total Energy          =    -161.6877694707667672 [Eh]
	-----------------------------------------------------------


*** tstop() called on ddmfs1 at Mon Jan 22 05:20:15 2024
Module time:
	user time   =      13.64 seconds =       0.23 minutes
	system time =       1.00 seconds =       0.02 minutes
	total time  =          5 seconds =       0.08 minutes
Total time:
	user time   =      82.12 seconds =       1.37 minutes
	system time =       8.97 seconds =       0.15 minutes
	total time  =         15 seconds =       0.25 minutes

    Psi4 stopped on: Monday, 22 January 2024 05:20AM
    Psi4 wall time for execution: 0:00:07.78


    -----------------------------------------------------------------------
          Psi4: An Open-Source Ab Initio Electronic Structure Package
                               Psi4 1.8.2 release

                         Git: Rev {} zzzzzzz 


    D. G. A. Smith, L. A. Burns, A. C. Simmonett, R. M. Parrish,
    M. C. Schieber, R. Galvelis, P. Kraus, H. Kruse, R. Di Remigio,
    A. Alenaizan, A. M. James, S. Lehtola, J. P. Misiewicz, M. Scheurer,
    R. A. Shaw, J. B. Schriber, Y. Xie, Z. L. Glick, D. A. Sirianni,
    J. S. O'Brien, J. M. Waldrop, A. Kumar, E. G. Hohenstein,
    B. P. Pritchard, B. R. Brooks, H. F. Schaefer III, A. Yu. Sokolov,
    K. Patkowski, A. E. DePrince III, U. Bozkaya, R. A. King,
    F. A. Evangelista, J. M. Turney, T. D. Crawford, C. D. Sherrill,
    J. Chem. Phys. 152(18) 184108 (2020). https://doi.org/10.1063/5.0006002

                            Additional Code Authors
    E. T. Seidl, C. L. Janssen, E. F. Valeev, M. L. Leininger,
    J. F. Gonthier, R. M. Richard, H. R. McAlexander, M. Saitow, X. Wang,
    P. Verma, M. H. Lechner, A. Jiang, S. Behnle, A. G. Heide,
    M. F. Herbst, and D. L. Poole

             Previous Authors, Complete List of Code Contributors,
                       and Citations for Specific Modules
    https://github.com/psi4/psi4/blob/master/codemeta.json
    https://github.com/psi4/psi4/graphs/contributors
    http://psicode.org/psi4manual/master/introduction.html#citing-psifour

    -----------------------------------------------------------------------


    Psi4 started on: Monday, 22 January 2024 05:19AM

    Process ID: 33432
    Host:       ddmfs1
    PSIDATADIR: /ddmfs1b/softs/psi4conda/share/psi4
    Memory:     55.9 GiB
    Threads:    20
    
  ==> Input QCSchema <==

--------------------------------------------------------------------------
{'driver': 'energy',
 'extras': {'psiapi': True, 'wfn_qcvars_only': True},
 'id': None,
 'keywords': {'SCF_TYPE': 'DF', 'function_kwargs': {}},
 'model': {'basis': 'aug-cc-pvtz', 'method': 'mp2'},
 'molecule': {'atom_labels': ['', '', '', '', ''],
              'atomic_numbers': [8, 1, 1, 11, 11],
              'extras': {},
              'fix_com': True,
              'fix_orientation': True,
              'fix_symmetry': 'c1',
              'fragment_charges': [0.0, 1.0, 1.0],
              'fragment_multiplicities': [1, 1, 1],
              'fragments': [[0, 1, 2], [3], [4]],
              'geometry': [0.0, 0.0, 0.0, -1.1121756344246994, 0.0, 1.4303677194292883, -1.1121756344246994, 0.0,
                           -1.4303677194292883, 3.8804354356078714, 3.8804354356078714, 0.0, 3.8804354356078714,
                           -3.8804354356078714, 0.0],
              'mass_numbers': [16, 1, 1, 23, 23],
              'masses': [15.99491461957, 1.00782503223, 1.00782503223, 22.989769282, 22.989769282],
              'molecular_charge': 2.0,
              'molecular_multiplicity': 1,
              'name': 'dimer',
              'provenance': {'creator': 'QCElemental',
                             'routine': 'qcelemental.molparse.from_string',
                             'version': '0.26.0'},
              'real': [False, False, False, True, True],
              'schema_name': 'qcschema_molecule',
              'schema_version': 2,
              'symbols': ['O', 'H', 'H', 'Na', 'Na'],
              'validated': True},
 'protocols': {'stdout': True},
 'provenance': {'creator': 'QCElemental', 'routine': 'qcelemental.models.results', 'version': '0.26.0'},
 'schema_name': 'qcschema_input',
 'schema_version': 1}
--------------------------------------------------------------------------

Scratch directory: /ddmfs1a/scratch/
   => Libint2 <=

    Primary   basis highest AM E, G, H:  5, 4, 3
    Auxiliary basis highest AM E, G, H:  6, 5, 4
    Onebody   basis highest AM E, G, H:  6, 5, 4
    Solid Harmonics ordering:            gaussian

*** tstart() called on ddmfs1
*** at Mon Jan 22 05:20:15 2024

   => Loading Basis Set <=

    Name: AUG-CC-PVTZ
    Role: ORBITAL
    Keyword: BASIS
    atoms 1   entry O          line   331 file /ddmfs1b/softs/psi4conda/share/psi4/basis/aug-cc-pvtz.gbs 
    atoms 2-3 entry H          line    40 file /ddmfs1b/softs/psi4conda/share/psi4/basis/aug-cc-pvtz.gbs 
    atoms 4-5 entry NA         line   469 file /ddmfs1b/softs/psi4conda/share/psi4/basis/aug-cc-pvtz.gbs 


         ---------------------------------------------------------
                                   SCF
               by Justin Turney, Rob Parrish, Andy Simmonett
                          and Daniel G. A. Smith
                              RHF Reference
                       20 Threads,  57220 MiB Core
         ---------------------------------------------------------

  ==> Geometry <==

    Molecular point group: c1
    Full point group: C2v

    Geometry (in Bohr), charge = 2, multiplicity = 1:

       Center              X                  Y                   Z               Mass       
    ------------   -----------------  -----------------  -----------------  -----------------
      Gh(O)           0.000000000000     0.000000000000     0.000000000000    15.994914619570
      Gh(H)          -1.112175634425     0.000000000000     1.430367719429     1.007825032230
      Gh(H)          -1.112175634425     0.000000000000    -1.430367719429     1.007825032230
         NA           3.880435435608     3.880435435608     0.000000000000    22.989769282000
         NA           3.880435435608    -3.880435435608     0.000000000000    22.989769282000

  Running in c1 symmetry.

  Rotational constants: A =      0.08643  B =      0.08613  C =      0.04340 [cm^-1]
  Rotational constants: A =   2591.25550  B =   2582.01244  C =   1301.00252 [MHz]
  Nuclear repulsion =   15.591033790908225

  Charge       = 2
  Multiplicity = 1
  Electrons    = 20
  Nalpha       = 10
  Nbeta        = 10

  ==> Algorithm <==

  SCF Algorithm Type is DF.
  DIIS enabled.
  MOM disabled.
  Fractional occupation disabled.
  Guess Type is SAD.
  Energy threshold   = 1.00e-08
  Density threshold  = 1.00e-08
  Integral threshold = 1.00e-12

  ==> Primary Basis <==

  Basis Set: AUG-CC-PVTZ
    Blend: AUG-CC-PVTZ
    Number of shells: 64
    Number of basis functions: 192
    Number of Cartesian functions: 223
    Spherical Harmonics?: true
    Max angular momentum: 3

   => Loading Basis Set <=

    Name: (AUG-CC-PVTZ AUX)
    Role: JKFIT
    Keyword: DF_BASIS_SCF
    atoms 1   entry O          line   286 file /ddmfs1b/softs/psi4conda/share/psi4/basis/aug-cc-pvtz-jkfit.gbs 
    atoms 2-3 entry H          line    70 file /ddmfs1b/softs/psi4conda/share/psi4/basis/aug-cc-pvtz-jkfit.gbs 
    atoms 4-5 entry NA         line   498 file /ddmfs1b/softs/psi4conda/share/psi4/basis/def2-universal-jkfit.gbs 

  ==> Integral Setup <==

  DFHelper Memory: AOs need 0.130 GiB; user supplied 41.910 GiB. 
  Using in-core AOs.

  ==> MemDFJK: Density-Fitted J/K Matrices <==

    J tasked:                   Yes
    K tasked:                   Yes
    wK tasked:                   No
    OpenMP threads:              20
    Memory [MiB]:             42915
    Algorithm:                 Core
    Schwarz Cutoff:           1E-12
    Mask sparsity (%):       0.0000
    Fitting Condition:        1E-10

   => Auxiliary Basis Set <=

  Basis Set: (AUG-CC-PVTZ AUX)
    Blend: AUG-CC-PVTZ-JKFIT + DEF2-UNIVERSAL-JKFIT
    Number of shells: 126
    Number of basis functions: 420
    Number of Cartesian functions: 515
    Spherical Harmonics?: true
    Max angular momentum: 4

  Minimum eigenvalue in the overlap matrix is 1.3550040548E-04.
  Reciprocal condition number of the overlap matrix is 1.2516188025E-05.
    Using symmetric orthogonalization.

  ==> Pre-Iterations <==

  SCF Guess: Superposition of Atomic Densities via on-the-fly atomic UHF (no occupation information).

   -------------------------
    Irrep   Nso     Nmo    
   -------------------------
     A        192     192 
   -------------------------
    Total     192     192
   -------------------------

  ==> Iterations <==

                           Total Energy        Delta E     RMS |[F,P]|

   @DF-RHF iter SAD:  -323.50850104214106   -3.23509e+02   0.00000e+00 
   @DF-RHF iter   1:  -323.22324216949539    2.85259e-01   6.80251e-05 DIIS
   @DF-RHF iter   2:  -323.22333241467942   -9.02452e-05   1.21323e-05 DIIS
   @DF-RHF iter   3:  -323.22333491653256   -2.50185e-06   9.41673e-07 DIIS
   @DF-RHF iter   4:  -323.22333493442289   -1.78903e-08   1.45412e-07 DIIS
   @DF-RHF iter   5:  -323.22333493488588   -4.62990e-10   9.71788e-09 DIIS
  Energy and wave function converged.


  ==> Post-Iterations <==

    Orbital Energies [Eh]
    ---------------------

    Doubly Occupied:                                                      

       1A    -40.892243     2A    -40.892243     3A     -3.204011  
       4A     -3.204010     5A     -1.927755     6A     -1.927692  
       7A     -1.926850     8A     -1.926848     9A     -1.926818  
      10A     -1.926813  

    Virtual:                                                              

      11A     -0.344561    12A     -0.274544    13A     -0.245881  
      14A     -0.245860    15A     -0.222702    16A     -0.194802  
      17A     -0.194797    18A     -0.170113    19A     -0.161766  
      20A     -0.161575    21A     -0.158570    22A     -0.141756  
      23A     -0.141681    24A     -0.128155    25A     -0.128121  
      26A     -0.126816    27A     -0.123323    28A     -0.120458  
      29A     -0.120456    30A     -0.110500    31A     -0.110475  
      32A     -0.099504    33A     -0.094094    34A     -0.093461  
      35A     -0.084590    36A     -0.084216    37A     -0.083554  
      38A     -0.079684    39A     -0.079456    40A     -0.077002  
      41A     -0.075185    42A     -0.073378    43A     -0.071300  
      44A     -0.065698    45A     -0.064998    46A     -0.064974  
      47A     -0.051717    48A     -0.049799    49A     -0.039629  
      50A     -0.032643    51A     -0.028168    52A     -0.026339  
      53A     -0.024320    54A     -0.015469    55A     -0.010358  
      56A      0.001986    57A      0.003606    58A      0.008731  
      59A      0.011318    60A      0.016348    61A      0.020827  
      62A      0.026084    63A      0.043469    64A      0.043719  
      65A      0.045934    66A      0.056591    67A      0.060669  
      68A      0.062087    69A      0.065635    70A      0.066236  
      71A      0.069306    72A      0.069782    73A      0.076385  
      74A      0.086442    75A      0.094795    76A      0.119179  
      77A      0.119838    78A      0.147354    79A      0.152236  
      80A      0.153792    81A      0.155824    82A      0.156691  
      83A      0.170801    84A      0.177213    85A      0.194042  
      86A      0.249462    87A      0.254924    88A      0.256343  
      89A      0.271251    90A      0.276783    91A      0.278366  
      92A      0.286895    93A      0.288542    94A      0.294071  
      95A      0.313076    96A      0.315447    97A      0.319497  
      98A      0.343511    99A      0.347219   100A      0.358735  
     101A      0.369765   102A      0.378050   103A      0.379722  
     104A      0.401193   105A      0.413787   106A      0.416333  
     107A      0.417834   108A      0.424337   109A      0.433112  
     110A      0.479655   111A      0.481471   112A      0.488919  
     113A      0.512713   114A      0.571165   115A      0.589345  
     116A      0.606397   117A      0.625397   118A      0.653714  
     119A      0.663280   120A      0.676871   121A      0.728898  
     122A      0.769591   123A      0.816601   124A      0.835313  
     125A      0.860795   126A      0.878259   127A      0.968826  
     128A      1.001728   129A      1.005171   130A      1.011270  
     131A      1.059370   132A      1.240352   133A      1.254384  
     134A      1.495571   135A      1.501317   136A      1.544474  
     137A      1.564560   138A      1.635058   139A      1.695972  
     140A      1.762963   141A      1.790717   142A      2.050778  
     143A      2.122429   144A      2.190831   145A      2.229086  
     146A      2.230124   147A      2.247955   148A      2.431533  
     149A      2.519474   150A      2.526274   151A      2.879128  
     152A      2.922710   153A      3.007703   154A      3.028922  
     155A      3.057027   156A      3.308846   157A      3.366853  
     158A      4.067161   159A      4.174953   160A      4.246409  
     161A      4.333266   162A      4.382690   163A      4.437894  
     164A      4.639748   165A      4.651176   166A      4.715341  
     167A      4.906994   168A      5.237899   169A      5.320903  
     170A      5.334028   171A      5.566343   172A      5.808910  
     173A      6.075956   174A      6.392076   175A      6.759610  
     176A      7.327516   177A      7.472038   178A      7.764069  
     179A      7.818871   180A      7.933046   181A      8.414078  
     182A      8.499031   183A      9.394456   184A      9.641034  
     185A      9.658418   186A      9.879222   187A     10.897871  
     188A     11.369948   189A     11.856385   190A     13.240217  
     191A     13.489731   192A     64.559159  

    Final Occupation by Irrep:
              A 
    DOCC [    10 ]
    NA   [    10 ]
    NB   [    10 ]

  @DF-RHF Final Energy:  -323.22333493488588

   => Energetics <=

    Nuclear Repulsion Energy =             15.5910337909082255
    One-Electron Energy =                -478.1181712972849596
    Two-Electron Energy =                 139.3038025714908201
    Total Energy =                       -323.2233349348858837

Computation Completed


Properties will be evaluated at   0.000000,   0.000000,   0.000000 [a0]

Properties computed using the SCF density matrix


 Multipole Moments:

 ------------------------------------------------------------------------------------
     Multipole            Electronic (a.u.)      Nuclear  (a.u.)        Total (a.u.)
 ------------------------------------------------------------------------------------

 L = 1.  Multiply by 2.5417464519 to convert [e a0] to [Debye]
 Dipole X            :        -77.6090307           85.3695796            7.7605488
 Dipole Y            :          0.0000000            0.0000000            0.0000000
 Dipole Z            :         -0.0000000            0.0000000           -0.0000000
 Magnitude           :                                                    7.7605488

 ------------------------------------------------------------------------------------

*** tstop() called on ddmfs1 at Mon Jan 22 05:20:18 2024
Module time:
	user time   =      27.76 seconds =       0.46 minutes
	system time =       4.00 seconds =       0.07 minutes
	total time  =          3 seconds =       0.05 minutes
Total time:
	user time   =     111.05 seconds =       1.85 minutes
	system time =      13.01 seconds =       0.22 minutes
	total time  =         18 seconds =       0.30 minutes

*** tstart() called on ddmfs1
*** at Mon Jan 22 05:20:18 2024


  //>>>>>>>>>>>>>>>>>>>>>>>>>>>>>>>>>>>//
  //               DFMP2               //
  //<<<<<<<<<<<<<<<<<<<<<<<<<<<<<<<<<<<//

   => Loading Basis Set <=

    Name: (AUG-CC-PVTZ AUX)
    Role: RIFIT
    Keyword: DF_BASIS_MP2
    atoms 1   entry O          line   264 file /ddmfs1b/softs/psi4conda/share/psi4/basis/aug-cc-pvtz-ri.gbs 
    atoms 2-3 entry H          line    30 file /ddmfs1b/softs/psi4conda/share/psi4/basis/aug-cc-pvtz-ri.gbs 
    atoms 4-5 entry NA         line   610 file /ddmfs1b/softs/psi4conda/share/psi4/basis/def2-qzvpp-ri.gbs 

	 --------------------------------------------------------
	                          DF-MP2                         
	      2nd-Order Density-Fitted Moller-Plesset Theory     
	              RMP2 Wavefunction,  20 Threads             
	                                                         
	        Rob Parrish, Justin Turney, Andy Simmonett,      
	           Ed Hohenstein, and C. David Sherrill          
	 --------------------------------------------------------

   => Auxiliary Basis Set <=

  Basis Set: (AUG-CC-PVTZ AUX)
    Blend: AUG-CC-PVTZ-RI + DEF2-QZVPP-RI
    Number of shells: 140
    Number of basis functions: 530
    Number of Cartesian functions: 674
    Spherical Harmonics?: true
    Max angular momentum: 4

	 --------------------------------------------------------
	                 NBF =   192, NAUX =   530
	 --------------------------------------------------------
	   CLASS    FOCC     OCC    AOCC    AVIR     VIR    FVIR
	   PAIRS       0      10      10     182     182       0
	 --------------------------------------------------------

	-----------------------------------------------------------
	 ==================> DF-MP2 Energies <==================== 
	-----------------------------------------------------------
	 Reference Energy          =    -323.2233349348858837 [Eh]
	 Singles Energy            =      -0.0000000000000000 [Eh]
	 Same-Spin Energy          =      -0.0047861583454235 [Eh]
	 Opposite-Spin Energy      =      -0.0182597762865940 [Eh]
	 Correlation Energy        =      -0.0230459346320175 [Eh]
	 Total Energy              =    -323.2463808695179068 [Eh]
	-----------------------------------------------------------
	 ================> DF-SCS-MP2 Energies <================== 
	-----------------------------------------------------------
	 SCS Same-Spin Scale       =       0.3333333333333333 [-]
	 SCS Opposite-Spin Scale   =       1.2000000000000000 [-]
	 SCS Same-Spin Energy      =      -0.0015953861151412 [Eh]
	 SCS Opposite-Spin Energy  =      -0.0219117315439127 [Eh]
	 SCS Correlation Energy    =      -0.0235071176590539 [Eh]
	 SCS Total Energy          =    -323.2468420525449346 [Eh]
	-----------------------------------------------------------


*** tstop() called on ddmfs1 at Mon Jan 22 05:20:23 2024
Module time:
	user time   =      14.03 seconds =       0.23 minutes
	system time =       0.99 seconds =       0.02 minutes
	total time  =          5 seconds =       0.08 minutes
Total time:
	user time   =     125.09 seconds =       2.08 minutes
	system time =      14.00 seconds =       0.23 minutes
	total time  =         23 seconds =       0.38 minutes

    Psi4 stopped on: Monday, 22 January 2024 05:20AM
    Psi4 wall time for execution: 0:00:07.69


    -----------------------------------------------------------------------
          Psi4: An Open-Source Ab Initio Electronic Structure Package
                               Psi4 1.8.2 release

                         Git: Rev {} zzzzzzz 


    D. G. A. Smith, L. A. Burns, A. C. Simmonett, R. M. Parrish,
    M. C. Schieber, R. Galvelis, P. Kraus, H. Kruse, R. Di Remigio,
    A. Alenaizan, A. M. James, S. Lehtola, J. P. Misiewicz, M. Scheurer,
    R. A. Shaw, J. B. Schriber, Y. Xie, Z. L. Glick, D. A. Sirianni,
    J. S. O'Brien, J. M. Waldrop, A. Kumar, E. G. Hohenstein,
    B. P. Pritchard, B. R. Brooks, H. F. Schaefer III, A. Yu. Sokolov,
    K. Patkowski, A. E. DePrince III, U. Bozkaya, R. A. King,
    F. A. Evangelista, J. M. Turney, T. D. Crawford, C. D. Sherrill,
    J. Chem. Phys. 152(18) 184108 (2020). https://doi.org/10.1063/5.0006002

                            Additional Code Authors
    E. T. Seidl, C. L. Janssen, E. F. Valeev, M. L. Leininger,
    J. F. Gonthier, R. M. Richard, H. R. McAlexander, M. Saitow, X. Wang,
    P. Verma, M. H. Lechner, A. Jiang, S. Behnle, A. G. Heide,
    M. F. Herbst, and D. L. Poole

             Previous Authors, Complete List of Code Contributors,
                       and Citations for Specific Modules
    https://github.com/psi4/psi4/blob/master/codemeta.json
    https://github.com/psi4/psi4/graphs/contributors
    http://psicode.org/psi4manual/master/introduction.html#citing-psifour

    -----------------------------------------------------------------------


    Psi4 started on: Monday, 22 January 2024 05:19AM

    Process ID: 33432
    Host:       ddmfs1
    PSIDATADIR: /ddmfs1b/softs/psi4conda/share/psi4
    Memory:     55.9 GiB
    Threads:    20
    
  ==> Input QCSchema <==

--------------------------------------------------------------------------
{'driver': 'energy',
 'extras': {'psiapi': True, 'wfn_qcvars_only': True},
 'id': None,
 'keywords': {'SCF_TYPE': 'DF', 'function_kwargs': {}},
 'model': {'basis': 'aug-cc-pvtz', 'method': 'mp2'},
 'molecule': {'atom_labels': ['', '', '', '', ''],
              'atomic_numbers': [8, 1, 1, 11, 11],
              'extras': {},
              'fix_com': True,
              'fix_orientation': True,
              'fix_symmetry': 'c1',
              'fragment_charges': [0.0, 0.0, 1.0],
              'fragment_multiplicities': [1, 1, 1],
              'fragments': [[0, 1, 2], [3], [4]],
              'geometry': [0.0, 0.0, 0.0, -1.1121756344246994, 0.0, 1.4303677194292883, -1.1121756344246994, 0.0,
                           -1.4303677194292883, 3.8804354356078714, 3.8804354356078714, 0.0, 3.8804354356078714,
                           -3.8804354356078714, 0.0],
              'mass_numbers': [16, 1, 1, 23, 23],
              'masses': [15.99491461957, 1.00782503223, 1.00782503223, 22.989769282, 22.989769282],
              'molecular_charge': 1.0,
              'molecular_multiplicity': 1,
              'name': 'dimer',
              'provenance': {'creator': 'QCElemental',
                             'routine': 'qcelemental.molparse.from_string',
                             'version': '0.26.0'},
              'real': [True, True, True, False, True],
              'schema_name': 'qcschema_molecule',
              'schema_version': 2,
              'symbols': ['O', 'H', 'H', 'Na', 'Na'],
              'validated': True},
 'protocols': {'stdout': True},
 'provenance': {'creator': 'QCElemental', 'routine': 'qcelemental.models.results', 'version': '0.26.0'},
 'schema_name': 'qcschema_input',
 'schema_version': 1}
--------------------------------------------------------------------------

Scratch directory: /ddmfs1a/scratch/
   => Libint2 <=

    Primary   basis highest AM E, G, H:  5, 4, 3
    Auxiliary basis highest AM E, G, H:  6, 5, 4
    Onebody   basis highest AM E, G, H:  6, 5, 4
    Solid Harmonics ordering:            gaussian

*** tstart() called on ddmfs1
*** at Mon Jan 22 05:20:23 2024

   => Loading Basis Set <=

    Name: AUG-CC-PVTZ
    Role: ORBITAL
    Keyword: BASIS
    atoms 1   entry O          line   331 file /ddmfs1b/softs/psi4conda/share/psi4/basis/aug-cc-pvtz.gbs 
    atoms 2-3 entry H          line    40 file /ddmfs1b/softs/psi4conda/share/psi4/basis/aug-cc-pvtz.gbs 
    atoms 4-5 entry NA         line   469 file /ddmfs1b/softs/psi4conda/share/psi4/basis/aug-cc-pvtz.gbs 


         ---------------------------------------------------------
                                   SCF
               by Justin Turney, Rob Parrish, Andy Simmonett
                          and Daniel G. A. Smith
                              RHF Reference
                       20 Threads,  57220 MiB Core
         ---------------------------------------------------------

  ==> Geometry <==

    Molecular point group: c1
    Full point group: Cs

    Geometry (in Bohr), charge = 1, multiplicity = 1:

       Center              X                  Y                   Z               Mass       
    ------------   -----------------  -----------------  -----------------  -----------------
         O            0.000000000000     0.000000000000     0.000000000000    15.994914619570
         H           -1.112175634425     0.000000000000     1.430367719429     1.007825032230
         H           -1.112175634425     0.000000000000    -1.430367719429     1.007825032230
      Gh(NA)          3.880435435608     3.880435435608     0.000000000000    22.989769282000
         NA           3.880435435608    -3.880435435608     0.000000000000    22.989769282000

  Running in c1 symmetry.

  Rotational constants: A =      0.08643  B =      0.08613  C =      0.04340 [cm^-1]
  Rotational constants: A =   2591.25550  B =   2582.01244  C =   1301.00252 [MHz]
  Nuclear repulsion =   28.609337773364722

  Charge       = 1
  Multiplicity = 1
  Electrons    = 20
  Nalpha       = 10
  Nbeta        = 10

  ==> Algorithm <==

  SCF Algorithm Type is DF.
  DIIS enabled.
  MOM disabled.
  Fractional occupation disabled.
  Guess Type is SAD.
  Energy threshold   = 1.00e-08
  Density threshold  = 1.00e-08
  Integral threshold = 1.00e-12

  ==> Primary Basis <==

  Basis Set: AUG-CC-PVTZ
    Blend: AUG-CC-PVTZ
    Number of shells: 64
    Number of basis functions: 192
    Number of Cartesian functions: 223
    Spherical Harmonics?: true
    Max angular momentum: 3

   => Loading Basis Set <=

    Name: (AUG-CC-PVTZ AUX)
    Role: JKFIT
    Keyword: DF_BASIS_SCF
    atoms 1   entry O          line   286 file /ddmfs1b/softs/psi4conda/share/psi4/basis/aug-cc-pvtz-jkfit.gbs 
    atoms 2-3 entry H          line    70 file /ddmfs1b/softs/psi4conda/share/psi4/basis/aug-cc-pvtz-jkfit.gbs 
    atoms 4-5 entry NA         line   498 file /ddmfs1b/softs/psi4conda/share/psi4/basis/def2-universal-jkfit.gbs 

  ==> Integral Setup <==

  DFHelper Memory: AOs need 0.130 GiB; user supplied 41.910 GiB. 
  Using in-core AOs.

  ==> MemDFJK: Density-Fitted J/K Matrices <==

    J tasked:                   Yes
    K tasked:                   Yes
    wK tasked:                   No
    OpenMP threads:              20
    Memory [MiB]:             42915
    Algorithm:                 Core
    Schwarz Cutoff:           1E-12
    Mask sparsity (%):       0.0000
    Fitting Condition:        1E-10

   => Auxiliary Basis Set <=

  Basis Set: (AUG-CC-PVTZ AUX)
    Blend: AUG-CC-PVTZ-JKFIT + DEF2-UNIVERSAL-JKFIT
    Number of shells: 126
    Number of basis functions: 420
    Number of Cartesian functions: 515
    Spherical Harmonics?: true
    Max angular momentum: 4

  Minimum eigenvalue in the overlap matrix is 1.3550040548E-04.
  Reciprocal condition number of the overlap matrix is 1.2516188025E-05.
    Using symmetric orthogonalization.

  ==> Pre-Iterations <==

  SCF Guess: Superposition of Atomic Densities via on-the-fly atomic UHF (no occupation information).

   -------------------------
    Irrep   Nso     Nmo    
   -------------------------
     A        192     192 
   -------------------------
    Total     192     192
   -------------------------

  ==> Iterations <==

                           Total Energy        Delta E     RMS |[F,P]|

   @DF-RHF iter SAD:  -237.25893392580642   -2.37259e+02   0.00000e+00 
   @DF-RHF iter   1:  -237.68092032210637   -4.21986e-01   2.40573e-03 DIIS/ADIIS
   @DF-RHF iter   2:  -237.73238059936426   -5.14603e-02   1.60562e-03 DIIS/ADIIS
   @DF-RHF iter   3:  -237.76143146984541   -2.90509e-02   1.14367e-04 DIIS/ADIIS
   @DF-RHF iter   4:  -237.76181871677827   -3.87247e-04   2.57297e-05 DIIS
   @DF-RHF iter   5:  -237.76183927711782   -2.05603e-05   5.44452e-06 DIIS
   @DF-RHF iter   6:  -237.76184069398676   -1.41687e-06   1.07487e-06 DIIS
   @DF-RHF iter   7:  -237.76184075525464   -6.12679e-08   2.01722e-07 DIIS
   @DF-RHF iter   8:  -237.76184075718618   -1.93154e-09   3.43314e-08 DIIS
   @DF-RHF iter   9:  -237.76184075723026   -4.40821e-11   7.47024e-09 DIIS
  Energy and wave function converged.


  ==> Post-Iterations <==

    Orbital Energies [Eh]
    ---------------------

    Doubly Occupied:                                                      

       1A    -40.731124     2A    -20.741729     3A     -3.043697  
       4A     -1.767258     5A     -1.767198     6A     -1.766224  
       7A     -1.526782     8A     -0.889236     9A     -0.766373  
      10A     -0.686991  

    Virtual:                                                              

      11A     -0.159022    12A     -0.098520    13A     -0.097712  
      14A     -0.089966    15A     -0.065885    16A     -0.053827  
      17A     -0.051714    18A     -0.049485    19A     -0.048707  
      20A     -0.048037    21A     -0.044544    22A     -0.044027  
      23A     -0.040217    24A     -0.026512    25A     -0.023949  
      26A     -0.022553    27A     -0.021946    28A     -0.019524  
      29A     -0.013981    30A     -0.009539    31A     -0.008162  
      32A     -0.007750    33A      0.004612    34A      0.004837  
      35A      0.007072    36A      0.007339    37A      0.011641  
      38A      0.021877    39A      0.027220    40A      0.028481  
      41A      0.029917    42A      0.042922    43A      0.054456  
      44A      0.055951    45A      0.058954    46A      0.064697  
      47A      0.080121    48A      0.082560    49A      0.088973  
      50A      0.097592    51A      0.100084    52A      0.106796  
      53A      0.114321    54A      0.117241    55A      0.131603  
      56A      0.135156    57A      0.145806    58A      0.150746  
      59A      0.157508    60A      0.158757    61A      0.163380  
      62A      0.164390    63A      0.173786    64A      0.180822  
      65A      0.192146    66A      0.199318    67A      0.202965  
      68A      0.209603    69A      0.215849    70A      0.217335  
      71A      0.225938    72A      0.237123    73A      0.251258  
      74A      0.256676    75A      0.272519    76A      0.284199  
      77A      0.287570    78A      0.297673    79A      0.308997  
      80A      0.319901    81A      0.320931    82A      0.325742  
      83A      0.339741    84A      0.348091    85A      0.354834  
      86A      0.387582    87A      0.397058    88A      0.407904  
      89A      0.419626    90A      0.426556    91A      0.433039  
      92A      0.475153    93A      0.484448    94A      0.500813  
      95A      0.508249    96A      0.514036    97A      0.529794  
      98A      0.529955    99A      0.543092   100A      0.558451  
     101A      0.592428   102A      0.619815   103A      0.632084  
     104A      0.632944   105A      0.653759   106A      0.654166  
     107A      0.666763   108A      0.667975   109A      0.678463  
     110A      0.691253   111A      0.705710   112A      0.730793  
     113A      0.740734   114A      0.754732   115A      0.760344  
     116A      0.765289   117A      0.780411   118A      0.827698  
     119A      0.837067   120A      0.841982   121A      0.847892  
     122A      0.922623   123A      0.950842   124A      0.965938  
     125A      1.014013   126A      1.079246   127A      1.092606  
     128A      1.101717   129A      1.110853   130A      1.145049  
     131A      1.161410   132A      1.180533   133A      1.333076  
     134A      1.501505   135A      1.527487   136A      1.555271  
     137A      1.694752   138A      1.768313   139A      1.872606  
     140A      1.884694   141A      1.986285   142A      2.175324  
     143A      2.251780   144A      2.290888   145A      2.297310  
     146A      2.366005   147A      2.381653   148A      2.537574  
     149A      2.633460   150A      2.670684   151A      2.683510  
     152A      2.702853   153A      2.754132   154A      3.562785  
     155A      3.661731   156A      3.883634   157A      4.065017  
     158A      4.074850   159A      4.114590   160A      4.167866  
     161A      4.294060   162A      4.349786   163A      4.360033  
     164A      4.366898   165A      4.446471   166A      4.629040  
     167A      4.729621   168A      4.998239   169A      5.002054  
     170A      5.118371   171A      5.187302   172A      5.378520  
     173A      5.683761   174A      6.140421   175A      6.231657  
     176A      6.256116   177A      6.392841   178A      6.448925  
     179A      6.605676   180A      6.755500   181A      7.035284  
     182A      7.151486   183A      7.154956   184A      7.221602  
     185A      7.238336   186A      7.246879   187A      7.424264  
     188A      7.752431   189A      7.775377   190A      8.676138  
     191A     15.756737   192A     64.359855  

    Final Occupation by Irrep:
              A 
    DOCC [    10 ]
    NA   [    10 ]
    NB   [    10 ]

  @DF-RHF Final Energy:  -237.76184075723026

   => Energetics <=

    Nuclear Repulsion Energy =             28.6093377733647216
    One-Electron Energy =                -385.3691321351204806
    Two-Electron Energy =                 118.9979536045255202
    Total Energy =                       -237.7618407572302601

Computation Completed


Properties will be evaluated at   0.000000,   0.000000,   0.000000 [a0]

Properties computed using the SCF density matrix


 Multipole Moments:

 ------------------------------------------------------------------------------------
     Multipole            Electronic (a.u.)      Nuclear  (a.u.)        Total (a.u.)
 ------------------------------------------------------------------------------------

 L = 1.  Multiply by 2.5417464519 to convert [e a0] to [Debye]
 Dipole X            :        -37.5637958           40.4604385            2.8966428
 Dipole Y            :         38.9787908          -42.6847898           -3.7059990
 Dipole Z            :         -0.0000000            0.0000000           -0.0000000
 Magnitude           :                                                    4.7037185

 ------------------------------------------------------------------------------------

*** tstop() called on ddmfs1 at Mon Jan 22 05:20:26 2024
Module time:
	user time   =      30.87 seconds =       0.51 minutes
	system time =       4.09 seconds =       0.07 minutes
	total time  =          3 seconds =       0.05 minutes
Total time:
	user time   =     157.13 seconds =       2.62 minutes
	system time =      18.12 seconds =       0.30 minutes
	total time  =         26 seconds =       0.43 minutes

*** tstart() called on ddmfs1
*** at Mon Jan 22 05:20:26 2024


  //>>>>>>>>>>>>>>>>>>>>>>>>>>>>>>>>>>>//
  //               DFMP2               //
  //<<<<<<<<<<<<<<<<<<<<<<<<<<<<<<<<<<<//

   => Loading Basis Set <=

    Name: (AUG-CC-PVTZ AUX)
    Role: RIFIT
    Keyword: DF_BASIS_MP2
    atoms 1   entry O          line   264 file /ddmfs1b/softs/psi4conda/share/psi4/basis/aug-cc-pvtz-ri.gbs 
    atoms 2-3 entry H          line    30 file /ddmfs1b/softs/psi4conda/share/psi4/basis/aug-cc-pvtz-ri.gbs 
    atoms 4-5 entry NA         line   610 file /ddmfs1b/softs/psi4conda/share/psi4/basis/def2-qzvpp-ri.gbs 

	 --------------------------------------------------------
	                          DF-MP2                         
	      2nd-Order Density-Fitted Moller-Plesset Theory     
	              RMP2 Wavefunction,  20 Threads             
	                                                         
	        Rob Parrish, Justin Turney, Andy Simmonett,      
	           Ed Hohenstein, and C. David Sherrill          
	 --------------------------------------------------------

   => Auxiliary Basis Set <=

  Basis Set: (AUG-CC-PVTZ AUX)
    Blend: AUG-CC-PVTZ-RI + DEF2-QZVPP-RI
    Number of shells: 140
    Number of basis functions: 530
    Number of Cartesian functions: 674
    Spherical Harmonics?: true
    Max angular momentum: 4

	 --------------------------------------------------------
	                 NBF =   192, NAUX =   530
	 --------------------------------------------------------
	   CLASS    FOCC     OCC    AOCC    AVIR     VIR    FVIR
	   PAIRS       0      10      10     182     182       0
	 --------------------------------------------------------

	-----------------------------------------------------------
	 ==================> DF-MP2 Energies <==================== 
	-----------------------------------------------------------
	 Reference Energy          =    -237.7618407572302601 [Eh]
	 Singles Energy            =      -0.0000000000000000 [Eh]
	 Same-Spin Energy          =      -0.0707521639246942 [Eh]
	 Opposite-Spin Energy      =      -0.2242528976911121 [Eh]
	 Correlation Energy        =      -0.2950050616158063 [Eh]
	 Total Energy              =    -238.0568458188460568 [Eh]
	-----------------------------------------------------------
	 ================> DF-SCS-MP2 Energies <================== 
	-----------------------------------------------------------
	 SCS Same-Spin Scale       =       0.3333333333333333 [-]
	 SCS Opposite-Spin Scale   =       1.2000000000000000 [-]
	 SCS Same-Spin Energy      =      -0.0235840546415647 [Eh]
	 SCS Opposite-Spin Energy  =      -0.2691034772293345 [Eh]
	 SCS Correlation Energy    =      -0.2926875318708992 [Eh]
	 SCS Total Energy          =    -238.0545282891011709 [Eh]
	-----------------------------------------------------------


*** tstop() called on ddmfs1 at Mon Jan 22 05:20:31 2024
Module time:
	user time   =      13.52 seconds =       0.23 minutes
	system time =       1.03 seconds =       0.02 minutes
	total time  =          5 seconds =       0.08 minutes
Total time:
	user time   =     170.67 seconds =       2.84 minutes
	system time =      19.15 seconds =       0.32 minutes
	total time  =         31 seconds =       0.52 minutes

    Psi4 stopped on: Monday, 22 January 2024 05:20AM
    Psi4 wall time for execution: 0:00:07.80


    -----------------------------------------------------------------------
          Psi4: An Open-Source Ab Initio Electronic Structure Package
                               Psi4 1.8.2 release

                         Git: Rev {} zzzzzzz 


    D. G. A. Smith, L. A. Burns, A. C. Simmonett, R. M. Parrish,
    M. C. Schieber, R. Galvelis, P. Kraus, H. Kruse, R. Di Remigio,
    A. Alenaizan, A. M. James, S. Lehtola, J. P. Misiewicz, M. Scheurer,
    R. A. Shaw, J. B. Schriber, Y. Xie, Z. L. Glick, D. A. Sirianni,
    J. S. O'Brien, J. M. Waldrop, A. Kumar, E. G. Hohenstein,
    B. P. Pritchard, B. R. Brooks, H. F. Schaefer III, A. Yu. Sokolov,
    K. Patkowski, A. E. DePrince III, U. Bozkaya, R. A. King,
    F. A. Evangelista, J. M. Turney, T. D. Crawford, C. D. Sherrill,
    J. Chem. Phys. 152(18) 184108 (2020). https://doi.org/10.1063/5.0006002

                            Additional Code Authors
    E. T. Seidl, C. L. Janssen, E. F. Valeev, M. L. Leininger,
    J. F. Gonthier, R. M. Richard, H. R. McAlexander, M. Saitow, X. Wang,
    P. Verma, M. H. Lechner, A. Jiang, S. Behnle, A. G. Heide,
    M. F. Herbst, and D. L. Poole

             Previous Authors, Complete List of Code Contributors,
                       and Citations for Specific Modules
    https://github.com/psi4/psi4/blob/master/codemeta.json
    https://github.com/psi4/psi4/graphs/contributors
    http://psicode.org/psi4manual/master/introduction.html#citing-psifour

    -----------------------------------------------------------------------


    Psi4 started on: Monday, 22 January 2024 05:19AM

    Process ID: 33432
    Host:       ddmfs1
    PSIDATADIR: /ddmfs1b/softs/psi4conda/share/psi4
    Memory:     55.9 GiB
    Threads:    20
    
  ==> Input QCSchema <==

--------------------------------------------------------------------------
{'driver': 'energy',
 'extras': {'psiapi': True, 'wfn_qcvars_only': True},
 'id': None,
 'keywords': {'SCF_TYPE': 'DF', 'function_kwargs': {}},
 'model': {'basis': 'aug-cc-pvtz', 'method': 'mp2'},
 'molecule': {'atom_labels': ['', '', '', '', ''],
              'atomic_numbers': [8, 1, 1, 11, 11],
              'extras': {},
              'fix_com': True,
              'fix_orientation': True,
              'fix_symmetry': 'c1',
              'fragment_charges': [0.0, 1.0, 0.0],
              'fragment_multiplicities': [1, 1, 1],
              'fragments': [[0, 1, 2], [3], [4]],
              'geometry': [0.0, 0.0, 0.0, -1.1121756344246994, 0.0, 1.4303677194292883, -1.1121756344246994, 0.0,
                           -1.4303677194292883, 3.8804354356078714, 3.8804354356078714, 0.0, 3.8804354356078714,
                           -3.8804354356078714, 0.0],
              'mass_numbers': [16, 1, 1, 23, 23],
              'masses': [15.99491461957, 1.00782503223, 1.00782503223, 22.989769282, 22.989769282],
              'molecular_charge': 1.0,
              'molecular_multiplicity': 1,
              'name': 'dimer',
              'provenance': {'creator': 'QCElemental',
                             'routine': 'qcelemental.molparse.from_string',
                             'version': '0.26.0'},
              'real': [True, True, True, True, False],
              'schema_name': 'qcschema_molecule',
              'schema_version': 2,
              'symbols': ['O', 'H', 'H', 'Na', 'Na'],
              'validated': True},
[...]
	system time =       0.87 seconds =       0.01 minutes
	total time  =          5 seconds =       0.08 minutes
Total time:
	user time   =     258.34 seconds =       4.31 minutes
	system time =      28.42 seconds =       0.47 minutes
	total time  =         46 seconds =       0.77 minutes

    Psi4 stopped on: Monday, 22 January 2024 05:20AM
    Psi4 wall time for execution: 0:00:07.50


    -----------------------------------------------------------------------
          Psi4: An Open-Source Ab Initio Electronic Structure Package
                               Psi4 1.8.2 release

                         Git: Rev {} zzzzzzz 


    D. G. A. Smith, L. A. Burns, A. C. Simmonett, R. M. Parrish,
    M. C. Schieber, R. Galvelis, P. Kraus, H. Kruse, R. Di Remigio,
    A. Alenaizan, A. M. James, S. Lehtola, J. P. Misiewicz, M. Scheurer,
    R. A. Shaw, J. B. Schriber, Y. Xie, Z. L. Glick, D. A. Sirianni,
    J. S. O'Brien, J. M. Waldrop, A. Kumar, E. G. Hohenstein,
    B. P. Pritchard, B. R. Brooks, H. F. Schaefer III, A. Yu. Sokolov,
    K. Patkowski, A. E. DePrince III, U. Bozkaya, R. A. King,
    F. A. Evangelista, J. M. Turney, T. D. Crawford, C. D. Sherrill,
    J. Chem. Phys. 152(18) 184108 (2020). https://doi.org/10.1063/5.0006002

                            Additional Code Authors
    E. T. Seidl, C. L. Janssen, E. F. Valeev, M. L. Leininger,
    J. F. Gonthier, R. M. Richard, H. R. McAlexander, M. Saitow, X. Wang,
    P. Verma, M. H. Lechner, A. Jiang, S. Behnle, A. G. Heide,
    M. F. Herbst, and D. L. Poole

             Previous Authors, Complete List of Code Contributors,
                       and Citations for Specific Modules
    https://github.com/psi4/psi4/blob/master/codemeta.json
    https://github.com/psi4/psi4/graphs/contributors
    http://psicode.org/psi4manual/master/introduction.html#citing-psifour

    -----------------------------------------------------------------------


    Psi4 started on: Monday, 22 January 2024 05:19AM

    Process ID: 33432
    Host:       ddmfs1
    PSIDATADIR: /ddmfs1b/softs/psi4conda/share/psi4
    Memory:     55.9 GiB
    Threads:    20
    
  ==> Input QCSchema <==

--------------------------------------------------------------------------
{'driver': 'energy',
 'extras': {'psiapi': True, 'wfn_qcvars_only': True},
 'id': None,
 'keywords': {'SCF_TYPE': 'DF', 'function_kwargs': {}},
 'model': {'basis': 'aug-cc-pvtz', 'method': 'mp2'},
 'molecule': {'atom_labels': ['', '', '', '', ''],
              'atomic_numbers': [8, 1, 1, 11, 11],
              'extras': {},
              'fix_com': True,
              'fix_orientation': True,
              'fix_symmetry': 'c1',
              'fragment_charges': [0.0, 1.0, 1.0],
              'fragment_multiplicities': [1, 1, 1],
              'fragments': [[0, 1, 2], [3], [4]],
              'geometry': [0.0, 0.0, 0.0, -1.1121756344246994, 0.0, 1.4303677194292883, -1.1121756344246994, 0.0,
                           -1.4303677194292883, 3.8804354356078714, 3.8804354356078714, 0.0, 3.8804354356078714,
                           -3.8804354356078714, 0.0],
              'mass_numbers': [16, 1, 1, 23, 23],
              'masses': [15.99491461957, 1.00782503223, 1.00782503223, 22.989769282, 22.989769282],
              'molecular_charge': 2.0,
              'molecular_multiplicity': 1,
              'name': 'dimer',
              'provenance': {'creator': 'QCElemental',
                             'routine': 'qcelemental.molparse.from_string',
                             'version': '0.26.0'},
              'real': [True, True, True, True, True],
              'schema_name': 'qcschema_molecule',
              'schema_version': 2,
              'symbols': ['O', 'H', 'H', 'Na', 'Na'],
              'validated': True},
 'protocols': {'stdout': True},
 'provenance': {'creator': 'QCElemental', 'routine': 'qcelemental.models.results', 'version': '0.26.0'},
 'schema_name': 'qcschema_input',
 'schema_version': 1}
--------------------------------------------------------------------------

Scratch directory: /ddmfs1a/scratch/
   => Libint2 <=

    Primary   basis highest AM E, G, H:  5, 4, 3
    Auxiliary basis highest AM E, G, H:  6, 5, 4
    Onebody   basis highest AM E, G, H:  6, 5, 4
    Solid Harmonics ordering:            gaussian

*** tstart() called on ddmfs1
*** at Mon Jan 22 05:20:46 2024

   => Loading Basis Set <=

    Name: AUG-CC-PVTZ
    Role: ORBITAL
    Keyword: BASIS
    atoms 1   entry O          line   331 file /ddmfs1b/softs/psi4conda/share/psi4/basis/aug-cc-pvtz.gbs 
    atoms 2-3 entry H          line    40 file /ddmfs1b/softs/psi4conda/share/psi4/basis/aug-cc-pvtz.gbs 
    atoms 4-5 entry NA         line   469 file /ddmfs1b/softs/psi4conda/share/psi4/basis/aug-cc-pvtz.gbs 


         ---------------------------------------------------------
                                   SCF
               by Justin Turney, Rob Parrish, Andy Simmonett
                          and Daniel G. A. Smith
                              RHF Reference
                       20 Threads,  57220 MiB Core
         ---------------------------------------------------------

  ==> Geometry <==

    Molecular point group: c1
    Full point group: C2v

    Geometry (in Bohr), charge = 2, multiplicity = 1:

       Center              X                  Y                   Z               Mass       
    ------------   -----------------  -----------------  -----------------  -----------------
         O            0.000000000000     0.000000000000     0.000000000000    15.994914619570
         H           -1.112175634425     0.000000000000     1.430367719429     1.007825032230
         H           -1.112175634425     0.000000000000    -1.430367719429     1.007825032230
         NA           3.880435435608     3.880435435608     0.000000000000    22.989769282000
         NA           3.880435435608    -3.880435435608     0.000000000000    22.989769282000

  Running in c1 symmetry.

  Rotational constants: A =      0.08643  B =      0.08613  C =      0.04340 [cm^-1]
  Rotational constants: A =   2591.25550  B =   2582.01244  C =   1301.00252 [MHz]
  Nuclear repulsion =   63.629511489710602

  Charge       = 2
  Multiplicity = 1
  Electrons    = 30
  Nalpha       = 15
  Nbeta        = 15

  ==> Algorithm <==

  SCF Algorithm Type is DF.
  DIIS enabled.
  MOM disabled.
  Fractional occupation disabled.
  Guess Type is SAD.
  Energy threshold   = 1.00e-08
  Density threshold  = 1.00e-08
  Integral threshold = 1.00e-12

  ==> Primary Basis <==

  Basis Set: AUG-CC-PVTZ
    Blend: AUG-CC-PVTZ
    Number of shells: 64
    Number of basis functions: 192
    Number of Cartesian functions: 223
    Spherical Harmonics?: true
    Max angular momentum: 3

   => Loading Basis Set <=

    Name: (AUG-CC-PVTZ AUX)
    Role: JKFIT
    Keyword: DF_BASIS_SCF
    atoms 1   entry O          line   286 file /ddmfs1b/softs/psi4conda/share/psi4/basis/aug-cc-pvtz-jkfit.gbs 
    atoms 2-3 entry H          line    70 file /ddmfs1b/softs/psi4conda/share/psi4/basis/aug-cc-pvtz-jkfit.gbs 
    atoms 4-5 entry NA         line   498 file /ddmfs1b/softs/psi4conda/share/psi4/basis/def2-universal-jkfit.gbs 

  ==> Integral Setup <==

  DFHelper Memory: AOs need 0.130 GiB; user supplied 41.910 GiB. 
  Using in-core AOs.

  ==> MemDFJK: Density-Fitted J/K Matrices <==

    J tasked:                   Yes
    K tasked:                   Yes
    wK tasked:                   No
    OpenMP threads:              20
    Memory [MiB]:             42915
    Algorithm:                 Core
    Schwarz Cutoff:           1E-12
    Mask sparsity (%):       0.0000
    Fitting Condition:        1E-10

   => Auxiliary Basis Set <=

  Basis Set: (AUG-CC-PVTZ AUX)
    Blend: AUG-CC-PVTZ-JKFIT + DEF2-UNIVERSAL-JKFIT
    Number of shells: 126
    Number of basis functions: 420
    Number of Cartesian functions: 515
    Spherical Harmonics?: true
    Max angular momentum: 4

  Minimum eigenvalue in the overlap matrix is 1.3550040548E-04.
  Reciprocal condition number of the overlap matrix is 1.2516188025E-05.
    Using symmetric orthogonalization.

  ==> Pre-Iterations <==

  SCF Guess: Superposition of Atomic Densities via on-the-fly atomic UHF (no occupation information).

   -------------------------
    Irrep   Nso     Nmo    
   -------------------------
     A        192     192 
   -------------------------
    Total     192     192
   -------------------------

  ==> Iterations <==

                           Total Energy        Delta E     RMS |[F,P]|

   @DF-RHF iter SAD:  -399.05869230002651   -3.99059e+02   0.00000e+00 
   @DF-RHF iter   1:  -399.25694889989370   -1.98257e-01   2.37047e-03 DIIS/ADIIS
   @DF-RHF iter   2:  -399.30728091920599   -5.03320e-02   1.54761e-03 DIIS/ADIIS
   @DF-RHF iter   3:  -399.33407265387319   -2.67917e-02   1.15576e-04 DIIS/ADIIS
   @DF-RHF iter   4:  -399.33445280279534   -3.80149e-04   2.43193e-05 DIIS
   @DF-RHF iter   5:  -399.33447005061521   -1.72478e-05   4.94877e-06 DIIS
   @DF-RHF iter   6:  -399.33447111616380   -1.06555e-06   9.56774e-07 DIIS
   @DF-RHF iter   7:  -399.33447116249897   -4.63352e-08   1.94537e-07 DIIS
   @DF-RHF iter   8:  -399.33447116427578   -1.77681e-09   2.92126e-08 DIIS
   @DF-RHF iter   9:  -399.33447116430352   -2.77396e-11   5.24974e-09 DIIS
  Energy and wave function converged.


  ==> Post-Iterations <==

    Orbital Energies [Eh]
    ---------------------

    Doubly Occupied:                                                      

       1A    -40.860432     2A    -40.860432     3A    -20.914871  
       4A     -3.172775     5A     -3.172774     6A     -1.896524  
       7A     -1.896475     8A     -1.896046     9A     -1.896041  
      10A     -1.895362    11A     -1.895319    12A     -1.699872  
      13A     -1.061271    14A     -0.945983    15A     -0.864057  

    Virtual:                                                              

      16A     -0.301980    17A     -0.253679    18A     -0.226323  
      19A     -0.221124    20A     -0.199368    21A     -0.184307  
      22A     -0.178776    23A     -0.163130    24A     -0.157427  
      25A     -0.154977    26A     -0.142466    27A     -0.131659  
      28A     -0.129433    29A     -0.125287    30A     -0.124963  
      31A     -0.124146    32A     -0.118062    33A     -0.116201  
      34A     -0.112741    35A     -0.106220    36A     -0.102882  
      37A     -0.102791    38A     -0.095502    39A     -0.087270  
      40A     -0.086302    41A     -0.080451    42A     -0.077278  
      43A     -0.076260    44A     -0.075772    45A     -0.075255  
      46A     -0.070110    47A     -0.067550    48A     -0.061217  
      49A     -0.058742    50A     -0.054781    51A     -0.050084  
      52A     -0.041192    53A     -0.040477    54A     -0.032124  
      55A     -0.022862    56A     -0.021227    57A     -0.020423  
      58A     -0.015818    59A     -0.013801    60A     -0.006674  
      61A     -0.000057    62A      0.010371    63A      0.011468  
      64A      0.017378    65A      0.024076    66A      0.026313  
      67A      0.042045    68A      0.045490    69A      0.051224  
      70A      0.052455    71A      0.054240    72A      0.057787  
      73A      0.061131    74A      0.066134    75A      0.070610  
      76A      0.076280    77A      0.077465    78A      0.082520  
      79A      0.102190    80A      0.111468    81A      0.129079  
      82A      0.145417    83A      0.151079    84A      0.154949  
      85A      0.161098    86A      0.168455    87A      0.181478  
      88A      0.184474    89A      0.187106    90A      0.204312  
      91A      0.251236    92A      0.253594    93A      0.268439  
      94A      0.275413    95A      0.278807    96A      0.286675  
      97A      0.293583    98A      0.299688    99A      0.329982  
     100A      0.331876   101A      0.334128   102A      0.350610  
     103A      0.354604   104A      0.355828   105A      0.359663  
     106A      0.380372   107A      0.382739   108A      0.394534  
     109A      0.397840   110A      0.416422   111A      0.426619  
     112A      0.436587   113A      0.457696   114A      0.459918  
     115A      0.502456   116A      0.505875   117A      0.509388  
     118A      0.520725   119A      0.522412   120A      0.549324  
     121A      0.583136   122A      0.611786   123A      0.676617  
     124A      0.684821   125A      0.684903   126A      0.697665  
     127A      0.781822   128A      0.813276   129A      0.847497  
     130A      0.909081   131A      0.929514   132A      0.940746  
     133A      0.946203   134A      0.963416   135A      1.008982  
     136A      1.012693   137A      1.031663   138A      1.337212  
     139A      1.359761   140A      1.393244   141A      1.541231  
     142A      1.596072   143A      1.725515   144A      1.735578  
     145A      1.735671   146A      1.829048   147A      1.995219  
     148A      2.078362   149A      2.119057   150A      2.121247  
     151A      2.186992   152A      2.206743   153A      2.362256  
     154A      2.464020   155A      2.505273   156A      2.511703  
     157A      2.527216   158A      2.583592   159A      3.397402  
     160A      3.497724   161A      3.720990   162A      3.904326  
     163A      3.915239   164A      3.951036   165A      4.007018  
     166A      4.133076   167A      4.192897   168A      4.197648  
     169A      4.201490   170A      4.462426   171A      4.566049  
     172A      4.833372   173A      4.835573   174A      4.947623  
     175A      5.019566   176A      5.208847   177A      5.513868  
     178A      5.969100   179A      6.218218   180A      6.392862  
     181A      6.576537   182A      6.859400   183A      6.976565  
     184A      6.981039   185A      7.048109   186A      7.056262  
     187A      7.065364   188A      7.251751   189A      7.578306  
     190A      7.600447   191A      8.505248   192A     15.586133  

    Final Occupation by Irrep:
              A 
    DOCC [    15 ]
    NA   [    15 ]
    NB   [    15 ]

  @DF-RHF Final Energy:  -399.33447116430352

   => Energetics <=

    Nuclear Repulsion Energy =             63.6295114897106018
    One-Electron Energy =                -676.0714953084950594
    Two-Electron Energy =                 213.1075126544809564
    Total Energy =                       -399.3344711643035225

Computation Completed


Properties will be evaluated at   0.000000,   0.000000,   0.000000 [a0]

Properties computed using the SCF density matrix


 Multipole Moments:

 ------------------------------------------------------------------------------------
     Multipole            Electronic (a.u.)      Nuclear  (a.u.)        Total (a.u.)
 ------------------------------------------------------------------------------------

 L = 1.  Multiply by 2.5417464519 to convert [e a0] to [Debye]
 Dipole X            :        -76.5538016           83.1452283            6.5914267
 Dipole Y            :          0.0000000            0.0000000            0.0000000
 Dipole Z            :          0.0000000            0.0000000            0.0000000
 Magnitude           :                                                    6.5914267

 ------------------------------------------------------------------------------------

*** tstop() called on ddmfs1 at Mon Jan 22 05:20:49 2024
Module time:
	user time   =      31.09 seconds =       0.52 minutes
	system time =       3.86 seconds =       0.06 minutes
	total time  =          3 seconds =       0.05 minutes
Total time:
	user time   =     290.63 seconds =       4.84 minutes
	system time =      32.32 seconds =       0.54 minutes
	total time  =         49 seconds =       0.82 minutes

*** tstart() called on ddmfs1
*** at Mon Jan 22 05:20:49 2024


  //>>>>>>>>>>>>>>>>>>>>>>>>>>>>>>>>>>>//
  //               DFMP2               //
  //<<<<<<<<<<<<<<<<<<<<<<<<<<<<<<<<<<<//

   => Loading Basis Set <=

    Name: (AUG-CC-PVTZ AUX)
    Role: RIFIT
    Keyword: DF_BASIS_MP2
    atoms 1   entry O          line   264 file /ddmfs1b/softs/psi4conda/share/psi4/basis/aug-cc-pvtz-ri.gbs 
    atoms 2-3 entry H          line    30 file /ddmfs1b/softs/psi4conda/share/psi4/basis/aug-cc-pvtz-ri.gbs 
    atoms 4-5 entry NA         line   610 file /ddmfs1b/softs/psi4conda/share/psi4/basis/def2-qzvpp-ri.gbs 

	 --------------------------------------------------------
	                          DF-MP2                         
	      2nd-Order Density-Fitted Moller-Plesset Theory     
	              RMP2 Wavefunction,  20 Threads             
	                                                         
	        Rob Parrish, Justin Turney, Andy Simmonett,      
	           Ed Hohenstein, and C. David Sherrill          
	 --------------------------------------------------------

   => Auxiliary Basis Set <=

  Basis Set: (AUG-CC-PVTZ AUX)
    Blend: AUG-CC-PVTZ-RI + DEF2-QZVPP-RI
    Number of shells: 140
    Number of basis functions: 530
    Number of Cartesian functions: 674
    Spherical Harmonics?: true
    Max angular momentum: 4

	 --------------------------------------------------------
	                 NBF =   192, NAUX =   530
	 --------------------------------------------------------
	   CLASS    FOCC     OCC    AOCC    AVIR     VIR    FVIR
	   PAIRS       0      15      15     177     177       0
	 --------------------------------------------------------

	-----------------------------------------------------------
	 ==================> DF-MP2 Energies <==================== 
	-----------------------------------------------------------
	 Reference Energy          =    -399.3344711643035225 [Eh]
	 Singles Energy            =      -0.0000000000000000 [Eh]
	 Same-Spin Energy          =      -0.0730672961614745 [Eh]
	 Opposite-Spin Energy      =      -0.2328242600959679 [Eh]
	 Correlation Energy        =      -0.3058915562574424 [Eh]
	 Total Energy              =    -399.6403627205609723 [Eh]
	-----------------------------------------------------------
	 ================> DF-SCS-MP2 Energies <================== 
	-----------------------------------------------------------
	 SCS Same-Spin Scale       =       0.3333333333333333 [-]
	 SCS Opposite-Spin Scale   =       1.2000000000000000 [-]
	 SCS Same-Spin Energy      =      -0.0243557653871582 [Eh]
	 SCS Opposite-Spin Energy  =      -0.2793891121151615 [Eh]
	 SCS Correlation Energy    =      -0.3037448775023197 [Eh]
	 SCS Total Energy          =    -399.6382160418058334 [Eh]
	-----------------------------------------------------------


*** tstop() called on ddmfs1 at Mon Jan 22 05:20:54 2024
Module time:
	user time   =      14.05 seconds =       0.23 minutes
	system time =       0.83 seconds =       0.01 minutes
	total time  =          5 seconds =       0.08 minutes
Total time:
	user time   =     304.69 seconds =       5.08 minutes
	system time =      33.15 seconds =       0.55 minutes
	total time  =         54 seconds =       0.90 minutes

    Psi4 stopped on: Monday, 22 January 2024 05:20AM
    Psi4 wall time for execution: 0:00:07.74


  //>>>>>>>>>>>>>>>>>>>>>>>>>>>>>>>>>>>//
  //          ManyBody Results         //
  //<<<<<<<<<<<<<<<<<<<<<<<<<<<<<<<<<<<//


   ==> N-Body: Counterpoise Corrected (CP) energies <==

        n-Body     Total Energy            Interaction Energy                          N-body Contribution to Interaction Energy
                   [Eh]                    [Eh]                  [kcal/mol]            [Eh]                  [kcal/mol]
             1  N/A                         0.000000000000        0.000000000000        0.000000000000        0.000000000000
             2  N/A                         0.079245240355       49.727139074269        0.079245240355       49.727139074269
  FULL/RTN   3  N/A                         0.079296153230       49.759087385738        0.000050912875        0.031948311469


    Psi4 stopped on: Monday, 22 January 2024 05:20AM
    Psi4 wall time for execution: 0:00:56.80

*** Psi4 exiting successfully. Buy a developer a beer!
