
    -----------------------------------------------------------------------
          Psi4: An Open-Source Ab Initio Electronic Structure Package
                               Psi4 1.9 release

                         Git: Rev {} zzzzzzz 


    D. G. A. Smith, L. A. Burns, A. C. Simmonett, R. M. Parrish,
    M. C. Schieber, R. Galvelis, P. Kraus, H. Kruse, R. Di Remigio,
    A. Alenaizan, A. M. James, S. Lehtola, J. P. Misiewicz, M. Scheurer,
    R. A. Shaw, J. B. Schriber, Y. Xie, Z. L. Glick, D. A. Sirianni,
    J. S. O'Brien, J. M. Waldrop, A. Kumar, E. G. Hohenstein,
    B. P. Pritchard, B. R. Brooks, H. F. Schaefer III, A. Yu. Sokolov,
    K. Patkowski, A. E. DePrince III, U. Bozkaya, R. A. King,
    F. A. Evangelista, J. M. Turney, T. D. Crawford, C. D. Sherrill,
    J. Chem. Phys. 152(18) 184108 (2020). https://doi.org/10.1063/5.0006002

                            Additional Code Authors
    E. T. Seidl, C. L. Janssen, E. F. Valeev, M. L. Leininger,
    J. F. Gonthier, R. M. Richard, H. R. McAlexander, M. Saitow, X. Wang,
    P. Verma, M. H. Lechner, A. Jiang, S. Behnle, A. G. Heide,
    M. F. Herbst, and D. L. Poole

             Previous Authors, Complete List of Code Contributors,
                       and Citations for Specific Modules
    https://github.com/psi4/psi4/blob/master/codemeta.json
    https://github.com/psi4/psi4/graphs/contributors
    http://psicode.org/psi4manual/master/introduction.html#citing-psifour

    -----------------------------------------------------------------------


    Psi4 started on: Wednesday, 24 January 2024 02:57PM

    Process ID: 1215856
    Host:       moses-razer
    PSIDATADIR: /home/kchung25/anaconda3/envs/psi4_19/share/psi4
    Memory:     500.0 MiB
    Threads:    6
    
  ==> Input File <==

--------------------------------------------------------------------------
MEMORY 60 GB

molecule dimer {
0 1
O          0.000000     0.000000     0.000000
H         -0.588538     0.000000     0.756918
H         -0.588538     0.000000    -0.756918
Gh(K)      2.162333     2.162333     0.000000
Gh(K)      2.162333    -2.162333     0.000000

units ang
no_reorient
no_com
symmetry c1
}

set {
basis        aug-cc-pVTZ
scf_type     df
}

energy("mp2")
--------------------------------------------------------------------------

  Memory set to  55.879 GiB by Python driver.

Scratch directory: /scratch/
   => Libint2 <=

    Primary   basis highest AM E, G, H:  5, 4, 3
    Auxiliary basis highest AM E, G, H:  6, 5, 4
    Onebody   basis highest AM E, G, H:  6, 5, 4
    Solid Harmonics ordering:            gaussian

*** tstart() called on moses-razer
*** at Wed Jan 24 14:57:09 2024

   => Loading Basis Set <=

    Name: AUG-CC-PVTZ
    Role: ORBITAL
    Keyword: BASIS
    atoms 1   entry O          line   331 file /home/kchung25/anaconda3/envs/p415env/share/psi4/basis/aug-cc-pvtz.gbs 
    atoms 2-3 entry H          line    40 file /home/kchung25/anaconda3/envs/p415env/share/psi4/basis/aug-cc-pvtz.gbs 
    atoms 4-5 entry K          line  1152 file /home/kchung25/anaconda3/envs/p415env/share/psi4/basis/aug-cc-pvtz.gbs 


         ---------------------------------------------------------
                                   SCF
               by Justin Turney, Rob Parrish, Andy Simmonett
                          and Daniel G. A. Smith
                              RHF Reference
                        6 Threads,  57220 MiB Core
         ---------------------------------------------------------

  ==> Geometry <==

    Molecular point group: c1
    Full point group: C2v

    Geometry (in Angstrom), charge = 0, multiplicity = 1:

       Center              X                  Y                   Z               Mass       
    ------------   -----------------  -----------------  -----------------  -----------------
         O            0.000000000000     0.000000000000     0.000000000000    15.994914619570
         H           -0.588538000000     0.000000000000     0.756918000000     1.007825032230
         H           -0.588538000000     0.000000000000    -0.756918000000     1.007825032230
      Gh(K)           2.162333000000     2.162333000000     0.000000000000    38.963706486400
      Gh(K)           2.162333000000    -2.162333000000     0.000000000000    38.963706486400

  Running in c1 symmetry.

  Rotational constants: A =      0.04612  B =      0.04603  C =      0.02311 [cm^-1]
  Rotational constants: A =   1382.63489  B =   1379.99896  C =    692.84471 [MHz]
  Nuclear repulsion =    9.180197847927069

  Charge       = 0
  Multiplicity = 1
  Electrons    = 10
  Nalpha       = 5
  Nbeta        = 5

  ==> Algorithm <==

  SCF Algorithm Type is DF.
  DIIS enabled.
  MOM disabled.
  Fractional occupation disabled.
  Guess Type is SAD.
  Energy threshold   = 1.00e-08
  Density threshold  = 1.00e-08
  Integral threshold = 1.00e-12

  ==> Primary Basis <==

  Basis Set: AUG-CC-PVTZ
    Blend: AUG-CC-PVTZ
    Number of shells: 70
    Number of basis functions: 210
    Number of Cartesian functions: 243
    Spherical Harmonics?: true
    Max angular momentum: 3

   => Loading Basis Set <=

    Name: (AUG-CC-PVTZ AUX)
    Role: JKFIT
    Keyword: DF_BASIS_SCF
    atoms 1   entry O          line   286 file /home/kchung25/anaconda3/envs/p415env/share/psi4/basis/aug-cc-pvtz-jkfit.gbs 
    atoms 2-3 entry H          line    70 file /home/kchung25/anaconda3/envs/p415env/share/psi4/basis/aug-cc-pvtz-jkfit.gbs 
    atoms 4-5 entry K          line  1152 file /home/kchung25/anaconda3/envs/p415env/share/psi4/basis/def2-universal-jkfit.gbs 

  ==> Integral Setup <==

  DFHelper Memory: AOs need 0.182 GiB; user supplied 41.910 GiB. 
  Using in-core AOs.

  ==> MemDFJK: Density-Fitted J/K Matrices <==

    J tasked:                   Yes
    K tasked:                   Yes
    wK tasked:                   No
    OpenMP threads:               6
    Memory [MiB]:             42915
    Algorithm:                 Core
    Schwarz Cutoff:           1E-12
    Mask sparsity (%):       0.0000
    Fitting Condition:        1E-10

   => Auxiliary Basis Set <=

  Basis Set: (AUG-CC-PVTZ AUX)
    Blend: AUG-CC-PVTZ-JKFIT + DEF2-UNIVERSAL-JKFIT
    Number of shells: 146
    Number of basis functions: 516
    Number of Cartesian functions: 647
    Spherical Harmonics?: true
    Max angular momentum: 4

  Minimum eigenvalue in the overlap matrix is 1.4209317631E-05.
  Reciprocal condition number of the overlap matrix is 1.2737829695E-06.
    Using symmetric orthogonalization.

  ==> Pre-Iterations <==

  SCF Guess: Superposition of Atomic Densities via on-the-fly atomic UHF (no occupation information).

   -------------------------
    Irrep   Nso     Nmo    
   -------------------------
     A        210     210 
   -------------------------
    Total     210     210
   -------------------------

  ==> Iterations <==

                           Total Energy        Delta E     RMS |[F,P]|

   @DF-RHF iter SAD:   -75.47651208192119   -7.54765e+01   0.00000e+00 
   @DF-RHF iter   1:   -75.97617195625723   -4.99660e-01   2.23139e-03 DIIS/ADIIS
   @DF-RHF iter   2:   -76.02870213331332   -5.25302e-02   1.52010e-03 DIIS/ADIIS
   @DF-RHF iter   3:   -76.06010441131670   -3.14023e-02   1.03625e-04 DIIS/ADIIS
   @DF-RHF iter   4:   -76.06049430271524   -3.89891e-04   2.46096e-05 DIIS
   @DF-RHF iter   5:   -76.06051840670115   -2.41040e-05   5.59771e-06 DIIS
   @DF-RHF iter   6:   -76.06052038083855   -1.97414e-06   1.22562e-06 DIIS
   @DF-RHF iter   7:   -76.06052048508761   -1.04249e-07   2.21655e-07 DIIS
   @DF-RHF iter   8:   -76.06052048808482   -2.99721e-09   3.69434e-08 DIIS
   @DF-RHF iter   9:   -76.06052048815010   -6.52847e-11   9.08955e-09 DIIS
  Energy and wave function converged.


  ==> Post-Iterations <==

    Orbital Energies [Eh]
    ---------------------

    Doubly Occupied:                                                      

       1A    -20.567513     2A     -1.352932     3A     -0.716467  
       4A     -0.585099     5A     -0.510288  

    Virtual:                                                              

       6A      0.003884     7A      0.008021     8A      0.008899  
       9A      0.009417    10A      0.012058    11A      0.012212  
      12A      0.014637    13A      0.018008    14A      0.018101  
      15A      0.020176    16A      0.021308    17A      0.024313  
      18A      0.024345    19A      0.024443    20A      0.025008  
      21A      0.026743    22A      0.029571    23A      0.029706  
      24A      0.033351    25A      0.035629    26A      0.044559  
      27A      0.049477    28A      0.050921    29A      0.052369  
      30A      0.052535    31A      0.060680    32A      0.061145  
      33A      0.065374    34A      0.070882    35A      0.073257  
      36A      0.073669    37A      0.074466    38A      0.075616  
      39A      0.077498    40A      0.077850    41A      0.081831  
      42A      0.082942    43A      0.100615    44A      0.104043  
      45A      0.105965    46A      0.117757    47A      0.124439  
      48A      0.130188    49A      0.131413    50A      0.139657  
      51A      0.144645    52A      0.149437    53A      0.160412  
      54A      0.160436    55A      0.170390    56A      0.171575  
      57A      0.180154    58A      0.181284    59A      0.183515  
      60A      0.186947    61A      0.187847    62A      0.193096  
      63A      0.193261    64A      0.196685    65A      0.206679  
      66A      0.207800    67A      0.221851    68A      0.225100  
      69A      0.227457    70A      0.246254    71A      0.247503  
      72A      0.248088    73A      0.256410    74A      0.264824  
      75A      0.267465    76A      0.279375    77A      0.283899  
      78A      0.291338    79A      0.312588    80A      0.328625  
      81A      0.330879    82A      0.362967    83A      0.374233  
      84A      0.374864    85A      0.382743    86A      0.386928  
      87A      0.393043    88A      0.399352    89A      0.439755  
      90A      0.456485    91A      0.456754    92A      0.460103  
      93A      0.480788    94A      0.481350    95A      0.485188  
      96A      0.492128    97A      0.494954    98A      0.495107  
      99A      0.509140   100A      0.532335   101A      0.536040  
     102A      0.539605   103A      0.555651   104A      0.560972  
     105A      0.575732   106A      0.585256   107A      0.597334  
     108A      0.674403   109A      0.694044   110A      0.743053  
     111A      0.768396   112A      0.781744   113A      0.830427  
     114A      0.857754   115A      0.903256   116A      0.927621  
     117A      0.963963   118A      0.988119   119A      0.993778  
     120A      1.065226   121A      1.079607   122A      1.107236  
     123A      1.115993   124A      1.168048   125A      1.179206  
     126A      1.184723   127A      1.199180   128A      1.222755  
     129A      1.329355   130A      1.538122   131A      1.558143  
     132A      1.610984   133A      1.810669   134A      1.847100  
     135A      1.857285   136A      1.865408   137A      1.912453  
     138A      1.914897   139A      1.933026   140A      1.933332  
     141A      1.974495   142A      1.981478   143A      1.993769  
     144A      1.995806   145A      2.027884   146A      2.048946  
     147A      2.053520   148A      2.108770   149A      2.127738  
     150A      2.192059   151A      2.224210   152A      2.238396  
     153A      2.276527   154A      2.357025   155A      2.360196  
     156A      2.470470   157A      2.502930   158A      2.507011  
     159A      2.533120   160A      2.551628   161A      2.708489  
     162A      2.808418   163A      2.839247   164A      2.875445  
     165A      2.883603   166A      2.927438   167A      3.712487  
     168A      3.827568   169A      4.041821   170A      4.214328  
     171A      4.215853   172A      4.260421   173A      4.309759  
     174A      4.427620   175A      4.432299   176A      4.471506  
     177A      4.531024   178A      4.794234   179A      4.883391  
     180A      5.157171   181A      5.165699   182A      5.277332  
     183A      5.347091   184A      5.538344   185A      5.756249  
     186A      6.259804   187A      6.552780   188A      6.732075  
     189A      6.923991   190A      7.188558   191A      7.323629  
     192A      7.330644   193A      7.346731   194A      7.390325  
     195A      7.391586   196A      7.571057   197A      7.919868  
     198A      7.939191   199A      8.829761   200A     10.053651  
     201A     10.164886   202A     15.879543   203A     30.247667  
     204A     30.259202   205A     30.344685   206A     30.407181  
     207A     30.426085   208A     30.799014   209A    197.450095  
     210A    197.634502  

    Final Occupation by Irrep:
              A 
    DOCC [     5 ]
    NA   [     5 ]
    NB   [     5 ]

  @DF-RHF Final Energy:   -76.06052048815010

   => Energetics <=

    Nuclear Repulsion Energy =              9.1801978479270687
    One-Electron Energy =                -123.0168346581892393
    Two-Electron Energy =                  37.7761163221120739
    Total Energy =                        -76.0605204881501038

Computation Completed


Properties will be evaluated at   0.000000,   0.000000,   0.000000 [a0]

Properties computed using the SCF density matrix


 Multipole Moments:

 ------------------------------------------------------------------------------------
     Multipole            Electronic (a.u.)      Nuclear  (a.u.)        Total (a.u.)
 ------------------------------------------------------------------------------------

 L = 1.  Multiply by 2.5417464519 to convert [e a0] to [Debye]
 Dipole X            :          1.4425720           -2.2243513           -0.7817793
 Dipole Y            :          0.0000000            0.0000000            0.0000000
 Dipole Z            :          0.0000000            0.0000000            0.0000000
 Magnitude           :                                                    0.7817793

 ------------------------------------------------------------------------------------

*** tstop() called on moses-razer at Wed Jan 24 14:57:20 2024
Module time:
	user time   =      18.54 seconds =       0.31 minutes
	system time =       1.51 seconds =       0.03 minutes
	total time  =         11 seconds =       0.18 minutes
Total time:
	user time   =      18.54 seconds =       0.31 minutes
	system time =       1.51 seconds =       0.03 minutes
	total time  =         11 seconds =       0.18 minutes

*** tstart() called on moses-razer
*** at Wed Jan 24 14:57:20 2024


  //>>>>>>>>>>>>>>>>>>>>>>>>>>>>>>>>>>>//
  //               DFMP2               //
  //<<<<<<<<<<<<<<<<<<<<<<<<<<<<<<<<<<<//

   => Loading Basis Set <=

    Name: (AUG-CC-PVTZ AUX)
    Role: RIFIT
    Keyword: DF_BASIS_MP2
    atoms 1   entry O          line   264 file /home/kchung25/anaconda3/envs/p415env/share/psi4/basis/aug-cc-pvtz-ri.gbs 
    atoms 2-3 entry H          line    30 file /home/kchung25/anaconda3/envs/p415env/share/psi4/basis/aug-cc-pvtz-ri.gbs 
    atoms 4-5 entry K          line  1282 file /home/kchung25/anaconda3/envs/p415env/share/psi4/basis/def2-qzvpp-ri.gbs 

	 --------------------------------------------------------
	                          DF-MP2                         
	      2nd-Order Density-Fitted Moller-Plesset Theory     
	              RMP2 Wavefunction,   6 Threads             
	                                                         
	        Rob Parrish, Justin Turney, Andy Simmonett,      
	           Ed Hohenstein, and C. David Sherrill          
	 --------------------------------------------------------

   => Auxiliary Basis Set <=

  Basis Set: (AUG-CC-PVTZ AUX)
    Blend: AUG-CC-PVTZ-RI + DEF2-QZVPP-RI
    Number of shells: 154
    Number of basis functions: 596
    Number of Cartesian functions: 770
    Spherical Harmonics?: true
    Max angular momentum: 4

	 --------------------------------------------------------
	                 NBF =   210, NAUX =   596
	 --------------------------------------------------------
	   CLASS    FOCC     OCC    AOCC    AVIR     VIR    FVIR
	   PAIRS       0       5       5     205     205       0
	 --------------------------------------------------------

	-----------------------------------------------------------
	 ==================> DF-MP2 Energies <==================== 
	-----------------------------------------------------------
	 Reference Energy          =     -76.0605204881501038 [Eh]
	 Singles Energy            =      -0.0000000000000000 [Eh]
	 Same-Spin Energy          =      -0.0683983868992391 [Eh]
	 Opposite-Spin Energy      =      -0.2154741881092543 [Eh]
	 Correlation Energy        =      -0.2838725750084934 [Eh]
	 Total Energy              =     -76.3443930631585914 [Eh]
	-----------------------------------------------------------
	 ================> DF-SCS-MP2 Energies <================== 
	-----------------------------------------------------------
	 SCS Same-Spin Scale       =       0.3333333333333333 [-]
	 SCS Opposite-Spin Scale   =       1.2000000000000000 [-]
	 SCS Same-Spin Energy      =      -0.0227994622997464 [Eh]
	 SCS Opposite-Spin Energy  =      -0.2585690257311051 [Eh]
	 SCS Correlation Energy    =      -0.2813684880308515 [Eh]
	 SCS Total Energy          =     -76.3418889761809538 [Eh]
	-----------------------------------------------------------


*** tstop() called on moses-razer at Wed Jan 24 14:57:33 2024
Module time:
	user time   =      16.10 seconds =       0.27 minutes
	system time =       0.82 seconds =       0.01 minutes
	total time  =         13 seconds =       0.22 minutes
Total time:
	user time   =      34.64 seconds =       0.58 minutes
	system time =       2.33 seconds =       0.04 minutes
	total time  =         24 seconds =       0.40 minutes

    Psi4 stopped on: Wednesday, 24 January 2024 02:57PM
    Psi4 wall time for execution: 0:00:24.99

*** Psi4 exiting successfully. Buy a developer a beer!
