
    -----------------------------------------------------------------------
          Psi4: An Open-Source Ab Initio Electronic Structure Package
                               Psi4 1.9 release

                         Git: Rev {} zzzzzzz 


    D. G. A. Smith, L. A. Burns, A. C. Simmonett, R. M. Parrish,
    M. C. Schieber, R. Galvelis, P. Kraus, H. Kruse, R. Di Remigio,
    A. Alenaizan, A. M. James, S. Lehtola, J. P. Misiewicz, M. Scheurer,
    R. A. Shaw, J. B. Schriber, Y. Xie, Z. L. Glick, D. A. Sirianni,
    J. S. O'Brien, J. M. Waldrop, A. Kumar, E. G. Hohenstein,
    B. P. Pritchard, B. R. Brooks, H. F. Schaefer III, A. Yu. Sokolov,
    K. Patkowski, A. E. DePrince III, U. Bozkaya, R. A. King,
    F. A. Evangelista, J. M. Turney, T. D. Crawford, C. D. Sherrill,
    J. Chem. Phys. 152(18) 184108 (2020). https://doi.org/10.1063/5.0006002

                            Additional Code Authors
    E. T. Seidl, C. L. Janssen, E. F. Valeev, M. L. Leininger,
    J. F. Gonthier, R. M. Richard, H. R. McAlexander, M. Saitow, X. Wang,
    P. Verma, M. H. Lechner, A. Jiang, S. Behnle, A. G. Heide,
    M. F. Herbst, and D. L. Poole

             Previous Authors, Complete List of Code Contributors,
                       and Citations for Specific Modules
    https://github.com/psi4/psi4/blob/master/codemeta.json
    https://github.com/psi4/psi4/graphs/contributors
    http://psicode.org/psi4manual/master/introduction.html#citing-psifour

    -----------------------------------------------------------------------


    Psi4 started on: Wednesday, 24 January 2024 02:57PM

    Process ID: 1215877
    Host:       moses-razer
    PSIDATADIR: /home/kchung25/anaconda3/envs/psi4_19/share/psi4
    Memory:     500.0 MiB
    Threads:    6
    
  ==> Input File <==

--------------------------------------------------------------------------
MEMORY 60 GB

molecule dimer {
1 1
Gh(O)      0.000000     0.000000     0.000000
Gh(H)     -0.588538     0.000000     0.756918
Gh(H)     -0.588538     0.000000    -0.756918
K          2.162333     2.162333     0.000000
Gh(K)      2.162333    -2.162333     0.000000

units ang
no_reorient
no_com
symmetry c1
}

set {
basis        aug-cc-pVTZ
scf_type     df
}

energy("mp2")
--------------------------------------------------------------------------

  Memory set to  55.879 GiB by Python driver.

Scratch directory: /scratch/
   => Libint2 <=

    Primary   basis highest AM E, G, H:  5, 4, 3
    Auxiliary basis highest AM E, G, H:  6, 5, 4
    Onebody   basis highest AM E, G, H:  6, 5, 4
    Solid Harmonics ordering:            gaussian

*** tstart() called on moses-razer
*** at Wed Jan 24 14:57:34 2024

   => Loading Basis Set <=

    Name: AUG-CC-PVTZ
    Role: ORBITAL
    Keyword: BASIS
    atoms 1   entry O          line   331 file /home/kchung25/anaconda3/envs/p415env/share/psi4/basis/aug-cc-pvtz.gbs 
    atoms 2-3 entry H          line    40 file /home/kchung25/anaconda3/envs/p415env/share/psi4/basis/aug-cc-pvtz.gbs 
    atoms 4-5 entry K          line  1152 file /home/kchung25/anaconda3/envs/p415env/share/psi4/basis/aug-cc-pvtz.gbs 


         ---------------------------------------------------------
                                   SCF
               by Justin Turney, Rob Parrish, Andy Simmonett
                          and Daniel G. A. Smith
                              RHF Reference
                        6 Threads,  57220 MiB Core
         ---------------------------------------------------------

  ==> Geometry <==

    Molecular point group: c1
    Full point group: Cs

    Geometry (in Angstrom), charge = 1, multiplicity = 1:

       Center              X                  Y                   Z               Mass       
    ------------   -----------------  -----------------  -----------------  -----------------
      Gh(O)           0.000000000000     0.000000000000     0.000000000000    15.994914619570
      Gh(H)          -0.588538000000     0.000000000000     0.756918000000     1.007825032230
      Gh(H)          -0.588538000000     0.000000000000    -0.756918000000     1.007825032230
         K            2.162333000000     2.162333000000     0.000000000000    38.963706486400
      Gh(K)           2.162333000000    -2.162333000000     0.000000000000    38.963706486400

  Running in c1 symmetry.

  Rotational constants: A =      0.04612  B =      0.04603  C =      0.02311 [cm^-1]
  Rotational constants: A =   1382.63489  B =   1379.99896  C =    692.84471 [MHz]
  Nuclear repulsion =    0.000000000000000

  Charge       = 1
  Multiplicity = 1
  Electrons    = 18
  Nalpha       = 9
  Nbeta        = 9

  ==> Algorithm <==

  SCF Algorithm Type is DF.
  DIIS enabled.
  MOM disabled.
  Fractional occupation disabled.
  Guess Type is SAD.
  Energy threshold   = 1.00e-08
  Density threshold  = 1.00e-08
  Integral threshold = 1.00e-12

  ==> Primary Basis <==

  Basis Set: AUG-CC-PVTZ
    Blend: AUG-CC-PVTZ
    Number of shells: 70
    Number of basis functions: 210
    Number of Cartesian functions: 243
    Spherical Harmonics?: true
    Max angular momentum: 3

   => Loading Basis Set <=

    Name: (AUG-CC-PVTZ AUX)
    Role: JKFIT
    Keyword: DF_BASIS_SCF
    atoms 1   entry O          line   286 file /home/kchung25/anaconda3/envs/p415env/share/psi4/basis/aug-cc-pvtz-jkfit.gbs 
    atoms 2-3 entry H          line    70 file /home/kchung25/anaconda3/envs/p415env/share/psi4/basis/aug-cc-pvtz-jkfit.gbs 
    atoms 4-5 entry K          line  1152 file /home/kchung25/anaconda3/envs/p415env/share/psi4/basis/def2-universal-jkfit.gbs 

  ==> Integral Setup <==

  DFHelper Memory: AOs need 0.182 GiB; user supplied 41.910 GiB. 
  Using in-core AOs.

  ==> MemDFJK: Density-Fitted J/K Matrices <==

    J tasked:                   Yes
    K tasked:                   Yes
    wK tasked:                   No
    OpenMP threads:               6
    Memory [MiB]:             42915
    Algorithm:                 Core
    Schwarz Cutoff:           1E-12
    Mask sparsity (%):       0.0000
    Fitting Condition:        1E-10

   => Auxiliary Basis Set <=

  Basis Set: (AUG-CC-PVTZ AUX)
    Blend: AUG-CC-PVTZ-JKFIT + DEF2-UNIVERSAL-JKFIT
    Number of shells: 146
    Number of basis functions: 516
    Number of Cartesian functions: 647
    Spherical Harmonics?: true
    Max angular momentum: 4

  Minimum eigenvalue in the overlap matrix is 1.4209317631E-05.
  Reciprocal condition number of the overlap matrix is 1.2737829695E-06.
    Using symmetric orthogonalization.

  ==> Pre-Iterations <==

  SCF Guess: Superposition of Atomic Densities via on-the-fly atomic UHF (no occupation information).

   -------------------------
    Irrep   Nso     Nmo    
   -------------------------
     A        210     210 
   -------------------------
    Total     210     210
   -------------------------

  ==> Iterations <==

                           Total Energy        Delta E     RMS |[F,P]|

   @DF-RHF iter SAD:  -599.05150663632628   -5.99052e+02   0.00000e+00 
   @DF-RHF iter   1:  -599.01748290898081    3.40237e-02   3.02653e-05 DIIS
   @DF-RHF iter   2:  -599.01750830922299   -2.54002e-05   4.20597e-06 DIIS
   @DF-RHF iter   3:  -599.01750892803636   -6.18813e-07   3.38012e-07 DIIS
   @DF-RHF iter   4:  -599.01750893112307   -3.08671e-09   4.06906e-08 DIIS
   @DF-RHF iter   5:  -599.01750893117071   -4.76348e-11   8.08984e-09 DIIS
  Energy and wave function converged.


  ==> Post-Iterations <==

    Orbital Energies [Eh]
    ---------------------

    Doubly Occupied:                                                      

       1A   -133.753594     2A    -14.709074     3A    -11.739142  
       4A    -11.739138     5A    -11.739137     6A     -1.964295  
       7A     -1.170929     8A     -1.170895     9A     -1.170883  

    Virtual:                                                              

      10A     -0.146971    11A     -0.095560    12A     -0.095554  
      13A     -0.095552    14A     -0.060913    15A     -0.057903  
      16A     -0.057877    17A     -0.057827    18A     -0.057766  
      19A     -0.057759    20A     -0.045544    21A     -0.045538  
      22A     -0.045536    23A     -0.032478    24A     -0.032338  
      25A     -0.032315    26A     -0.031315    27A     -0.031293  
      28A     -0.031093    29A     -0.029871    30A     -0.029859  
      31A     -0.029311    32A     -0.028399    33A     -0.028363  
      34A     -0.022694    35A     -0.018920    36A     -0.018754  
      37A     -0.016008    38A     -0.015975    39A     -0.012715  
      40A     -0.010730    41A     -0.009984    42A     -0.005781  
      43A     -0.004966    44A     -0.004789    45A     -0.001421  
      46A     -0.001399    47A      0.003410    48A      0.008270  
      49A      0.010698    50A      0.010899    51A      0.016377  
      52A      0.017238    53A      0.017484    54A      0.019968  
      55A      0.020399    56A      0.025559    57A      0.030315  
      58A      0.031568    59A      0.032265    60A      0.033326  
      61A      0.050513    62A      0.053816    63A      0.054928  
      64A      0.067601    65A      0.069953    66A      0.070420  
      67A      0.073162    68A      0.079758    69A      0.085469  
      70A      0.095552    71A      0.096556    72A      0.100087  
      73A      0.102993    74A      0.114091    75A      0.114856  
      76A      0.115663    77A      0.123001    78A      0.124218  
      79A      0.129546    80A      0.144370    81A      0.146365  
      82A      0.153419    83A      0.159487    84A      0.181704  
      85A      0.190110    86A      0.194185    87A      0.208297  
      88A      0.215710    89A      0.226112    90A      0.231079  
      91A      0.239005    92A      0.245082    93A      0.247593  
      94A      0.248146    95A      0.260119    96A      0.261213  
      97A      0.270870    98A      0.277461    99A      0.291832  
     100A      0.291930   101A      0.300507   102A      0.304732  
     103A      0.313695   104A      0.328462   105A      0.337864  
     106A      0.349323   107A      0.360423   108A      0.366267  
     109A      0.378079   110A      0.380634   111A      0.405505  
     112A      0.411655   113A      0.423647   114A      0.431315  
     115A      0.449905   116A      0.469450   117A      0.564021  
     118A      0.591351   119A      0.674676   120A      0.684598  
     121A      0.708007   122A      0.716514   123A      0.732587  
     124A      0.760415   125A      0.801119   126A      0.818245  
     127A      0.835735   128A      0.873942   129A      0.904004  
     130A      0.938243   131A      0.999215   132A      1.009187  
     133A      1.054209   134A      1.083379   135A      1.086096  
     136A      1.117196   137A      1.121079   138A      1.317266  
     139A      1.373769   140A      1.581310   141A      1.602965  
     142A      1.620278   143A      1.677717   144A      1.711406  
     145A      1.753607   146A      1.793961   147A      1.839975  
     148A      1.850977   149A      1.895081   150A      1.921841  
     151A      1.930547   152A      2.000862   153A      2.090038  
     154A      2.189631   155A      2.272137   156A      2.325159  
     157A      2.370256   158A      2.399253   159A      2.401177  
     160A      2.420611   161A      2.570661   162A      2.622025  
     163A      2.718650   164A      3.039503   165A      3.064447  
     166A      3.131281   167A      3.183337   168A      3.192990  
     169A      3.429644   170A      3.531599   171A      4.220888  
     172A      4.320673   173A      4.375584   174A      4.471430  
     175A      4.527208   176A      4.581203   177A      4.753765  
     178A      4.777248   179A      4.789748   180A      5.059858  
     181A      5.400614   182A      5.477056   183A      5.500734  
     184A      5.702862   185A      5.948161   186A      6.241188  
     187A      6.504127   188A      6.927622   189A      7.503300  
     190A      7.657270   191A      7.926057   192A      8.000461  
     193A      8.123195   194A      8.584833   195A      8.672660  
     196A      9.537900   197A      9.758044   198A      9.842440  
     199A      9.966806   200A     10.060615   201A     11.077294  
     202A     11.500453   203A     11.991937   204A     13.384709  
     205A     13.657725   206A     30.160757   207A     30.214137  
     208A     30.441984   209A     64.598013   210A    197.400641  

    Final Occupation by Irrep:
              A 
    DOCC [     9 ]
    NA   [     9 ]
    NB   [     9 ]

  @DF-RHF Final Energy:  -599.01750893117071

   => Energetics <=

    Nuclear Repulsion Energy =              0.0000000000000000
    One-Electron Energy =                -819.7208485752897786
    Two-Electron Energy =                 220.7033396441190121
    Total Energy =                       -599.0175089311708234

Computation Completed


Properties will be evaluated at   0.000000,   0.000000,   0.000000 [a0]

Properties computed using the SCF density matrix


 Multipole Moments:

 ------------------------------------------------------------------------------------
     Multipole            Electronic (a.u.)      Nuclear  (a.u.)        Total (a.u.)
 ------------------------------------------------------------------------------------

 L = 1.  Multiply by 2.5417464519 to convert [e a0] to [Debye]
 Dipole X            :        -73.5521267           77.6381261            4.0859994
 Dipole Y            :        -73.5522724           77.6381261            4.0858536
 Dipole Z            :         -0.0000000            0.0000000           -0.0000000
 Magnitude           :                                                    5.7783727

 ------------------------------------------------------------------------------------

*** tstop() called on moses-razer at Wed Jan 24 14:57:48 2024
Module time:
	user time   =      21.42 seconds =       0.36 minutes
	system time =       2.75 seconds =       0.05 minutes
	total time  =         14 seconds =       0.23 minutes
Total time:
	user time   =      21.42 seconds =       0.36 minutes
	system time =       2.75 seconds =       0.05 minutes
	total time  =         14 seconds =       0.23 minutes

*** tstart() called on moses-razer
*** at Wed Jan 24 14:57:48 2024


  //>>>>>>>>>>>>>>>>>>>>>>>>>>>>>>>>>>>//
  //               DFMP2               //
  //<<<<<<<<<<<<<<<<<<<<<<<<<<<<<<<<<<<//

   => Loading Basis Set <=

    Name: (AUG-CC-PVTZ AUX)
    Role: RIFIT
    Keyword: DF_BASIS_MP2
    atoms 1   entry O          line   264 file /home/kchung25/anaconda3/envs/p415env/share/psi4/basis/aug-cc-pvtz-ri.gbs 
    atoms 2-3 entry H          line    30 file /home/kchung25/anaconda3/envs/p415env/share/psi4/basis/aug-cc-pvtz-ri.gbs 
    atoms 4-5 entry K          line  1282 file /home/kchung25/anaconda3/envs/p415env/share/psi4/basis/def2-qzvpp-ri.gbs 

	 --------------------------------------------------------
	                          DF-MP2                         
	      2nd-Order Density-Fitted Moller-Plesset Theory     
	              RMP2 Wavefunction,   6 Threads             
	                                                         
	        Rob Parrish, Justin Turney, Andy Simmonett,      
	           Ed Hohenstein, and C. David Sherrill          
	 --------------------------------------------------------

   => Auxiliary Basis Set <=

  Basis Set: (AUG-CC-PVTZ AUX)
    Blend: AUG-CC-PVTZ-RI + DEF2-QZVPP-RI
    Number of shells: 154
    Number of basis functions: 596
    Number of Cartesian functions: 770
    Spherical Harmonics?: true
    Max angular momentum: 4

	 --------------------------------------------------------
	                 NBF =   210, NAUX =   596
	 --------------------------------------------------------
	   CLASS    FOCC     OCC    AOCC    AVIR     VIR    FVIR
	   PAIRS       0       9       9     201     201       0
	 --------------------------------------------------------

	-----------------------------------------------------------
	 ==================> DF-MP2 Energies <==================== 
	-----------------------------------------------------------
	 Reference Energy          =    -599.0175089311707097 [Eh]
	 Singles Energy            =      -0.0000000000000000 [Eh]
	 Same-Spin Energy          =      -0.0285441276605168 [Eh]
	 Opposite-Spin Energy      =      -0.0668521367206200 [Eh]
	 Correlation Energy        =      -0.0953962643811367 [Eh]
	 Total Energy              =    -599.1129051955518889 [Eh]
	-----------------------------------------------------------
	 ================> DF-SCS-MP2 Energies <================== 
	-----------------------------------------------------------
	 SCS Same-Spin Scale       =       0.3333333333333333 [-]
	 SCS Opposite-Spin Scale   =       1.2000000000000000 [-]
	 SCS Same-Spin Energy      =      -0.0095147092201723 [Eh]
	 SCS Opposite-Spin Energy  =      -0.0802225640647439 [Eh]
	 SCS Correlation Energy    =      -0.0897372732849162 [Eh]
	 SCS Total Energy          =    -599.1072462044555778 [Eh]
	-----------------------------------------------------------


*** tstop() called on moses-razer at Wed Jan 24 14:58:01 2024
Module time:
	user time   =      16.22 seconds =       0.27 minutes
	system time =       0.81 seconds =       0.01 minutes
	total time  =         13 seconds =       0.22 minutes
Total time:
	user time   =      37.64 seconds =       0.63 minutes
	system time =       3.56 seconds =       0.06 minutes
	total time  =         27 seconds =       0.45 minutes

    Psi4 stopped on: Wednesday, 24 January 2024 02:58PM
    Psi4 wall time for execution: 0:00:27.12

*** Psi4 exiting successfully. Buy a developer a beer!
