
    -----------------------------------------------------------------------
          Psi4: An Open-Source Ab Initio Electronic Structure Package
                               Psi4 1.9 release

                         Git: Rev {} zzzzzzz 


    D. G. A. Smith, L. A. Burns, A. C. Simmonett, R. M. Parrish,
    M. C. Schieber, R. Galvelis, P. Kraus, H. Kruse, R. Di Remigio,
    A. Alenaizan, A. M. James, S. Lehtola, J. P. Misiewicz, M. Scheurer,
    R. A. Shaw, J. B. Schriber, Y. Xie, Z. L. Glick, D. A. Sirianni,
    J. S. O'Brien, J. M. Waldrop, A. Kumar, E. G. Hohenstein,
    B. P. Pritchard, B. R. Brooks, H. F. Schaefer III, A. Yu. Sokolov,
    K. Patkowski, A. E. DePrince III, U. Bozkaya, R. A. King,
    F. A. Evangelista, J. M. Turney, T. D. Crawford, C. D. Sherrill,
    J. Chem. Phys. 152(18) 184108 (2020). https://doi.org/10.1063/5.0006002

                            Additional Code Authors
    E. T. Seidl, C. L. Janssen, E. F. Valeev, M. L. Leininger,
    J. F. Gonthier, R. M. Richard, H. R. McAlexander, M. Saitow, X. Wang,
    P. Verma, M. H. Lechner, A. Jiang, S. Behnle, A. G. Heide,
    M. F. Herbst, and D. L. Poole

             Previous Authors, Complete List of Code Contributors,
                       and Citations for Specific Modules
    https://github.com/psi4/psi4/blob/master/codemeta.json
    https://github.com/psi4/psi4/graphs/contributors
    http://psicode.org/psi4manual/master/introduction.html#citing-psifour

    -----------------------------------------------------------------------


    Psi4 started on: Wednesday, 24 January 2024 02:58PM

    Process ID: 1215959
    Host:       moses-razer
    PSIDATADIR: /home/kchung25/anaconda3/envs/psi4_19/share/psi4
    Memory:     500.0 MiB
    Threads:    6
    
  ==> Input File <==

--------------------------------------------------------------------------
MEMORY 60 GB

molecule dimer {
0 1
O          0.000000     0.000000     0.000000
H         -0.588538     0.000000     0.756918
H         -0.588538     0.000000    -0.756918
Gh(K)      2.358908     2.358908     0.000000
Gh(K)      2.358908    -2.358908     0.000000

units ang
no_reorient
no_com
symmetry c1
}

set {
basis        aug-cc-pVTZ
scf_type     df
}

energy("mp2")
--------------------------------------------------------------------------

  Memory set to  55.879 GiB by Python driver.

Scratch directory: /scratch/
   => Libint2 <=

    Primary   basis highest AM E, G, H:  5, 4, 3
    Auxiliary basis highest AM E, G, H:  6, 5, 4
    Onebody   basis highest AM E, G, H:  6, 5, 4
    Solid Harmonics ordering:            gaussian

*** tstart() called on moses-razer
*** at Wed Jan 24 14:58:58 2024

   => Loading Basis Set <=

    Name: AUG-CC-PVTZ
    Role: ORBITAL
    Keyword: BASIS
    atoms 1   entry O          line   331 file /home/kchung25/anaconda3/envs/p415env/share/psi4/basis/aug-cc-pvtz.gbs 
    atoms 2-3 entry H          line    40 file /home/kchung25/anaconda3/envs/p415env/share/psi4/basis/aug-cc-pvtz.gbs 
    atoms 4-5 entry K          line  1152 file /home/kchung25/anaconda3/envs/p415env/share/psi4/basis/aug-cc-pvtz.gbs 


         ---------------------------------------------------------
                                   SCF
               by Justin Turney, Rob Parrish, Andy Simmonett
                          and Daniel G. A. Smith
                              RHF Reference
                        6 Threads,  57220 MiB Core
         ---------------------------------------------------------

  ==> Geometry <==

    Molecular point group: c1
    Full point group: C2v

    Geometry (in Angstrom), charge = 0, multiplicity = 1:

       Center              X                  Y                   Z               Mass       
    ------------   -----------------  -----------------  -----------------  -----------------
         O            0.000000000000     0.000000000000     0.000000000000    15.994914619570
         H           -0.588538000000     0.000000000000     0.756918000000     1.007825032230
         H           -0.588538000000     0.000000000000    -0.756918000000     1.007825032230
      Gh(K)           2.358908000000     2.358908000000     0.000000000000    38.963706486400
      Gh(K)           2.358908000000    -2.358908000000     0.000000000000    38.963706486400

  Running in c1 symmetry.

  Rotational constants: A =      0.03877  B =      0.03871  C =      0.01942 [cm^-1]
  Rotational constants: A =   1162.38465  B =   1160.52106  C =    582.27139 [MHz]
  Nuclear repulsion =    9.180197847927069

  Charge       = 0
  Multiplicity = 1
  Electrons    = 10
  Nalpha       = 5
  Nbeta        = 5

  ==> Algorithm <==

  SCF Algorithm Type is DF.
  DIIS enabled.
  MOM disabled.
  Fractional occupation disabled.
  Guess Type is SAD.
  Energy threshold   = 1.00e-08
  Density threshold  = 1.00e-08
  Integral threshold = 1.00e-12

  ==> Primary Basis <==

  Basis Set: AUG-CC-PVTZ
    Blend: AUG-CC-PVTZ
    Number of shells: 70
    Number of basis functions: 210
    Number of Cartesian functions: 243
    Spherical Harmonics?: true
    Max angular momentum: 3

   => Loading Basis Set <=

    Name: (AUG-CC-PVTZ AUX)
    Role: JKFIT
    Keyword: DF_BASIS_SCF
    atoms 1   entry O          line   286 file /home/kchung25/anaconda3/envs/p415env/share/psi4/basis/aug-cc-pvtz-jkfit.gbs 
    atoms 2-3 entry H          line    70 file /home/kchung25/anaconda3/envs/p415env/share/psi4/basis/aug-cc-pvtz-jkfit.gbs 
    atoms 4-5 entry K          line  1152 file /home/kchung25/anaconda3/envs/p415env/share/psi4/basis/def2-universal-jkfit.gbs 

  ==> Integral Setup <==

  DFHelper Memory: AOs need 0.182 GiB; user supplied 41.910 GiB. 
  Using in-core AOs.

  ==> MemDFJK: Density-Fitted J/K Matrices <==

    J tasked:                   Yes
    K tasked:                   Yes
    wK tasked:                   No
    OpenMP threads:               6
    Memory [MiB]:             42915
    Algorithm:                 Core
    Schwarz Cutoff:           1E-12
    Mask sparsity (%):       0.0000
    Fitting Condition:        1E-10

   => Auxiliary Basis Set <=

  Basis Set: (AUG-CC-PVTZ AUX)
    Blend: AUG-CC-PVTZ-JKFIT + DEF2-UNIVERSAL-JKFIT
    Number of shells: 146
    Number of basis functions: 516
    Number of Cartesian functions: 647
    Spherical Harmonics?: true
    Max angular momentum: 4

  Minimum eigenvalue in the overlap matrix is 2.3007191630E-05.
  Reciprocal condition number of the overlap matrix is 2.1073597130E-06.
    Using symmetric orthogonalization.

  ==> Pre-Iterations <==

  SCF Guess: Superposition of Atomic Densities via on-the-fly atomic UHF (no occupation information).

   -------------------------
    Irrep   Nso     Nmo    
   -------------------------
     A        210     210 
   -------------------------
    Total     210     210
   -------------------------

  ==> Iterations <==

                           Total Energy        Delta E     RMS |[F,P]|

   @DF-RHF iter SAD:   -75.47651207665437   -7.54765e+01   0.00000e+00 
   @DF-RHF iter   1:   -75.97616181938163   -4.99650e-01   2.23138e-03 DIIS/ADIIS
   @DF-RHF iter   2:   -76.02869163065836   -5.25298e-02   1.52013e-03 DIIS/ADIIS
   @DF-RHF iter   3:   -76.06009546165679   -3.14038e-02   1.03620e-04 DIIS/ADIIS
   @DF-RHF iter   4:   -76.06048531445084   -3.89853e-04   2.46060e-05 DIIS
   @DF-RHF iter   5:   -76.06050940965414   -2.40952e-05   5.59644e-06 DIIS
   @DF-RHF iter   6:   -76.06051138262629   -1.97297e-06   1.22507e-06 DIIS
   @DF-RHF iter   7:   -76.06051148675277   -1.04126e-07   2.21530e-07 DIIS
   @DF-RHF iter   8:   -76.06051148974531   -2.99254e-09   3.69147e-08 DIIS
   @DF-RHF iter   9:   -76.06051148981075   -6.54410e-11   9.08447e-09 DIIS
  Energy and wave function converged.


  ==> Post-Iterations <==

    Orbital Energies [Eh]
    ---------------------

    Doubly Occupied:                                                      

       1A    -20.567539     2A     -1.352945     3A     -0.716480  
       4A     -0.585113     5A     -0.510288  

    Virtual:                                                              

       6A      0.004050     7A      0.008018     8A      0.008841  
       9A      0.009409    10A      0.012369    11A      0.012577  
      12A      0.014525    13A      0.017983    14A      0.018045  
      15A      0.020473    16A      0.021409    17A      0.024184  
      18A      0.024291    19A      0.024379    20A      0.024906  
      21A      0.026721    22A      0.029415    23A      0.029597  
      24A      0.033580    25A      0.035701    26A      0.044234  
      27A      0.048244    28A      0.049441    29A      0.052628  
      30A      0.052836    31A      0.061147    32A      0.061566  
      33A      0.064348    34A      0.070849    35A      0.073798  
      36A      0.074033    37A      0.074499    38A      0.074934  
      39A      0.078461    40A      0.078915    41A      0.080145  
      42A      0.081021    43A      0.098231    44A      0.103799  
      45A      0.104841    46A      0.114899    47A      0.125528  
      48A      0.125671    49A      0.126037    50A      0.137513  
      51A      0.143228    52A      0.147340    53A      0.158647  
      54A      0.159103    55A      0.171015    56A      0.172682  
      57A      0.180146    58A      0.180832    59A      0.184233  
      60A      0.185461    61A      0.186313    62A      0.186930  
      63A      0.190535    64A      0.193486    65A      0.203992  
      66A      0.204890    67A      0.217781    68A      0.225869  
      69A      0.226240    70A      0.240643    71A      0.242368  
      72A      0.242402    73A      0.246914    74A      0.259469  
      75A      0.266436    76A      0.271321    77A      0.276433  
      78A      0.283672    79A      0.309974    80A      0.318200  
      81A      0.327604    82A      0.344799    83A      0.356368  
      84A      0.370314    85A      0.371971    86A      0.377876  
      87A      0.394874    88A      0.408649    89A      0.436456  
      90A      0.456002    91A      0.457932    92A      0.462930  
      93A      0.464455    94A      0.478144    95A      0.481898  
      96A      0.484388    97A      0.484418    98A      0.493472  
      99A      0.505639   100A      0.519273   101A      0.520446  
     102A      0.522679   103A      0.544652   104A      0.546474  
     105A      0.570125   106A      0.577202   107A      0.583906  
     108A      0.688079   109A      0.696455   110A      0.705754  
     111A      0.729849   112A      0.777176   113A      0.803679  
     114A      0.868468   115A      0.898061   116A      0.917293  
     117A      0.952500   118A      0.982713   119A      1.021889  
     120A      1.051722   121A      1.059529   122A      1.103779  
     123A      1.142268   124A      1.145164   125A      1.172351  
     126A      1.181255   127A      1.190096   128A      1.242248  
     129A      1.320558   130A      1.542468   131A      1.547130  
     132A      1.617140   133A      1.799830   134A      1.833044  
     135A      1.843958   136A      1.846074   137A      1.857382  
     138A      1.890177   139A      1.892162   140A      1.920258  
     141A      1.927339   142A      1.937341   143A      1.955422  
     144A      1.977063   145A      1.978846   146A      1.988857  
     147A      2.042727   148A      2.059020   149A      2.125850  
     150A      2.137379   151A      2.165136   152A      2.189958  
     153A      2.239364   154A      2.259192   155A      2.346363  
     156A      2.391485   157A      2.482342   158A      2.486364  
     159A      2.486401   160A      2.528801   161A      2.689900  
     162A      2.700918   163A      2.813821   164A      2.823735  
     165A      2.860312   166A      2.919826   167A      3.700927  
     168A      3.834714   169A      4.034032   170A      4.181044  
     171A      4.206437   172A      4.258812   173A      4.303161  
     174A      4.417035   175A      4.420690   176A      4.455580  
     177A      4.529762   178A      4.782684   179A      4.877667  
     180A      5.156469   181A      5.163837   182A      5.273744  
     183A      5.344366   184A      5.536281   185A      5.733717  
     186A      6.237017   187A      6.543255   188A      6.724478  
     189A      6.919568   190A      7.184534   191A      7.323035  
     192A      7.329236   193A      7.342128   194A      7.382160  
     195A      7.385544   196A      7.578427   197A      7.918913  
     198A      7.938036   199A      8.826950   200A      9.992518  
     201A      9.998023   202A     15.868740   203A     30.240463  
     204A     30.247764   205A     30.309678   206A     30.347999  
     207A     30.418953   208A     30.676988   209A    197.363204  
     210A    197.374837  

    Final Occupation by Irrep:
              A 
    DOCC [     5 ]
    NA   [     5 ]
    NB   [     5 ]

  @DF-RHF Final Energy:   -76.06051148981075

   => Energetics <=

    Nuclear Repulsion Energy =              9.1801978479270687
    One-Electron Energy =                -123.0166862647312769
    Two-Electron Energy =                  37.7759769269934580
    Total Energy =                        -76.0605114898107502

Computation Completed


Properties will be evaluated at   0.000000,   0.000000,   0.000000 [a0]

Properties computed using the SCF density matrix


 Multipole Moments:

 ------------------------------------------------------------------------------------
     Multipole            Electronic (a.u.)      Nuclear  (a.u.)        Total (a.u.)
 ------------------------------------------------------------------------------------

 L = 1.  Multiply by 2.5417464519 to convert [e a0] to [Debye]
 Dipole X            :          1.4423529           -2.2243513           -0.7819984
 Dipole Y            :          0.0000000            0.0000000            0.0000000
 Dipole Z            :          0.0000000            0.0000000            0.0000000
 Magnitude           :                                                    0.7819984

 ------------------------------------------------------------------------------------

*** tstop() called on moses-razer at Wed Jan 24 14:59:10 2024
Module time:
	user time   =      18.94 seconds =       0.32 minutes
	system time =       1.40 seconds =       0.02 minutes
	total time  =         12 seconds =       0.20 minutes
Total time:
	user time   =      18.94 seconds =       0.32 minutes
	system time =       1.40 seconds =       0.02 minutes
	total time  =         12 seconds =       0.20 minutes

*** tstart() called on moses-razer
*** at Wed Jan 24 14:59:10 2024


  //>>>>>>>>>>>>>>>>>>>>>>>>>>>>>>>>>>>//
  //               DFMP2               //
  //<<<<<<<<<<<<<<<<<<<<<<<<<<<<<<<<<<<//

   => Loading Basis Set <=

    Name: (AUG-CC-PVTZ AUX)
    Role: RIFIT
    Keyword: DF_BASIS_MP2
    atoms 1   entry O          line   264 file /home/kchung25/anaconda3/envs/p415env/share/psi4/basis/aug-cc-pvtz-ri.gbs 
    atoms 2-3 entry H          line    30 file /home/kchung25/anaconda3/envs/p415env/share/psi4/basis/aug-cc-pvtz-ri.gbs 
    atoms 4-5 entry K          line  1282 file /home/kchung25/anaconda3/envs/p415env/share/psi4/basis/def2-qzvpp-ri.gbs 

	 --------------------------------------------------------
	                          DF-MP2                         
	      2nd-Order Density-Fitted Moller-Plesset Theory     
	              RMP2 Wavefunction,   6 Threads             
	                                                         
	        Rob Parrish, Justin Turney, Andy Simmonett,      
	           Ed Hohenstein, and C. David Sherrill          
	 --------------------------------------------------------

   => Auxiliary Basis Set <=

  Basis Set: (AUG-CC-PVTZ AUX)
    Blend: AUG-CC-PVTZ-RI + DEF2-QZVPP-RI
    Number of shells: 154
    Number of basis functions: 596
    Number of Cartesian functions: 770
    Spherical Harmonics?: true
    Max angular momentum: 4

	 --------------------------------------------------------
	                 NBF =   210, NAUX =   596
	 --------------------------------------------------------
	   CLASS    FOCC     OCC    AOCC    AVIR     VIR    FVIR
	   PAIRS       0       5       5     205     205       0
	 --------------------------------------------------------

	-----------------------------------------------------------
	 ==================> DF-MP2 Energies <==================== 
	-----------------------------------------------------------
	 Reference Energy          =     -76.0605114898107502 [Eh]
	 Singles Energy            =      -0.0000000000000000 [Eh]
	 Same-Spin Energy          =      -0.0683931820946830 [Eh]
	 Opposite-Spin Energy      =      -0.2154384417855960 [Eh]
	 Correlation Energy        =      -0.2838316238802790 [Eh]
	 Total Energy              =     -76.3443431136910249 [Eh]
	-----------------------------------------------------------
	 ================> DF-SCS-MP2 Energies <================== 
	-----------------------------------------------------------
	 SCS Same-Spin Scale       =       0.3333333333333333 [-]
	 SCS Opposite-Spin Scale   =       1.2000000000000000 [-]
	 SCS Same-Spin Energy      =      -0.0227977273648943 [Eh]
	 SCS Opposite-Spin Energy  =      -0.2585261301427152 [Eh]
	 SCS Correlation Energy    =      -0.2813238575076095 [Eh]
	 SCS Total Energy          =     -76.3418353473183657 [Eh]
	-----------------------------------------------------------


*** tstop() called on moses-razer at Wed Jan 24 14:59:23 2024
Module time:
	user time   =      16.46 seconds =       0.27 minutes
	system time =       0.88 seconds =       0.01 minutes
	total time  =         13 seconds =       0.22 minutes
Total time:
	user time   =      35.40 seconds =       0.59 minutes
	system time =       2.28 seconds =       0.04 minutes
	total time  =         25 seconds =       0.42 minutes

    Psi4 stopped on: Wednesday, 24 January 2024 02:59PM
    Psi4 wall time for execution: 0:00:25.72

*** Psi4 exiting successfully. Buy a developer a beer!
