
    -----------------------------------------------------------------------
          Psi4: An Open-Source Ab Initio Electronic Structure Package
                               Psi4 1.8.2 release

                         Git: Rev {} zzzzzzz 


    D. G. A. Smith, L. A. Burns, A. C. Simmonett, R. M. Parrish,
    M. C. Schieber, R. Galvelis, P. Kraus, H. Kruse, R. Di Remigio,
    A. Alenaizan, A. M. James, S. Lehtola, J. P. Misiewicz, M. Scheurer,
    R. A. Shaw, J. B. Schriber, Y. Xie, Z. L. Glick, D. A. Sirianni,
    J. S. O'Brien, J. M. Waldrop, A. Kumar, E. G. Hohenstein,
    B. P. Pritchard, B. R. Brooks, H. F. Schaefer III, A. Yu. Sokolov,
    K. Patkowski, A. E. DePrince III, U. Bozkaya, R. A. King,
    F. A. Evangelista, J. M. Turney, T. D. Crawford, C. D. Sherrill,
    J. Chem. Phys. 152(18) 184108 (2020). https://doi.org/10.1063/5.0006002

                            Additional Code Authors
    E. T. Seidl, C. L. Janssen, E. F. Valeev, M. L. Leininger,
    J. F. Gonthier, R. M. Richard, H. R. McAlexander, M. Saitow, X. Wang,
    P. Verma, M. H. Lechner, A. Jiang, S. Behnle, A. G. Heide,
    M. F. Herbst, and D. L. Poole

             Previous Authors, Complete List of Code Contributors,
                       and Citations for Specific Modules
    https://github.com/psi4/psi4/blob/master/codemeta.json
    https://github.com/psi4/psi4/graphs/contributors
    http://psicode.org/psi4manual/master/introduction.html#citing-psifour

    -----------------------------------------------------------------------


    Psi4 started on: Monday, 22 January 2024 12:36PM

    Process ID: 49607
    Host:       ddmfs1
    PSIDATADIR: /ddmfs1b/softs/psi4conda/share/psi4
    Memory:     500.0 MiB
    Threads:    20
    
  ==> Input File <==

--------------------------------------------------------------------------
MEMORY 60 GB

molecule dimer {
-2 1
O          0.000000     0.000000     0.000000
H          0.588538     0.756918     0.000000
H          0.588538    -0.756918     0.000000
F          2.895602     2.895602     0.000000
F          2.895602    -2.895602     0.000000

units ang
no_reorient
no_com
symmetry c1
}

set {
basis        aug-cc-pVTZ
scf_type     df
}

energy("mp2")
--------------------------------------------------------------------------

  Memory set to  55.879 GiB by Python driver.

Scratch directory: /ddmfs1a/scratch/
   => Libint2 <=

    Primary   basis highest AM E, G, H:  5, 4, 3
    Auxiliary basis highest AM E, G, H:  6, 5, 4
    Onebody   basis highest AM E, G, H:  6, 5, 4
    Solid Harmonics ordering:            gaussian

*** tstart() called on ddmfs1
*** at Mon Jan 22 12:36:53 2024

   => Loading Basis Set <=

    Name: AUG-CC-PVTZ
    Role: ORBITAL
    Keyword: BASIS
    atoms 1   entry O          line   331 file /ddmfs1b/softs/psi4conda/share/psi4/basis/aug-cc-pvtz.gbs 
    atoms 2-3 entry H          line    40 file /ddmfs1b/softs/psi4conda/share/psi4/basis/aug-cc-pvtz.gbs 
    atoms 4-5 entry F          line   377 file /ddmfs1b/softs/psi4conda/share/psi4/basis/aug-cc-pvtz.gbs 


         ---------------------------------------------------------
                                   SCF
               by Justin Turney, Rob Parrish, Andy Simmonett
                          and Daniel G. A. Smith
                              RHF Reference
                       20 Threads,  57220 MiB Core
         ---------------------------------------------------------

  ==> Geometry <==

    Molecular point group: c1
    Full point group: C2v

    Geometry (in Angstrom), charge = -2, multiplicity = 1:

       Center              X                  Y                   Z               Mass       
    ------------   -----------------  -----------------  -----------------  -----------------
         O            0.000000000000     0.000000000000     0.000000000000    15.994914619570
         H            0.588538000000     0.756918000000     0.000000000000     1.007825032230
         H            0.588538000000    -0.756918000000     0.000000000000     1.007825032230
         F            2.895602000000     2.895602000000     0.000000000000    18.998403162730
         F            2.895602000000    -2.895602000000     0.000000000000    18.998403162730

  Running in c1 symmetry.

  Rotational constants: A =      0.05280  B =      0.05272  C =      0.02638 [cm^-1]
  Rotational constants: A =   1582.85692  B =   1580.59633  C =    790.86291 [MHz]
  Nuclear repulsion =   40.422767572903325

  Charge       = -2
  Multiplicity = 1
  Electrons    = 30
  Nalpha       = 15
  Nbeta        = 15

  ==> Algorithm <==

  SCF Algorithm Type is DF.
  DIIS enabled.
  MOM disabled.
  Fractional occupation disabled.
  Guess Type is SAD.
  Energy threshold   = 1.00e-08
  Density threshold  = 1.00e-08
  Integral threshold = 1.00e-12

  ==> Primary Basis <==

  Basis Set: AUG-CC-PVTZ
    Blend: AUG-CC-PVTZ
    Number of shells: 60
    Number of basis functions: 184
    Number of Cartesian functions: 215
    Spherical Harmonics?: true
    Max angular momentum: 3

   => Loading Basis Set <=

    Name: (AUG-CC-PVTZ AUX)
    Role: JKFIT
    Keyword: DF_BASIS_SCF
    atoms 1   entry O          line   286 file /ddmfs1b/softs/psi4conda/share/psi4/basis/aug-cc-pvtz-jkfit.gbs 
    atoms 2-3 entry H          line    70 file /ddmfs1b/softs/psi4conda/share/psi4/basis/aug-cc-pvtz-jkfit.gbs 
    atoms 4-5 entry F          line   348 file /ddmfs1b/softs/psi4conda/share/psi4/basis/aug-cc-pvtz-jkfit.gbs 

  ==> Integral Setup <==

  DFHelper Memory: AOs need 0.099 GiB; user supplied 41.910 GiB. 
  Using in-core AOs.

  ==> MemDFJK: Density-Fitted J/K Matrices <==

    J tasked:                   Yes
    K tasked:                   Yes
    wK tasked:                   No
    OpenMP threads:              20
    Memory [MiB]:             42915
    Algorithm:                 Core
    Schwarz Cutoff:           1E-12
    Mask sparsity (%):      16.1685
    Fitting Condition:        1E-10

   => Auxiliary Basis Set <=

  Basis Set: (AUG-CC-PVTZ AUX)
    Blend: AUG-CC-PVTZ-JKFIT
    Number of shells: 118
    Number of basis functions: 404
    Number of Cartesian functions: 503
    Spherical Harmonics?: true
    Max angular momentum: 4

  Minimum eigenvalue in the overlap matrix is 3.5092014270E-04.
  Reciprocal condition number of the overlap matrix is 5.0341978304E-05.
    Using symmetric orthogonalization.

  ==> Pre-Iterations <==

  SCF Guess: Superposition of Atomic Densities via on-the-fly atomic UHF (no occupation information).

   -------------------------
    Irrep   Nso     Nmo    
   -------------------------
     A        184     184 
   -------------------------
    Total     184     184
   -------------------------

  ==> Iterations <==

                           Total Energy        Delta E     RMS |[F,P]|

   @DF-RHF iter SAD:  -273.13129419080803   -2.73131e+02   0.00000e+00 
   @DF-RHF iter   1:  -274.59939326458266   -1.46810e+00   4.85429e-03 DIIS/ADIIS
   @DF-RHF iter   2:  -274.72090980555237   -1.21517e-01   4.35459e-03 DIIS/ADIIS
   @DF-RHF iter   3:  -274.89766681307128   -1.76757e-01   2.35074e-04 DIIS/ADIIS
   @DF-RHF iter   4:  -274.89835337706648   -6.86564e-04   1.28359e-04 DIIS/ADIIS
   @DF-RHF iter   5:  -274.89853998379010   -1.86607e-04   1.94023e-05 DIIS
   @DF-RHF iter   6:  -274.89854839455387   -8.41076e-06   4.21081e-06 DIIS
   @DF-RHF iter   7:  -274.89854887903113   -4.84477e-07   7.62166e-07 DIIS
   @DF-RHF iter   8:  -274.89854890470252   -2.56714e-08   2.04130e-07 DIIS
   @DF-RHF iter   9:  -274.89854890675360   -2.05108e-09   3.54721e-08 DIIS
   @DF-RHF iter  10:  -274.89854890681073   -5.71276e-11   6.65782e-09 DIIS
  Energy and wave function converged.


  ==> Post-Iterations <==

    Orbital Energies [Eh]
    ---------------------

    Doubly Occupied:                                                      

       1A    -25.757658     2A    -25.757658     3A    -20.298030  
       4A     -1.084413     5A     -1.000035     6A     -1.000034  
       7A     -0.447666     8A     -0.322364     9A     -0.244884  
      10A     -0.105268    11A     -0.104984    12A     -0.104981  
      13A     -0.104972    14A     -0.104931    15A     -0.104778  

    Virtual:                                                              

      16A      0.259395    17A      0.279363    18A      0.370072  
      19A      0.383950    20A      0.414493    21A      0.423246  
      22A      0.493188    23A      0.510918    24A      0.515008  
      25A      0.518920    26A      0.519772    27A      0.537160  
      28A      0.564987    29A      0.566276    30A      0.575024  
      31A      0.579039    32A      0.596756    33A      0.674208  
      34A      0.696877    35A      0.712834    36A      0.776955  
      37A      0.813269    38A      0.955185    39A      0.959111  
      40A      0.965590    41A      0.983686    42A      1.003856  
      43A      1.100970    44A      1.132283    45A      1.163803  
      46A      1.169231    47A      1.187382    48A      1.187517  
      49A      1.222999    50A      1.236516    51A      1.267560  
      52A      1.275547    53A      1.288309    54A      1.303926  
      55A      1.307763    56A      1.309841    57A      1.313742  
      58A      1.346090    59A      1.346388    60A      1.363962  
      61A      1.434726    62A      1.460279    63A      1.481500  
      64A      1.486074    65A      1.503055    66A      1.521056  
      67A      1.550323    68A      1.604035    69A      1.605945  
      70A      1.608532    71A      1.634481    72A      1.677348  
      73A      1.683866    74A      1.794457    75A      1.838104  
      76A      1.865469    77A      2.081382    78A      2.123553  
      79A      2.243649    80A      2.256861    81A      2.383858  
      82A      2.464683    83A      2.526505    84A      2.589276  
      85A      2.594379    86A      2.683846    87A      2.705154  
      88A      2.757221    89A      2.773169    90A      2.963608  
      91A      2.968046    92A      3.053794    93A      3.077999  
      94A      3.152698    95A      3.361242    96A      3.361253  
      97A      3.361513    98A      3.361959    99A      3.374064  
     100A      3.381162   101A      3.382878   102A      3.389997  
     103A      3.408068   104A      3.408197   105A      3.408220  
     106A      3.408425   107A      3.409067   108A      3.409149  
     109A      3.409153   110A      3.409239   111A      3.410046  
     112A      3.413683   113A      3.416801   114A      3.420591  
     115A      3.423705   116A      3.456451   117A      3.559014  
     118A      3.559651   119A      3.946567   120A      4.033969  
     121A      4.299572   122A      4.373239   123A      4.448748  
     124A      4.544797   125A      4.565352   126A      4.658472  
     127A      4.675077   128A      4.686078   129A      4.828996  
     130A      5.044662   131A      5.160952   132A      5.431157  
     133A      5.446941   134A      5.563317   135A      5.617692  
     136A      5.747528   137A      5.751742   138A      5.756181  
     139A      5.768411   140A      5.790631   141A      5.802381  
     142A      5.835996   143A      5.951906   144A      6.456788  
     145A      6.791670   146A      6.981343   147A      7.185085  
     148A      7.405109   149A      7.528736   150A      7.584230  
     151A      7.592323   152A      7.606811   153A      7.633442  
     154A      7.872959   155A      8.176918   156A      8.242490  
     157A      9.099773   158A      9.351698   159A      9.351720  
     160A      9.351731   161A      9.351787   162A      9.352256  
     163A      9.352259   164A      9.352262   165A      9.352279  
     166A      9.353750   167A      9.354468   168A      9.354541  
     169A      9.358679   170A      9.373886   171A      9.385571  
     172A      9.833425   173A      9.833509   174A      9.833514  
     175A      9.833718   176A      9.842363   177A      9.846559  
     178A      9.848125   179A      9.863366   180A      9.913500  
     181A      9.928838   182A     11.292198   183A     11.330949  
     184A     16.242774  

    Final Occupation by Irrep:
              A 
    DOCC [    15 ]
    NA   [    15 ]
    NB   [    15 ]

  @DF-RHF Final Energy:  -274.89854890681073

   => Energetics <=

    Nuclear Repulsion Energy =             40.4227675729033251
    One-Electron Energy =                -477.5573163844933333
    Two-Electron Energy =                 162.2359999047792769
    Total Energy =                       -274.8985489068106745

Computation Completed


Properties will be evaluated at   0.000000,   0.000000,   0.000000 [a0]

Properties computed using the SCF density matrix


 Multipole Moments:

 ------------------------------------------------------------------------------------
     Multipole            Electronic (a.u.)      Nuclear  (a.u.)        Total (a.u.)
 ------------------------------------------------------------------------------------

 L = 1.  Multiply by 2.5417464519 to convert [e a0] to [Debye]
 Dipole X            :       -110.6311500          100.7184567           -9.9126933
 Dipole Y            :          0.0000000            0.0000000            0.0000000
 Dipole Z            :          0.0000000            0.0000000            0.0000000
 Magnitude           :                                                    9.9126933

 ------------------------------------------------------------------------------------

*** tstop() called on ddmfs1 at Mon Jan 22 12:36:54 2024
Module time:
	user time   =      17.55 seconds =       0.29 minutes
	system time =       0.85 seconds =       0.01 minutes
	total time  =          1 seconds =       0.02 minutes
Total time:
	user time   =      17.55 seconds =       0.29 minutes
	system time =       0.85 seconds =       0.01 minutes
	total time  =          1 seconds =       0.02 minutes

*** tstart() called on ddmfs1
*** at Mon Jan 22 12:36:54 2024


  //>>>>>>>>>>>>>>>>>>>>>>>>>>>>>>>>>>>//
  //               DFMP2               //
  //<<<<<<<<<<<<<<<<<<<<<<<<<<<<<<<<<<<//

   => Loading Basis Set <=

    Name: (AUG-CC-PVTZ AUX)
    Role: RIFIT
    Keyword: DF_BASIS_MP2
    atoms 1   entry O          line   264 file /ddmfs1b/softs/psi4conda/share/psi4/basis/aug-cc-pvtz-ri.gbs 
    atoms 2-3 entry H          line    30 file /ddmfs1b/softs/psi4conda/share/psi4/basis/aug-cc-pvtz-ri.gbs 
    atoms 4-5 entry F          line   322 file /ddmfs1b/softs/psi4conda/share/psi4/basis/aug-cc-pvtz-ri.gbs 

	 --------------------------------------------------------
	                          DF-MP2                         
	      2nd-Order Density-Fitted Moller-Plesset Theory     
	              RMP2 Wavefunction,  20 Threads             
	                                                         
	        Rob Parrish, Justin Turney, Andy Simmonett,      
	           Ed Hohenstein, and C. David Sherrill          
	 --------------------------------------------------------

   => Auxiliary Basis Set <=

  Basis Set: (AUG-CC-PVTZ AUX)
    Blend: AUG-CC-PVTZ-RI
    Number of shells: 112
    Number of basis functions: 410
    Number of Cartesian functions: 518
    Spherical Harmonics?: true
    Max angular momentum: 4

	 --------------------------------------------------------
	                 NBF =   184, NAUX =   410
	 --------------------------------------------------------
	   CLASS    FOCC     OCC    AOCC    AVIR     VIR    FVIR
	   PAIRS       0      15      15     169     169       0
	 --------------------------------------------------------

	-----------------------------------------------------------
	 ==================> DF-MP2 Energies <==================== 
	-----------------------------------------------------------
	 Reference Energy          =    -274.8985489068107313 [Eh]
	 Singles Energy            =      -0.0000000000000000 [Eh]
	 Same-Spin Energy          =      -0.2317474141158036 [Eh]
	 Opposite-Spin Energy      =      -0.6675276657560948 [Eh]
	 Correlation Energy        =      -0.8992750798718985 [Eh]
	 Total Energy              =    -275.7978239866826016 [Eh]
	-----------------------------------------------------------
	 ================> DF-SCS-MP2 Energies <================== 
	-----------------------------------------------------------
	 SCS Same-Spin Scale       =       0.3333333333333333 [-]
	 SCS Opposite-Spin Scale   =       1.2000000000000000 [-]
	 SCS Same-Spin Energy      =      -0.0772491380386012 [Eh]
	 SCS Opposite-Spin Energy  =      -0.8010331989073137 [Eh]
	 SCS Correlation Energy    =      -0.8782823369459150 [Eh]
	 SCS Total Energy          =    -275.7768312437566465 [Eh]
	-----------------------------------------------------------


*** tstop() called on ddmfs1 at Mon Jan 22 12:36:55 2024
Module time:
	user time   =       6.44 seconds =       0.11 minutes
	system time =       0.27 seconds =       0.00 minutes
	total time  =          1 seconds =       0.02 minutes
Total time:
	user time   =      24.01 seconds =       0.40 minutes
	system time =       1.12 seconds =       0.02 minutes
	total time  =          2 seconds =       0.03 minutes

    Psi4 stopped on: Monday, 22 January 2024 12:36PM
    Psi4 wall time for execution: 0:00:01.72

*** Psi4 exiting successfully. Buy a developer a beer!
