
    -----------------------------------------------------------------------
          Psi4: An Open-Source Ab Initio Electronic Structure Package
                               Psi4 1.8.2 release

                         Git: Rev {} zzzzzzz 


    D. G. A. Smith, L. A. Burns, A. C. Simmonett, R. M. Parrish,
    M. C. Schieber, R. Galvelis, P. Kraus, H. Kruse, R. Di Remigio,
    A. Alenaizan, A. M. James, S. Lehtola, J. P. Misiewicz, M. Scheurer,
    R. A. Shaw, J. B. Schriber, Y. Xie, Z. L. Glick, D. A. Sirianni,
    J. S. O'Brien, J. M. Waldrop, A. Kumar, E. G. Hohenstein,
    B. P. Pritchard, B. R. Brooks, H. F. Schaefer III, A. Yu. Sokolov,
    K. Patkowski, A. E. DePrince III, U. Bozkaya, R. A. King,
    F. A. Evangelista, J. M. Turney, T. D. Crawford, C. D. Sherrill,
    J. Chem. Phys. 152(18) 184108 (2020). https://doi.org/10.1063/5.0006002

                            Additional Code Authors
    E. T. Seidl, C. L. Janssen, E. F. Valeev, M. L. Leininger,
    J. F. Gonthier, R. M. Richard, H. R. McAlexander, M. Saitow, X. Wang,
    P. Verma, M. H. Lechner, A. Jiang, S. Behnle, A. G. Heide,
    M. F. Herbst, and D. L. Poole

             Previous Authors, Complete List of Code Contributors,
                       and Citations for Specific Modules
    https://github.com/psi4/psi4/blob/master/codemeta.json
    https://github.com/psi4/psi4/graphs/contributors
    http://psicode.org/psi4manual/master/introduction.html#citing-psifour

    -----------------------------------------------------------------------


    Psi4 started on: Monday, 22 January 2024 05:25AM

    Process ID: 33725
    Host:       ddmfs1
    PSIDATADIR: /ddmfs1b/softs/psi4conda/share/psi4
    Memory:     500.0 MiB
    Threads:    20
    
  ==> Input File <==

--------------------------------------------------------------------------
MEMORY 60 GB

molecule dimer {
0 1
O      0.000000     0.000000     0.000000
H      0.588538     0.756918     0.000000
H      0.588538    -0.756918     0.000000
--
-1 1
F      2.509522     2.509522     0.000000
--
-1 1
F      2.509522    -2.509522     0.000000

units ang
no_reorient
no_com
symmetry c1
}

set {
basis        aug-cc-pVTZ
scf_type     df
}

energy("mp2", bsse_type="cp")
--------------------------------------------------------------------------

  Memory set to  55.879 GiB by Python driver.

Scratch directory: /ddmfs1a/scratch/

  //>>>>>>>>>>>>>>>>>>>>>>>>>>>>>>>>>>>>>>>>//
  // ManyBody Setup: N-Body Levels [1, 2, 3]//
  //<<<<<<<<<<<<<<<<<<<<<<<<<<<<<<<<<<<<<<<<//

        Number of 1-body computations:     3
        Number of 2-body computations:     3
        Number of 3-body computations:     1

    -----------------------------------------------------------------------
          Psi4: An Open-Source Ab Initio Electronic Structure Package
                               Psi4 1.8.2 release

                         Git: Rev {} zzzzzzz 


    D. G. A. Smith, L. A. Burns, A. C. Simmonett, R. M. Parrish,
    M. C. Schieber, R. Galvelis, P. Kraus, H. Kruse, R. Di Remigio,
    A. Alenaizan, A. M. James, S. Lehtola, J. P. Misiewicz, M. Scheurer,
    R. A. Shaw, J. B. Schriber, Y. Xie, Z. L. Glick, D. A. Sirianni,
    J. S. O'Brien, J. M. Waldrop, A. Kumar, E. G. Hohenstein,
    B. P. Pritchard, B. R. Brooks, H. F. Schaefer III, A. Yu. Sokolov,
    K. Patkowski, A. E. DePrince III, U. Bozkaya, R. A. King,
    F. A. Evangelista, J. M. Turney, T. D. Crawford, C. D. Sherrill,
    J. Chem. Phys. 152(18) 184108 (2020). https://doi.org/10.1063/5.0006002

                            Additional Code Authors
    E. T. Seidl, C. L. Janssen, E. F. Valeev, M. L. Leininger,
    J. F. Gonthier, R. M. Richard, H. R. McAlexander, M. Saitow, X. Wang,
    P. Verma, M. H. Lechner, A. Jiang, S. Behnle, A. G. Heide,
    M. F. Herbst, and D. L. Poole

             Previous Authors, Complete List of Code Contributors,
                       and Citations for Specific Modules
    https://github.com/psi4/psi4/blob/master/codemeta.json
    https://github.com/psi4/psi4/graphs/contributors
    http://psicode.org/psi4manual/master/introduction.html#citing-psifour

    -----------------------------------------------------------------------


    Psi4 started on: Monday, 22 January 2024 05:25AM

    Process ID: 33725
    Host:       ddmfs1
    PSIDATADIR: /ddmfs1b/softs/psi4conda/share/psi4
    Memory:     55.9 GiB
    Threads:    20
    
  ==> Input QCSchema <==

--------------------------------------------------------------------------
{'driver': 'energy',
 'extras': {'psiapi': True, 'wfn_qcvars_only': True},
 'id': None,
 'keywords': {'SCF_TYPE': 'DF', 'function_kwargs': {}},
 'model': {'basis': 'aug-cc-pvtz', 'method': 'mp2'},
 'molecule': {'atom_labels': ['', '', '', '', ''],
              'atomic_numbers': [8, 1, 1, 9, 9],
              'extras': {},
              'fix_com': True,
              'fix_orientation': True,
              'fix_symmetry': 'c1',
              'fragment_charges': [0.0, 0.0, 0.0],
              'fragment_multiplicities': [1, 1, 1],
              'fragments': [[0, 1, 2], [3], [4]],
              'geometry': [0.0, 0.0, 0.0, 1.1121756344246994, 1.4303677194292883, 0.0, 1.1121756344246994,
                           -1.4303677194292883, 0.0, 4.74230928581118, 4.74230928581118, 0.0, 4.74230928581118,
                           -4.74230928581118, 0.0],
              'mass_numbers': [16, 1, 1, 19, 19],
              'masses': [15.99491461957, 1.00782503223, 1.00782503223, 18.99840316273, 18.99840316273],
              'molecular_charge': 0.0,
              'molecular_multiplicity': 1,
              'name': 'dimer',
              'provenance': {'creator': 'QCElemental',
                             'routine': 'qcelemental.molparse.from_string',
                             'version': '0.26.0'},
              'real': [True, True, True, False, False],
              'schema_name': 'qcschema_molecule',
              'schema_version': 2,
              'symbols': ['O', 'H', 'H', 'F', 'F'],
              'validated': True},
 'protocols': {'stdout': True},
 'provenance': {'creator': 'QCElemental', 'routine': 'qcelemental.models.results', 'version': '0.26.0'},
 'schema_name': 'qcschema_input',
 'schema_version': 1}
--------------------------------------------------------------------------

Scratch directory: /ddmfs1a/scratch/
   => Libint2 <=

    Primary   basis highest AM E, G, H:  5, 4, 3
    Auxiliary basis highest AM E, G, H:  6, 5, 4
    Onebody   basis highest AM E, G, H:  6, 5, 4
    Solid Harmonics ordering:            gaussian

*** tstart() called on ddmfs1
*** at Mon Jan 22 05:25:30 2024

   => Loading Basis Set <=

    Name: AUG-CC-PVTZ
    Role: ORBITAL
    Keyword: BASIS
    atoms 1   entry O          line   331 file /ddmfs1b/softs/psi4conda/share/psi4/basis/aug-cc-pvtz.gbs 
    atoms 2-3 entry H          line    40 file /ddmfs1b/softs/psi4conda/share/psi4/basis/aug-cc-pvtz.gbs 
    atoms 4-5 entry F          line   377 file /ddmfs1b/softs/psi4conda/share/psi4/basis/aug-cc-pvtz.gbs 


         ---------------------------------------------------------
                                   SCF
               by Justin Turney, Rob Parrish, Andy Simmonett
                          and Daniel G. A. Smith
                              RHF Reference
                       20 Threads,  57220 MiB Core
         ---------------------------------------------------------

  ==> Geometry <==

    Molecular point group: c1
    Full point group: C2v

    Geometry (in Bohr), charge = 0, multiplicity = 1:

       Center              X                  Y                   Z               Mass       
    ------------   -----------------  -----------------  -----------------  -----------------
         O            0.000000000000     0.000000000000     0.000000000000    15.994914619570
         H            1.112175634425     1.430367719429     0.000000000000     1.007825032230
         H            1.112175634425    -1.430367719429     0.000000000000     1.007825032230
      Gh(F)           4.742309285811     4.742309285811     0.000000000000    18.998403162730
      Gh(F)           4.742309285811    -4.742309285811     0.000000000000    18.998403162730

  Running in c1 symmetry.

  Rotational constants: A =      0.07024  B =      0.07011  C =      0.03509 [cm^-1]
  Rotational constants: A =   2105.82758  B =   2101.82834  C =   1051.91303 [MHz]
  Nuclear repulsion =    9.180197847927069

  Charge       = 0
  Multiplicity = 1
  Electrons    = 10
  Nalpha       = 5
  Nbeta        = 5

  ==> Algorithm <==

  SCF Algorithm Type is DF.
  DIIS enabled.
  MOM disabled.
  Fractional occupation disabled.
  Guess Type is SAD.
  Energy threshold   = 1.00e-08
  Density threshold  = 1.00e-08
  Integral threshold = 1.00e-12

  ==> Primary Basis <==

  Basis Set: AUG-CC-PVTZ
    Blend: AUG-CC-PVTZ
    Number of shells: 60
    Number of basis functions: 184
    Number of Cartesian functions: 215
    Spherical Harmonics?: true
    Max angular momentum: 3

   => Loading Basis Set <=

    Name: (AUG-CC-PVTZ AUX)
    Role: JKFIT
    Keyword: DF_BASIS_SCF
    atoms 1   entry O          line   286 file /ddmfs1b/softs/psi4conda/share/psi4/basis/aug-cc-pvtz-jkfit.gbs 
    atoms 2-3 entry H          line    70 file /ddmfs1b/softs/psi4conda/share/psi4/basis/aug-cc-pvtz-jkfit.gbs 
    atoms 4-5 entry F          line   348 file /ddmfs1b/softs/psi4conda/share/psi4/basis/aug-cc-pvtz-jkfit.gbs 

  ==> Integral Setup <==

  DFHelper Memory: AOs need 0.104 GiB; user supplied 41.910 GiB. 
  Using in-core AOs.

  ==> MemDFJK: Density-Fitted J/K Matrices <==

    J tasked:                   Yes
    K tasked:                   Yes
    wK tasked:                   No
    OpenMP threads:              20
    Memory [MiB]:             42915
    Algorithm:                 Core
    Schwarz Cutoff:           1E-12
    Mask sparsity (%):      10.9109
    Fitting Condition:        1E-10

   => Auxiliary Basis Set <=

  Basis Set: (AUG-CC-PVTZ AUX)
    Blend: AUG-CC-PVTZ-JKFIT
    Number of shells: 118
    Number of basis functions: 404
    Number of Cartesian functions: 503
    Spherical Harmonics?: true
    Max angular momentum: 4

  Minimum eigenvalue in the overlap matrix is 3.2387212899E-04.
  Reciprocal condition number of the overlap matrix is 4.5175228968E-05.
    Using symmetric orthogonalization.

  ==> Pre-Iterations <==

  SCF Guess: Superposition of Atomic Densities via on-the-fly atomic UHF (no occupation information).

   -------------------------
    Irrep   Nso     Nmo    
   -------------------------
     A        184     184 
   -------------------------
    Total     184     184
   -------------------------

  ==> Iterations <==

                           Total Energy        Delta E     RMS |[F,P]|

   @DF-RHF iter SAD:   -75.47651206725318   -7.54765e+01   0.00000e+00 
   @DF-RHF iter   1:   -75.97615436953160   -4.99642e-01   2.54665e-03 DIIS/ADIIS
   @DF-RHF iter   2:   -76.02868248106377   -5.25281e-02   1.73501e-03 DIIS/ADIIS
   @DF-RHF iter   3:   -76.06008614159282   -3.14037e-02   1.18416e-04 DIIS/ADIIS
   @DF-RHF iter   4:   -76.06047654174246   -3.90400e-04   2.80732e-05 DIIS
   @DF-RHF iter   5:   -76.06050064838450   -2.41066e-05   6.38984e-06 DIIS
   @DF-RHF iter   6:   -76.06050262291238   -1.97453e-06   1.39973e-06 DIIS
   @DF-RHF iter   7:   -76.06050272724681   -1.04334e-07   2.52716e-07 DIIS
   @DF-RHF iter   8:   -76.06050273023050   -2.98368e-09   4.19596e-08 DIIS
   @DF-RHF iter   9:   -76.06050273029531   -6.48157e-11   1.03491e-08 DIIS
   @DF-RHF iter  10:   -76.06050273029926   -3.95062e-12   1.51637e-09 DIIS
  Energy and wave function converged.


  ==> Post-Iterations <==

    Orbital Energies [Eh]
    ---------------------

    Doubly Occupied:                                                      

       1A    -20.567621     2A     -1.352976     3A     -0.716508  
       4A     -0.585129     5A     -0.510299  

    Virtual:                                                              

       6A      0.028683     7A      0.046893     8A      0.113632  
       9A      0.131567    10A      0.139084    11A      0.142527  
      12A      0.150239    13A      0.169858    14A      0.173470  
      15A      0.194275    16A      0.194757    17A      0.208784  
      18A      0.226026    19A      0.254580    20A      0.295011  
      21A      0.309060    22A      0.330011    23A      0.355088  
      24A      0.361903    25A      0.412356    26A      0.534589  
      27A      0.559159    28A      0.667768    29A      0.672084  
      30A      0.688913    31A      0.719753    32A      0.731741  
      33A      0.735562    34A      0.739428    35A      0.755713  
      36A      0.764306    37A      0.776691    38A      0.781738  
      39A      0.792553    40A      0.818825    41A      0.844684  
      42A      0.848266    43A      0.874693    44A      0.919297  
      45A      0.923938    46A      0.926747    47A      0.934565  
      48A      0.942249    49A      0.951757    50A      0.961894  
      51A      0.969507    52A      0.993700    53A      1.005346  
      54A      1.014909    55A      1.051854    56A      1.095404  
      57A      1.123230    58A      1.138823    59A      1.200096  
      60A      1.241023    61A      1.254628    62A      1.288222  
      63A      1.332467    64A      1.406847    65A      1.472268  
      66A      1.538826    67A      1.580618    68A      1.604617  
      69A      1.834957    70A      1.855837    71A      2.211992  
      72A      2.272769    73A      2.274927    74A      2.336066  
      75A      2.360227    76A      2.428659    77A      2.475393  
      78A      2.501564    79A      2.515212    80A      2.702632  
      81A      2.706637    82A      2.782241    83A      2.810698  
      84A      2.856139    85A      3.001292    86A      3.006884  
      87A      3.013530    88A      3.031492    89A      3.065829  
      90A      3.067059    91A      3.067067    92A      3.067075  
      93A      3.067273    94A      3.068930    95A      3.069442  
      96A      3.069648    97A      3.074625    98A      3.093096  
      99A      3.098399   100A      3.107675   101A      3.135932  
     102A      3.151000   103A      3.189809   104A      3.222047  
     105A      3.390127   106A      3.412006   107A      3.531695  
     108A      3.532735   109A      3.533600   110A      3.534325  
     111A      3.580786   112A      3.613006   113A      3.613776  
     114A      3.672057   115A      3.697938   116A      3.731309  
     117A      3.886803   118A      3.891709   119A      4.026852  
     120A      4.147296   121A      4.182402   122A      4.277067  
     123A      4.293710   124A      4.397502   125A      4.407157  
     126A      4.424842   127A      4.598735   128A      4.815383  
     129A      5.016487   130A      5.159196   131A      5.213241  
     132A      5.366306   133A      5.368811   134A      5.530708  
     135A      5.694077   136A      6.198192   137A      6.529307  
     138A      6.718448   139A      6.926162   140A      7.141767  
     141A      7.276804   142A      7.329566   143A      7.339197  
     144A      7.346327   145A      7.396818   146A      7.706503  
     147A      7.924984   148A      7.998907   149A      8.842568  
     150A      9.354997   151A      9.393645   152A     10.137564  
     153A     10.137566   154A     10.137572   155A     10.137588  
     156A     10.138367   157A     10.138729   158A     10.139081  
     159A     10.139245   160A     10.167006   161A     10.168348  
     162A     10.172910   163A     10.190695   164A     10.250860  
     165A     10.282520   166A     12.925591   167A     12.926058  
     168A     12.926118   169A     12.926682   170A     12.957767  
     171A     12.965621   172A     12.968243   173A     12.992837  
     174A     13.045291   175A     13.058908   176A     14.190221  
     177A     14.197324   178A     14.203823   179A     14.228133  
     180A     14.333956   181A     14.437786   182A     16.580969  
     183A     67.006655   184A     67.076017  

    Final Occupation by Irrep:
              A 
    DOCC [     5 ]
    NA   [     5 ]
    NB   [     5 ]

  @DF-RHF Final Energy:   -76.06050273029926

   => Energetics <=

    Nuclear Repulsion Energy =              9.1801978479270687
    One-Electron Energy =                -123.0163338403113045
    Two-Electron Energy =                  37.7756332620849804
    Total Energy =                        -76.0605027302992625

Computation Completed


Properties will be evaluated at   0.000000,   0.000000,   0.000000 [a0]

Properties computed using the SCF density matrix


 Multipole Moments:

 ------------------------------------------------------------------------------------
     Multipole            Electronic (a.u.)      Nuclear  (a.u.)        Total (a.u.)
 ------------------------------------------------------------------------------------

 L = 1.  Multiply by 2.5417464519 to convert [e a0] to [Debye]
 Dipole X            :         -1.4421376            2.2243513            0.7822137
 Dipole Y            :          0.0000000            0.0000000            0.0000000
 Dipole Z            :         -0.0000000            0.0000000           -0.0000000
 Magnitude           :                                                    0.7822137

 ------------------------------------------------------------------------------------

*** tstop() called on ddmfs1 at Mon Jan 22 05:25:31 2024
Module time:
	user time   =      16.40 seconds =       0.27 minutes
	system time =       0.72 seconds =       0.01 minutes
	total time  =          1 seconds =       0.02 minutes
Total time:
	user time   =      16.40 seconds =       0.27 minutes
	system time =       0.72 seconds =       0.01 minutes
	total time  =          1 seconds =       0.02 minutes

*** tstart() called on ddmfs1
*** at Mon Jan 22 05:25:31 2024


  //>>>>>>>>>>>>>>>>>>>>>>>>>>>>>>>>>>>//
  //               DFMP2               //
  //<<<<<<<<<<<<<<<<<<<<<<<<<<<<<<<<<<<//

   => Loading Basis Set <=

    Name: (AUG-CC-PVTZ AUX)
    Role: RIFIT
    Keyword: DF_BASIS_MP2
    atoms 1   entry O          line   264 file /ddmfs1b/softs/psi4conda/share/psi4/basis/aug-cc-pvtz-ri.gbs 
    atoms 2-3 entry H          line    30 file /ddmfs1b/softs/psi4conda/share/psi4/basis/aug-cc-pvtz-ri.gbs 
    atoms 4-5 entry F          line   322 file /ddmfs1b/softs/psi4conda/share/psi4/basis/aug-cc-pvtz-ri.gbs 

	 --------------------------------------------------------
	                          DF-MP2                         
	      2nd-Order Density-Fitted Moller-Plesset Theory     
	              RMP2 Wavefunction,  20 Threads             
	                                                         
	        Rob Parrish, Justin Turney, Andy Simmonett,      
	           Ed Hohenstein, and C. David Sherrill          
	 --------------------------------------------------------

   => Auxiliary Basis Set <=

  Basis Set: (AUG-CC-PVTZ AUX)
    Blend: AUG-CC-PVTZ-RI
    Number of shells: 112
    Number of basis functions: 410
    Number of Cartesian functions: 518
    Spherical Harmonics?: true
    Max angular momentum: 4

	 --------------------------------------------------------
	                 NBF =   184, NAUX =   410
	 --------------------------------------------------------
	   CLASS    FOCC     OCC    AOCC    AVIR     VIR    FVIR
	   PAIRS       0       5       5     179     179       0
	 --------------------------------------------------------

	-----------------------------------------------------------
	 ==================> DF-MP2 Energies <==================== 
	-----------------------------------------------------------
	 Reference Energy          =     -76.0605027302992625 [Eh]
	 Singles Energy            =      -0.0000000000000000 [Eh]
	 Same-Spin Energy          =      -0.0683961779604983 [Eh]
	 Opposite-Spin Energy      =      -0.2157009767554959 [Eh]
	 Correlation Energy        =      -0.2840971547159942 [Eh]
	 Total Energy              =     -76.3445998850152563 [Eh]
	-----------------------------------------------------------
	 ================> DF-SCS-MP2 Energies <================== 
	-----------------------------------------------------------
	 SCS Same-Spin Scale       =       0.3333333333333333 [-]
	 SCS Opposite-Spin Scale   =       1.2000000000000000 [-]
	 SCS Same-Spin Energy      =      -0.0227987259868328 [Eh]
	 SCS Opposite-Spin Energy  =      -0.2588411721065950 [Eh]
	 SCS Correlation Energy    =      -0.2816398980934278 [Eh]
	 SCS Total Energy          =     -76.3421426283926934 [Eh]
	-----------------------------------------------------------


*** tstop() called on ddmfs1 at Mon Jan 22 05:25:32 2024
Module time:
	user time   =       6.02 seconds =       0.10 minutes
	system time =       0.35 seconds =       0.01 minutes
	total time  =          1 seconds =       0.02 minutes
Total time:
	user time   =      22.44 seconds =       0.37 minutes
	system time =       1.07 seconds =       0.02 minutes
	total time  =          2 seconds =       0.03 minutes

    Psi4 stopped on: Monday, 22 January 2024 05:25AM
    Psi4 wall time for execution: 0:00:01.67


    -----------------------------------------------------------------------
          Psi4: An Open-Source Ab Initio Electronic Structure Package
                               Psi4 1.8.2 release

                         Git: Rev {} zzzzzzz 


    D. G. A. Smith, L. A. Burns, A. C. Simmonett, R. M. Parrish,
    M. C. Schieber, R. Galvelis, P. Kraus, H. Kruse, R. Di Remigio,
    A. Alenaizan, A. M. James, S. Lehtola, J. P. Misiewicz, M. Scheurer,
    R. A. Shaw, J. B. Schriber, Y. Xie, Z. L. Glick, D. A. Sirianni,
    J. S. O'Brien, J. M. Waldrop, A. Kumar, E. G. Hohenstein,
    B. P. Pritchard, B. R. Brooks, H. F. Schaefer III, A. Yu. Sokolov,
    K. Patkowski, A. E. DePrince III, U. Bozkaya, R. A. King,
    F. A. Evangelista, J. M. Turney, T. D. Crawford, C. D. Sherrill,
    J. Chem. Phys. 152(18) 184108 (2020). https://doi.org/10.1063/5.0006002

                            Additional Code Authors
    E. T. Seidl, C. L. Janssen, E. F. Valeev, M. L. Leininger,
    J. F. Gonthier, R. M. Richard, H. R. McAlexander, M. Saitow, X. Wang,
    P. Verma, M. H. Lechner, A. Jiang, S. Behnle, A. G. Heide,
    M. F. Herbst, and D. L. Poole

             Previous Authors, Complete List of Code Contributors,
                       and Citations for Specific Modules
    https://github.com/psi4/psi4/blob/master/codemeta.json
    https://github.com/psi4/psi4/graphs/contributors
    http://psicode.org/psi4manual/master/introduction.html#citing-psifour

    -----------------------------------------------------------------------


    Psi4 started on: Monday, 22 January 2024 05:25AM

    Process ID: 33725
    Host:       ddmfs1
    PSIDATADIR: /ddmfs1b/softs/psi4conda/share/psi4
    Memory:     55.9 GiB
    Threads:    20
    
  ==> Input QCSchema <==

--------------------------------------------------------------------------
{'driver': 'energy',
 'extras': {'psiapi': True, 'wfn_qcvars_only': True},
 'id': None,
 'keywords': {'SCF_TYPE': 'DF', 'function_kwargs': {}},
 'model': {'basis': 'aug-cc-pvtz', 'method': 'mp2'},
 'molecule': {'atom_labels': ['', '', '', '', ''],
              'atomic_numbers': [8, 1, 1, 9, 9],
              'extras': {},
              'fix_com': True,
              'fix_orientation': True,
              'fix_symmetry': 'c1',
              'fragment_charges': [0.0, -1.0, 0.0],
              'fragment_multiplicities': [1, 1, 1],
              'fragments': [[0, 1, 2], [3], [4]],
              'geometry': [0.0, 0.0, 0.0, 1.1121756344246994, 1.4303677194292883, 0.0, 1.1121756344246994,
                           -1.4303677194292883, 0.0, 4.74230928581118, 4.74230928581118, 0.0, 4.74230928581118,
                           -4.74230928581118, 0.0],
              'mass_numbers': [16, 1, 1, 19, 19],
              'masses': [15.99491461957, 1.00782503223, 1.00782503223, 18.99840316273, 18.99840316273],
              'molecular_charge': -1.0,
              'molecular_multiplicity': 1,
              'name': 'dimer',
              'provenance': {'creator': 'QCElemental',
                             'routine': 'qcelemental.molparse.from_string',
                             'version': '0.26.0'},
              'real': [False, False, False, True, False],
              'schema_name': 'qcschema_molecule',
              'schema_version': 2,
              'symbols': ['O', 'H', 'H', 'F', 'F'],
              'validated': True},
 'protocols': {'stdout': True},
 'provenance': {'creator': 'QCElemental', 'routine': 'qcelemental.models.results', 'version': '0.26.0'},
 'schema_name': 'qcschema_input',
 'schema_version': 1}
--------------------------------------------------------------------------

Scratch directory: /ddmfs1a/scratch/
   => Libint2 <=

    Primary   basis highest AM E, G, H:  5, 4, 3
    Auxiliary basis highest AM E, G, H:  6, 5, 4
    Onebody   basis highest AM E, G, H:  6, 5, 4
    Solid Harmonics ordering:            gaussian

*** tstart() called on ddmfs1
*** at Mon Jan 22 05:25:32 2024

   => Loading Basis Set <=

    Name: AUG-CC-PVTZ
    Role: ORBITAL
    Keyword: BASIS
    atoms 1   entry O          line   331 file /ddmfs1b/softs/psi4conda/share/psi4/basis/aug-cc-pvtz.gbs 
    atoms 2-3 entry H          line    40 file /ddmfs1b/softs/psi4conda/share/psi4/basis/aug-cc-pvtz.gbs 
    atoms 4-5 entry F          line   377 file /ddmfs1b/softs/psi4conda/share/psi4/basis/aug-cc-pvtz.gbs 


         ---------------------------------------------------------
                                   SCF
               by Justin Turney, Rob Parrish, Andy Simmonett
                          and Daniel G. A. Smith
                              RHF Reference
                       20 Threads,  57220 MiB Core
         ---------------------------------------------------------

  ==> Geometry <==

    Molecular point group: c1
    Full point group: Cs

    Geometry (in Bohr), charge = -1, multiplicity = 1:

       Center              X                  Y                   Z               Mass       
    ------------   -----------------  -----------------  -----------------  -----------------
      Gh(O)           0.000000000000     0.000000000000     0.000000000000    15.994914619570
      Gh(H)           1.112175634425     1.430367719429     0.000000000000     1.007825032230
      Gh(H)           1.112175634425    -1.430367719429     0.000000000000     1.007825032230
         F            4.742309285811     4.742309285811     0.000000000000    18.998403162730
      Gh(F)           4.742309285811    -4.742309285811     0.000000000000    18.998403162730

  Running in c1 symmetry.

  Rotational constants: A =      0.07024  B =      0.07011  C =      0.03509 [cm^-1]
  Rotational constants: A =   2105.82758  B =   2101.82834  C =   1051.91303 [MHz]
  Nuclear repulsion =    0.000000000000000

  Charge       = -1
  Multiplicity = 1
  Electrons    = 10
  Nalpha       = 5
  Nbeta        = 5

  ==> Algorithm <==

  SCF Algorithm Type is DF.
  DIIS enabled.
  MOM disabled.
  Fractional occupation disabled.
  Guess Type is SAD.
  Energy threshold   = 1.00e-08
  Density threshold  = 1.00e-08
  Integral threshold = 1.00e-12

  ==> Primary Basis <==

  Basis Set: AUG-CC-PVTZ
    Blend: AUG-CC-PVTZ
    Number of shells: 60
    Number of basis functions: 184
    Number of Cartesian functions: 215
    Spherical Harmonics?: true
    Max angular momentum: 3

   => Loading Basis Set <=

    Name: (AUG-CC-PVTZ AUX)
    Role: JKFIT
    Keyword: DF_BASIS_SCF
    atoms 1   entry O          line   286 file /ddmfs1b/softs/psi4conda/share/psi4/basis/aug-cc-pvtz-jkfit.gbs 
    atoms 2-3 entry H          line    70 file /ddmfs1b/softs/psi4conda/share/psi4/basis/aug-cc-pvtz-jkfit.gbs 
    atoms 4-5 entry F          line   348 file /ddmfs1b/softs/psi4conda/share/psi4/basis/aug-cc-pvtz-jkfit.gbs 

  ==> Integral Setup <==

  DFHelper Memory: AOs need 0.104 GiB; user supplied 41.910 GiB. 
  Using in-core AOs.

  ==> MemDFJK: Density-Fitted J/K Matrices <==

    J tasked:                   Yes
    K tasked:                   Yes
    wK tasked:                   No
    OpenMP threads:              20
    Memory [MiB]:             42915
    Algorithm:                 Core
    Schwarz Cutoff:           1E-12
    Mask sparsity (%):      10.9109
    Fitting Condition:        1E-10

   => Auxiliary Basis Set <=

  Basis Set: (AUG-CC-PVTZ AUX)
    Blend: AUG-CC-PVTZ-JKFIT
    Number of shells: 118
    Number of basis functions: 404
    Number of Cartesian functions: 503
    Spherical Harmonics?: true
    Max angular momentum: 4

  Minimum eigenvalue in the overlap matrix is 3.2387212899E-04.
  Reciprocal condition number of the overlap matrix is 4.5175228968E-05.
    Using symmetric orthogonalization.

  ==> Pre-Iterations <==

  SCF Guess: Superposition of Atomic Densities via on-the-fly atomic UHF (no occupation information).

   -------------------------
    Irrep   Nso     Nmo    
   -------------------------
     A        184     184 
   -------------------------
    Total     184     184
   -------------------------

  ==> Iterations <==

                           Total Energy        Delta E     RMS |[F,P]|

   @DF-RHF iter SAD:   -98.82535130136519   -9.88254e+01   0.00000e+00 
   @DF-RHF iter   1:   -99.33789611509431   -5.12545e-01   2.96828e-03 DIIS/ADIIS
   @DF-RHF iter   2:   -99.37442899033596   -3.65329e-02   2.87820e-03 DIIS/ADIIS
   @DF-RHF iter   3:   -99.45075906330275   -7.63301e-02   9.59928e-05 DIIS
   @DF-RHF iter   4:   -99.45082607967936   -6.70164e-05   3.45045e-05 DIIS
   @DF-RHF iter   5:   -99.45083650685849   -1.04272e-05   2.76905e-06 DIIS
   @DF-RHF iter   6:   -99.45083665578883   -1.48930e-07   1.92364e-07 DIIS
   @DF-RHF iter   7:   -99.45083665678058   -9.91747e-10   3.29921e-08 DIIS
   @DF-RHF iter   8:   -99.45083665685402   -7.34417e-11   8.65932e-09 DIIS
  Energy and wave function converged.


  ==> Post-Iterations <==

    Orbital Energies [Eh]
    ---------------------

    Doubly Occupied:                                                      

       1A    -25.833729     2A     -1.076024     3A     -0.180988  
       4A     -0.180951     5A     -0.180944  

    Virtual:                                                              

       6A      0.129742     7A      0.182870     8A      0.227433  
       9A      0.236458    10A      0.255789    11A      0.269453  
      12A      0.288166    13A      0.290572    14A      0.307040  
      15A      0.348381    16A      0.432935    17A      0.440572  
      18A      0.447757    19A      0.449228    20A      0.475698  
      21A      0.484724    22A      0.503195    23A      0.512011  
      24A      0.547379    25A      0.604112    26A      0.613410  
      27A      0.671416    28A      0.802559    29A      0.818133  
      30A      0.858071    31A      0.894107    32A      0.903836  
      33A      0.917902    34A      0.953864    35A      0.960072  
      36A      0.986541    37A      0.989401    38A      1.012817  
      39A      1.025282    40A      1.030264    41A      1.035107  
      42A      1.041584    43A      1.089724    44A      1.098894  
      45A      1.099840    46A      1.125898    47A      1.148066  
      48A      1.160003    49A      1.201869    50A      1.226568  
      51A      1.239905    52A      1.243897    53A      1.273868  
      54A      1.315189    55A      1.386073    56A      1.401013  
      57A      1.413734    58A      1.425212    59A      1.493960  
      60A      1.508545    61A      1.550852    62A      1.599226  
      63A      1.671337    64A      1.723427    65A      1.863350  
      66A      1.875761    67A      1.938965    68A      1.947518  
      69A      1.987544    70A      2.056446    71A      2.245844  
      72A      2.306245    73A      2.569883    74A      2.655708  
      75A      2.671843    76A      2.696467    77A      2.710614  
      78A      2.719009    79A      2.760658    80A      2.778203  
      81A      3.037078    82A      3.122775    83A      3.139996  
      84A      3.174451    85A      3.176646    86A      3.187876  
      87A      3.187913    88A      3.192216    89A      3.194286  
      90A      3.217856    91A      3.239852    92A      3.262513  
      93A      3.281751    94A      3.290013    95A      3.290024  
      96A      3.299077    97A      3.331146    98A      3.332157  
      99A      3.332162   100A      3.333212   101A      3.336395  
     102A      3.339612   103A      3.448334   104A      3.460149  
     105A      3.463021   106A      3.558225   107A      3.589439  
     108A      3.595655   109A      3.654540   110A      3.655663  
     111A      3.692686   112A      3.743932   113A      3.778484  
     114A      3.886096   115A      3.974723   116A      4.048161  
     117A      4.525853   118A      4.588550   119A      4.656920  
     120A      4.773674   121A      4.813484   122A      4.872840  
     123A      5.018061   124A      5.060882   125A      5.086697  
     126A      5.388787   127A      5.689042   128A      5.691592  
     129A      5.738024   130A      5.774844   131A      5.829332  
     132A      5.862994   133A      6.052577   134A      6.336198  
     135A      6.585617   136A      6.823202   137A      7.286651  
     138A      7.815855   139A      7.989745   140A      8.198281  
     141A      8.370606   142A      8.441907   143A      9.035128  
     144A      9.061078   145A      9.275712   146A      9.275725  
     147A      9.277684   148A      9.277829   149A      9.302317  
     150A      9.314660   151A      9.393096   152A      9.515658  
     153A      9.759186   154A      9.759839   155A      9.792402  
     156A      9.796031   157A      9.821658   158A      9.929289  
     159A      9.982001   160A     10.158213   161A     10.259756  
     162A     10.259763   163A     10.261890   164A     10.262086  
     165A     10.286111   166A     10.315452   167A     10.374329  
     168A     10.462754   169A     11.381778   170A     11.459697  
     171A     11.793448   172A     12.308208   173A     13.048525  
     174A     13.049117   175A     13.086238   176A     13.103668  
     177A     13.176071   178A     13.801773   179A     14.048222  
     180A     14.323512   181A     14.333366   182A     14.552484  
     183A     66.120174   184A     67.444892  

    Final Occupation by Irrep:
              A 
    DOCC [     5 ]
    NA   [     5 ]
    NB   [     5 ]

  @DF-RHF Final Energy:   -99.45083665685402

   => Energetics <=

    Nuclear Repulsion Energy =              0.0000000000000000
    One-Electron Energy =                -143.9964025345449841
    Two-Electron Energy =                  44.5455658776909615
    Total Energy =                        -99.4508366568540225

Computation Completed


Properties will be evaluated at   0.000000,   0.000000,   0.000000 [a0]

Properties computed using the SCF density matrix


 Multipole Moments:

 ------------------------------------------------------------------------------------
     Multipole            Electronic (a.u.)      Nuclear  (a.u.)        Total (a.u.)
 ------------------------------------------------------------------------------------

 L = 1.  Multiply by 2.5417464519 to convert [e a0] to [Debye]
 Dipole X            :        -47.4222303           42.6807836           -4.7414467
 Dipole Y            :        -47.4222125           42.6807836           -4.7414289
 Dipole Z            :         -0.0000000            0.0000000           -0.0000000
 Magnitude           :                                                    6.7054057

 ------------------------------------------------------------------------------------

*** tstop() called on ddmfs1 at Mon Jan 22 05:25:32 2024
Module time:
	user time   =      12.77 seconds =       0.21 minutes
	system time =       0.35 seconds =       0.01 minutes
	total time  =          0 seconds =       0.00 minutes
Total time:
	user time   =      36.39 seconds =       0.61 minutes
	system time =       1.46 seconds =       0.02 minutes
	total time  =          2 seconds =       0.03 minutes

*** tstart() called on ddmfs1
*** at Mon Jan 22 05:25:32 2024


  //>>>>>>>>>>>>>>>>>>>>>>>>>>>>>>>>>>>//
  //               DFMP2               //
  //<<<<<<<<<<<<<<<<<<<<<<<<<<<<<<<<<<<//

   => Loading Basis Set <=

    Name: (AUG-CC-PVTZ AUX)
    Role: RIFIT
    Keyword: DF_BASIS_MP2
    atoms 1   entry O          line   264 file /ddmfs1b/softs/psi4conda/share/psi4/basis/aug-cc-pvtz-ri.gbs 
    atoms 2-3 entry H          line    30 file /ddmfs1b/softs/psi4conda/share/psi4/basis/aug-cc-pvtz-ri.gbs 
    atoms 4-5 entry F          line   322 file /ddmfs1b/softs/psi4conda/share/psi4/basis/aug-cc-pvtz-ri.gbs 

	 --------------------------------------------------------
	                          DF-MP2                         
	      2nd-Order Density-Fitted Moller-Plesset Theory     
	              RMP2 Wavefunction,  20 Threads             
	                                                         
	        Rob Parrish, Justin Turney, Andy Simmonett,      
	           Ed Hohenstein, and C. David Sherrill          
	 --------------------------------------------------------

   => Auxiliary Basis Set <=

  Basis Set: (AUG-CC-PVTZ AUX)
    Blend: AUG-CC-PVTZ-RI
    Number of shells: 112
    Number of basis functions: 410
    Number of Cartesian functions: 518
    Spherical Harmonics?: true
    Max angular momentum: 4

	 --------------------------------------------------------
	                 NBF =   184, NAUX =   410
	 --------------------------------------------------------
	   CLASS    FOCC     OCC    AOCC    AVIR     VIR    FVIR
	   PAIRS       0       5       5     179     179       0
	 --------------------------------------------------------

	-----------------------------------------------------------
	 ==================> DF-MP2 Energies <==================== 
	-----------------------------------------------------------
	 Reference Energy          =     -99.4508366568540225 [Eh]
	 Singles Energy            =      -0.0000000000000000 [Eh]
	 Same-Spin Energy          =      -0.0816069333560218 [Eh]
	 Opposite-Spin Energy      =      -0.2265068741456054 [Eh]
	 Correlation Energy        =      -0.3081138075016272 [Eh]
	 Total Energy              =     -99.7589504643556495 [Eh]
	-----------------------------------------------------------
	 ================> DF-SCS-MP2 Energies <================== 
	-----------------------------------------------------------
	 SCS Same-Spin Scale       =       0.3333333333333333 [-]
	 SCS Opposite-Spin Scale   =       1.2000000000000000 [-]
	 SCS Same-Spin Energy      =      -0.0272023111186739 [Eh]
	 SCS Opposite-Spin Energy  =      -0.2718082489747264 [Eh]
	 SCS Correlation Energy    =      -0.2990105600934004 [Eh]
	 SCS Total Energy          =     -99.7498472169474297 [Eh]
	-----------------------------------------------------------


*** tstop() called on ddmfs1 at Mon Jan 22 05:25:33 2024
Module time:
	user time   =       5.92 seconds =       0.10 minutes
	system time =       0.24 seconds =       0.00 minutes
	total time  =          1 seconds =       0.02 minutes
Total time:
	user time   =      42.32 seconds =       0.71 minutes
	system time =       1.70 seconds =       0.03 minutes
	total time  =          3 seconds =       0.05 minutes

    Psi4 stopped on: Monday, 22 January 2024 05:25AM
    Psi4 wall time for execution: 0:00:01.28


    -----------------------------------------------------------------------
          Psi4: An Open-Source Ab Initio Electronic Structure Package
                               Psi4 1.8.2 release

                         Git: Rev {} zzzzzzz 


    D. G. A. Smith, L. A. Burns, A. C. Simmonett, R. M. Parrish,
    M. C. Schieber, R. Galvelis, P. Kraus, H. Kruse, R. Di Remigio,
    A. Alenaizan, A. M. James, S. Lehtola, J. P. Misiewicz, M. Scheurer,
    R. A. Shaw, J. B. Schriber, Y. Xie, Z. L. Glick, D. A. Sirianni,
    J. S. O'Brien, J. M. Waldrop, A. Kumar, E. G. Hohenstein,
    B. P. Pritchard, B. R. Brooks, H. F. Schaefer III, A. Yu. Sokolov,
    K. Patkowski, A. E. DePrince III, U. Bozkaya, R. A. King,
    F. A. Evangelista, J. M. Turney, T. D. Crawford, C. D. Sherrill,
    J. Chem. Phys. 152(18) 184108 (2020). https://doi.org/10.1063/5.0006002

                            Additional Code Authors
    E. T. Seidl, C. L. Janssen, E. F. Valeev, M. L. Leininger,
    J. F. Gonthier, R. M. Richard, H. R. McAlexander, M. Saitow, X. Wang,
    P. Verma, M. H. Lechner, A. Jiang, S. Behnle, A. G. Heide,
    M. F. Herbst, and D. L. Poole

             Previous Authors, Complete List of Code Contributors,
                       and Citations for Specific Modules
    https://github.com/psi4/psi4/blob/master/codemeta.json
    https://github.com/psi4/psi4/graphs/contributors
    http://psicode.org/psi4manual/master/introduction.html#citing-psifour

    -----------------------------------------------------------------------


    Psi4 started on: Monday, 22 January 2024 05:25AM

    Process ID: 33725
    Host:       ddmfs1
    PSIDATADIR: /ddmfs1b/softs/psi4conda/share/psi4
    Memory:     55.9 GiB
    Threads:    20
    
  ==> Input QCSchema <==

--------------------------------------------------------------------------
{'driver': 'energy',
 'extras': {'psiapi': True, 'wfn_qcvars_only': True},
 'id': None,
 'keywords': {'SCF_TYPE': 'DF', 'function_kwargs': {}},
 'model': {'basis': 'aug-cc-pvtz', 'method': 'mp2'},
 'molecule': {'atom_labels': ['', '', '', '', ''],
              'atomic_numbers': [8, 1, 1, 9, 9],
              'extras': {},
              'fix_com': True,
              'fix_orientation': True,
              'fix_symmetry': 'c1',
              'fragment_charges': [0.0, -1.0, -1.0],
              'fragment_multiplicities': [1, 1, 1],
              'fragments': [[0, 1, 2], [3], [4]],
              'geometry': [0.0, 0.0, 0.0, 1.1121756344246994, 1.4303677194292883, 0.0, 1.1121756344246994,
                           -1.4303677194292883, 0.0, 4.74230928581118, 4.74230928581118, 0.0, 4.74230928581118,
                           -4.74230928581118, 0.0],
              'mass_numbers': [16, 1, 1, 19, 19],
              'masses': [15.99491461957, 1.00782503223, 1.00782503223, 18.99840316273, 18.99840316273],
              'molecular_charge': -2.0,
              'molecular_multiplicity': 1,
              'name': 'dimer',
              'provenance': {'creator': 'QCElemental',
                             'routine': 'qcelemental.molparse.from_string',
                             'version': '0.26.0'},
              'real': [False, False, False, True, True],
              'schema_name': 'qcschema_molecule',
              'schema_version': 2,
              'symbols': ['O', 'H', 'H', 'F', 'F'],
              'validated': True},
 'protocols': {'stdout': True},
 'provenance': {'creator': 'QCElemental', 'routine': 'qcelemental.models.results', 'version': '0.26.0'},
 'schema_name': 'qcschema_input',
 'schema_version': 1}
--------------------------------------------------------------------------

Scratch directory: /ddmfs1a/scratch/
   => Libint2 <=

    Primary   basis highest AM E, G, H:  5, 4, 3
    Auxiliary basis highest AM E, G, H:  6, 5, 4
    Onebody   basis highest AM E, G, H:  6, 5, 4
    Solid Harmonics ordering:            gaussian

*** tstart() called on ddmfs1
*** at Mon Jan 22 05:25:33 2024

   => Loading Basis Set <=

    Name: AUG-CC-PVTZ
    Role: ORBITAL
    Keyword: BASIS
    atoms 1   entry O          line   331 file /ddmfs1b/softs/psi4conda/share/psi4/basis/aug-cc-pvtz.gbs 
    atoms 2-3 entry H          line    40 file /ddmfs1b/softs/psi4conda/share/psi4/basis/aug-cc-pvtz.gbs 
    atoms 4-5 entry F          line   377 file /ddmfs1b/softs/psi4conda/share/psi4/basis/aug-cc-pvtz.gbs 


         ---------------------------------------------------------
                                   SCF
               by Justin Turney, Rob Parrish, Andy Simmonett
                          and Daniel G. A. Smith
                              RHF Reference
                       20 Threads,  57220 MiB Core
         ---------------------------------------------------------

  ==> Geometry <==

    Molecular point group: c1
    Full point group: C2v

    Geometry (in Bohr), charge = -2, multiplicity = 1:

       Center              X                  Y                   Z               Mass       
    ------------   -----------------  -----------------  -----------------  -----------------
      Gh(O)           0.000000000000     0.000000000000     0.000000000000    15.994914619570
      Gh(H)           1.112175634425     1.430367719429     0.000000000000     1.007825032230
      Gh(H)           1.112175634425    -1.430367719429     0.000000000000     1.007825032230
         F            4.742309285811     4.742309285811     0.000000000000    18.998403162730
         F            4.742309285811    -4.742309285811     0.000000000000    18.998403162730

  Running in c1 symmetry.

  Rotational constants: A =      0.07024  B =      0.07011  C =      0.03509 [cm^-1]
  Rotational constants: A =   2105.82758  B =   2101.82834  C =   1051.91303 [MHz]
  Nuclear repulsion =    8.540143115754713

  Charge       = -2
  Multiplicity = 1
  Electrons    = 20
  Nalpha       = 10
  Nbeta        = 10

  ==> Algorithm <==

  SCF Algorithm Type is DF.
  DIIS enabled.
  MOM disabled.
  Fractional occupation disabled.
  Guess Type is SAD.
  Energy threshold   = 1.00e-08
  Density threshold  = 1.00e-08
  Integral threshold = 1.00e-12

  ==> Primary Basis <==

  Basis Set: AUG-CC-PVTZ
    Blend: AUG-CC-PVTZ
    Number of shells: 60
    Number of basis functions: 184
    Number of Cartesian functions: 215
    Spherical Harmonics?: true
    Max angular momentum: 3

   => Loading Basis Set <=

    Name: (AUG-CC-PVTZ AUX)
    Role: JKFIT
    Keyword: DF_BASIS_SCF
    atoms 1   entry O          line   286 file /ddmfs1b/softs/psi4conda/share/psi4/basis/aug-cc-pvtz-jkfit.gbs 
    atoms 2-3 entry H          line    70 file /ddmfs1b/softs/psi4conda/share/psi4/basis/aug-cc-pvtz-jkfit.gbs 
    atoms 4-5 entry F          line   348 file /ddmfs1b/softs/psi4conda/share/psi4/basis/aug-cc-pvtz-jkfit.gbs 

  ==> Integral Setup <==

  DFHelper Memory: AOs need 0.104 GiB; user supplied 41.910 GiB. 
  Using in-core AOs.

  ==> MemDFJK: Density-Fitted J/K Matrices <==

    J tasked:                   Yes
    K tasked:                   Yes
    wK tasked:                   No
    OpenMP threads:              20
    Memory [MiB]:             42915
    Algorithm:                 Core
    Schwarz Cutoff:           1E-12
    Mask sparsity (%):      10.9109
    Fitting Condition:        1E-10

   => Auxiliary Basis Set <=

  Basis Set: (AUG-CC-PVTZ AUX)
    Blend: AUG-CC-PVTZ-JKFIT
    Number of shells: 118
    Number of basis functions: 404
    Number of Cartesian functions: 503
    Spherical Harmonics?: true
    Max angular momentum: 4

  Minimum eigenvalue in the overlap matrix is 3.2387212899E-04.
  Reciprocal condition number of the overlap matrix is 4.5175228968E-05.
    Using symmetric orthogonalization.

  ==> Pre-Iterations <==

  SCF Guess: Superposition of Atomic Densities via on-the-fly atomic UHF (no occupation information).

   -------------------------
    Irrep   Nso     Nmo    
   -------------------------
     A        184     184 
   -------------------------
    Total     184     184
   -------------------------

  ==> Iterations <==

                           Total Energy        Delta E     RMS |[F,P]|

   @DF-RHF iter SAD:  -197.65070332246017   -1.97651e+02   0.00000e+00 
   @DF-RHF iter   1:  -198.57035516015401   -9.19652e-01   4.20013e-03 DIIS/ADIIS
   @DF-RHF iter   2:  -198.64364320346397   -7.32880e-02   4.08128e-03 DIIS/ADIIS
   @DF-RHF iter   3:  -198.79717193072696   -1.53529e-01   1.29658e-04 DIIS/ADIIS
   @DF-RHF iter   4:  -198.79731620998962   -1.44279e-04   4.97077e-05 DIIS
   @DF-RHF iter   5:  -198.79734046532184   -2.42553e-05   4.65789e-06 DIIS
   @DF-RHF iter   6:  -198.79734128314757   -8.17826e-07   7.56393e-07 DIIS
   @DF-RHF iter   7:  -198.79734132022742   -3.70798e-08   1.99034e-07 DIIS
   @DF-RHF iter   8:  -198.79734132235640   -2.12898e-09   2.69170e-08 DIIS
   @DF-RHF iter   9:  -198.79734132239099   -3.45892e-11   3.64538e-09 DIIS
  Energy and wave function converged.


  ==> Post-Iterations <==

    Orbital Energies [Eh]
    ---------------------

    Doubly Occupied:                                                      

       1A    -25.730334     2A    -25.730334     3A     -0.972338  
       4A     -0.972324     5A     -0.077690     6A     -0.077342  
       7A     -0.077299     8A     -0.077157     9A     -0.077121  
      10A     -0.076519  

    Virtual:                                                              

      11A      0.259644    12A      0.288634    13A      0.359405  
      14A      0.372064    15A      0.411045    16A      0.417915  
      17A      0.521923    18A      0.522997    19A      0.533337  
      20A      0.543804    21A      0.549300    22A      0.589617  
      23A      0.618740    24A      0.621015    25A      0.626024  
      26A      0.627789    27A      0.633742    28A      0.680316  
      29A      0.733544    30A      0.743647    31A      0.752544  
      32A      0.830146    33A      0.939666    34A      0.998307  
      35A      1.107181    36A      1.119815    37A      1.120252  
      38A      1.125717    39A      1.148311    40A      1.180400  
      41A      1.213308    42A      1.221285    43A      1.238767  
      44A      1.240712    45A      1.277195    46A      1.284354  
      47A      1.315334    48A      1.322395    49A      1.337385  
      50A      1.349595    51A      1.352298    52A      1.358010  
      53A      1.413370    54A      1.439787    55A      1.514739  
      56A      1.515041    57A      1.525335    58A      1.525774  
      59A      1.551784    60A      1.560879    61A      1.611482  
      62A      1.633490    63A      1.653838    64A      1.663103  
      65A      1.730336    66A      1.784420    67A      1.828987  
      68A      1.945365    69A      2.040702    70A      2.074249  
      71A      2.084601    72A      2.086533    73A      2.131703  
      74A      2.177832    75A      2.377296    76A      2.414092  
      77A      2.461100    78A      2.712397    79A      2.807920  
      80A      2.823292    81A      2.840833    82A      2.849531  
      83A      2.863420    84A      2.915766    85A      2.920103  
      86A      3.204349    87A      3.375705    88A      3.391204  
      89A      3.391680    90A      3.393039    91A      3.393414  
      92A      3.394770    93A      3.412267    94A      3.413738  
      95A      3.418034    96A      3.432195    97A      3.435778  
      98A      3.435855    99A      3.435863   100A      3.435922  
     101A      3.437456   102A      3.438868   103A      3.440704  
     104A      3.444235   105A      3.444467   106A      3.460101  
     107A      3.480425   108A      3.566394   109A      3.577621  
     110A      3.638214   111A      3.686545   112A      3.709387  
     113A      3.739900   114A      3.755615   115A      3.847768  
     116A      4.049172   117A      4.143869   118A      4.694244  
     119A      4.768786   120A      4.804932   121A      4.933242  
     122A      4.995091   123A      5.026189   124A      5.216685  
     125A      5.221542   126A      5.229010   127A      5.548293  
     128A      5.781943   129A      5.788467   130A      5.796830  
     131A      5.815910   132A      5.902489   133A      5.938909  
     134A      5.945532   135A      5.977526   136A      6.005771  
     137A      6.220554   138A      6.499337   139A      6.744672  
     140A      6.978903   141A      7.441188   142A      7.961927  
     143A      8.137516   144A      8.344482   145A      8.519618  
     146A      8.589290   147A      9.199361   148A      9.208404  
     149A      9.379200   150A      9.379224   151A      9.379250  
     152A      9.379263   153A      9.381128   154A      9.381451  
     155A      9.381709   156A      9.381732   157A      9.404272  
     158A      9.405862   159A      9.406765   160A      9.434270  
     161A      9.491243   162A      9.508661   163A      9.862428  
     164A      9.862874   165A      9.862980   166A      9.863809  
     167A      9.894369   168A      9.898372   169A      9.903412  
     170A      9.933166   171A      9.938517   172A     10.032822  
     173A     10.041304   174A     10.132202   175A     10.331891  
     176A     10.562953   177A     11.505730   178A     11.512089  
     179A     11.615093   180A     11.942607   181A     12.461750  
     182A     13.968857   183A     14.202002   184A     66.548424  

    Final Occupation by Irrep:
              A 
    DOCC [    10 ]
    NA   [    10 ]
    NB   [    10 ]

  @DF-RHF Final Energy:  -198.79734132239099

   => Energetics <=

    Nuclear Repulsion Energy =              8.5401431157547130
    One-Electron Energy =                -306.9380526452727054
    Two-Electron Energy =                  99.6005682071270257
    Total Energy =                       -198.7973413223909915

Computation Completed


Properties will be evaluated at   0.000000,   0.000000,   0.000000 [a0]

Properties computed using the SCF density matrix


 Multipole Moments:

 ------------------------------------------------------------------------------------
     Multipole            Electronic (a.u.)      Nuclear  (a.u.)        Total (a.u.)
 ------------------------------------------------------------------------------------

 L = 1.  Multiply by 2.5417464519 to convert [e a0] to [Debye]
 Dipole X            :        -94.8529028           85.3615671           -9.4913356
 Dipole Y            :         -0.0000000            0.0000000           -0.0000000
 Dipole Z            :          0.0000000            0.0000000            0.0000000
 Magnitude           :                                                    9.4913356

 ------------------------------------------------------------------------------------

*** tstop() called on ddmfs1 at Mon Jan 22 05:25:34 2024
Module time:
	user time   =      13.24 seconds =       0.22 minutes
	system time =       0.41 seconds =       0.01 minutes
	total time  =          1 seconds =       0.02 minutes
Total time:
	user time   =      56.73 seconds =       0.95 minutes
	system time =       2.15 seconds =       0.04 minutes
	total time  =          4 seconds =       0.07 minutes

*** tstart() called on ddmfs1
*** at Mon Jan 22 05:25:34 2024


  //>>>>>>>>>>>>>>>>>>>>>>>>>>>>>>>>>>>//
  //               DFMP2               //
  //<<<<<<<<<<<<<<<<<<<<<<<<<<<<<<<<<<<//

   => Loading Basis Set <=

    Name: (AUG-CC-PVTZ AUX)
    Role: RIFIT
    Keyword: DF_BASIS_MP2
    atoms 1   entry O          line   264 file /ddmfs1b/softs/psi4conda/share/psi4/basis/aug-cc-pvtz-ri.gbs 
    atoms 2-3 entry H          line    30 file /ddmfs1b/softs/psi4conda/share/psi4/basis/aug-cc-pvtz-ri.gbs 
    atoms 4-5 entry F          line   322 file /ddmfs1b/softs/psi4conda/share/psi4/basis/aug-cc-pvtz-ri.gbs 

	 --------------------------------------------------------
	                          DF-MP2                         
	      2nd-Order Density-Fitted Moller-Plesset Theory     
	              RMP2 Wavefunction,  20 Threads             
	                                                         
	        Rob Parrish, Justin Turney, Andy Simmonett,      
	           Ed Hohenstein, and C. David Sherrill          
	 --------------------------------------------------------

   => Auxiliary Basis Set <=

  Basis Set: (AUG-CC-PVTZ AUX)
    Blend: AUG-CC-PVTZ-RI
    Number of shells: 112
    Number of basis functions: 410
    Number of Cartesian functions: 518
    Spherical Harmonics?: true
    Max angular momentum: 4

	 --------------------------------------------------------
	                 NBF =   184, NAUX =   410
	 --------------------------------------------------------
	   CLASS    FOCC     OCC    AOCC    AVIR     VIR    FVIR
	   PAIRS       0      10      10     174     174       0
	 --------------------------------------------------------

	-----------------------------------------------------------
	 ==================> DF-MP2 Energies <==================== 
	-----------------------------------------------------------
	 Reference Energy          =    -198.7973413223909915 [Eh]
	 Singles Energy            =      -0.0000000000000000 [Eh]
	 Same-Spin Energy          =      -0.1633594018476608 [Eh]
	 Opposite-Spin Energy      =      -0.4533031219948490 [Eh]
	 Correlation Energy        =      -0.6166625238425099 [Eh]
	 Total Energy              =    -199.4140038462334985 [Eh]
	-----------------------------------------------------------
	 ================> DF-SCS-MP2 Energies <================== 
	-----------------------------------------------------------
	 SCS Same-Spin Scale       =       0.3333333333333333 [-]
	 SCS Opposite-Spin Scale   =       1.2000000000000000 [-]
	 SCS Same-Spin Energy      =      -0.0544531339492203 [Eh]
	 SCS Opposite-Spin Energy  =      -0.5439637463938187 [Eh]
	 SCS Correlation Energy    =      -0.5984168803430390 [Eh]
	 SCS Total Energy          =    -199.3957582027340436 [Eh]
	-----------------------------------------------------------


*** tstop() called on ddmfs1 at Mon Jan 22 05:25:34 2024
Module time:
	user time   =       6.15 seconds =       0.10 minutes
	system time =       0.21 seconds =       0.00 minutes
	total time  =          0 seconds =       0.00 minutes
Total time:
	user time   =      62.90 seconds =       1.05 minutes
	system time =       2.36 seconds =       0.04 minutes
	total time  =          4 seconds =       0.07 minutes

    Psi4 stopped on: Monday, 22 January 2024 05:25AM
    Psi4 wall time for execution: 0:00:01.31


    -----------------------------------------------------------------------
          Psi4: An Open-Source Ab Initio Electronic Structure Package
                               Psi4 1.8.2 release

                         Git: Rev {} zzzzzzz 


    D. G. A. Smith, L. A. Burns, A. C. Simmonett, R. M. Parrish,
    M. C. Schieber, R. Galvelis, P. Kraus, H. Kruse, R. Di Remigio,
    A. Alenaizan, A. M. James, S. Lehtola, J. P. Misiewicz, M. Scheurer,
    R. A. Shaw, J. B. Schriber, Y. Xie, Z. L. Glick, D. A. Sirianni,
    J. S. O'Brien, J. M. Waldrop, A. Kumar, E. G. Hohenstein,
    B. P. Pritchard, B. R. Brooks, H. F. Schaefer III, A. Yu. Sokolov,
    K. Patkowski, A. E. DePrince III, U. Bozkaya, R. A. King,
    F. A. Evangelista, J. M. Turney, T. D. Crawford, C. D. Sherrill,
    J. Chem. Phys. 152(18) 184108 (2020). https://doi.org/10.1063/5.0006002

                            Additional Code Authors
    E. T. Seidl, C. L. Janssen, E. F. Valeev, M. L. Leininger,
    J. F. Gonthier, R. M. Richard, H. R. McAlexander, M. Saitow, X. Wang,
    P. Verma, M. H. Lechner, A. Jiang, S. Behnle, A. G. Heide,
    M. F. Herbst, and D. L. Poole

             Previous Authors, Complete List of Code Contributors,
                       and Citations for Specific Modules
    https://github.com/psi4/psi4/blob/master/codemeta.json
    https://github.com/psi4/psi4/graphs/contributors
    http://psicode.org/psi4manual/master/introduction.html#citing-psifour

    -----------------------------------------------------------------------


    Psi4 started on: Monday, 22 January 2024 05:25AM

    Process ID: 33725
    Host:       ddmfs1
    PSIDATADIR: /ddmfs1b/softs/psi4conda/share/psi4
    Memory:     55.9 GiB
    Threads:    20
    
  ==> Input QCSchema <==

--------------------------------------------------------------------------
{'driver': 'energy',
 'extras': {'psiapi': True, 'wfn_qcvars_only': True},
 'id': None,
 'keywords': {'SCF_TYPE': 'DF', 'function_kwargs': {}},
 'model': {'basis': 'aug-cc-pvtz', 'method': 'mp2'},
 'molecule': {'atom_labels': ['', '', '', '', ''],
              'atomic_numbers': [8, 1, 1, 9, 9],
              'extras': {},
              'fix_com': True,
              'fix_orientation': True,
              'fix_symmetry': 'c1',
              'fragment_charges': [0.0, 0.0, -1.0],
              'fragment_multiplicities': [1, 1, 1],
              'fragments': [[0, 1, 2], [3], [4]],
              'geometry': [0.0, 0.0, 0.0, 1.1121756344246994, 1.4303677194292883, 0.0, 1.1121756344246994,
                           -1.4303677194292883, 0.0, 4.74230928581118, 4.74230928581118, 0.0, 4.74230928581118,
                           -4.74230928581118, 0.0],
              'mass_numbers': [16, 1, 1, 19, 19],
              'masses': [15.99491461957, 1.00782503223, 1.00782503223, 18.99840316273, 18.99840316273],
              'molecular_charge': -1.0,
              'molecular_multiplicity': 1,
              'name': 'dimer',
              'provenance': {'creator': 'QCElemental',
                             'routine': 'qcelemental.molparse.from_string',
                             'version': '0.26.0'},
              'real': [True, True, True, False, True],
              'schema_name': 'qcschema_molecule',
              'schema_version': 2,
              'symbols': ['O', 'H', 'H', 'F', 'F'],
              'validated': True},
 'protocols': {'stdout': True},
 'provenance': {'creator': 'QCElemental', 'routine': 'qcelemental.models.results', 'version': '0.26.0'},
 'schema_name': 'qcschema_input',
 'schema_version': 1}
--------------------------------------------------------------------------

Scratch directory: /ddmfs1a/scratch/
   => Libint2 <=

    Primary   basis highest AM E, G, H:  5, 4, 3
    Auxiliary basis highest AM E, G, H:  6, 5, 4
    Onebody   basis highest AM E, G, H:  6, 5, 4
    Solid Harmonics ordering:            gaussian

*** tstart() called on ddmfs1
*** at Mon Jan 22 05:25:34 2024

   => Loading Basis Set <=

    Name: AUG-CC-PVTZ
    Role: ORBITAL
    Keyword: BASIS
    atoms 1   entry O          line   331 file /ddmfs1b/softs/psi4conda/share/psi4/basis/aug-cc-pvtz.gbs 
    atoms 2-3 entry H          line    40 file /ddmfs1b/softs/psi4conda/share/psi4/basis/aug-cc-pvtz.gbs 
    atoms 4-5 entry F          line   377 file /ddmfs1b/softs/psi4conda/share/psi4/basis/aug-cc-pvtz.gbs 


         ---------------------------------------------------------
                                   SCF
               by Justin Turney, Rob Parrish, Andy Simmonett
                          and Daniel G. A. Smith
                              RHF Reference
                       20 Threads,  57220 MiB Core
         ---------------------------------------------------------

  ==> Geometry <==

    Molecular point group: c1
    Full point group: Cs

    Geometry (in Bohr), charge = -1, multiplicity = 1:

       Center              X                  Y                   Z               Mass       
    ------------   -----------------  -----------------  -----------------  -----------------
         O            0.000000000000     0.000000000000     0.000000000000    15.994914619570
         H            1.112175634425     1.430367719429     0.000000000000     1.007825032230
         H            1.112175634425    -1.430367719429     0.000000000000     1.007825032230
      Gh(F)           4.742309285811     4.742309285811     0.000000000000    18.998403162730
         F            4.742309285811    -4.742309285811     0.000000000000    18.998403162730

  Running in c1 symmetry.

  Rotational constants: A =      0.07024  B =      0.07011  C =      0.03509 [cm^-1]
  Rotational constants: A =   2105.82758  B =   2101.82834  C =   1051.91303 [MHz]
  Nuclear repulsion =   23.004162490070655

  Charge       = -1
  Multiplicity = 1
  Electrons    = 20
  Nalpha       = 10
  Nbeta        = 10

  ==> Algorithm <==

  SCF Algorithm Type is DF.
  DIIS enabled.
  MOM disabled.
  Fractional occupation disabled.
  Guess Type is SAD.
  Energy threshold   = 1.00e-08
  Density threshold  = 1.00e-08
  Integral threshold = 1.00e-12

  ==> Primary Basis <==

  Basis Set: AUG-CC-PVTZ
    Blend: AUG-CC-PVTZ
    Number of shells: 60
    Number of basis functions: 184
    Number of Cartesian functions: 215
    Spherical Harmonics?: true
    Max angular momentum: 3

   => Loading Basis Set <=

    Name: (AUG-CC-PVTZ AUX)
    Role: JKFIT
    Keyword: DF_BASIS_SCF
    atoms 1   entry O          line   286 file /ddmfs1b/softs/psi4conda/share/psi4/basis/aug-cc-pvtz-jkfit.gbs 
    atoms 2-3 entry H          line    70 file /ddmfs1b/softs/psi4conda/share/psi4/basis/aug-cc-pvtz-jkfit.gbs 
    atoms 4-5 entry F          line   348 file /ddmfs1b/softs/psi4conda/share/psi4/basis/aug-cc-pvtz-jkfit.gbs 

  ==> Integral Setup <==

  DFHelper Memory: AOs need 0.104 GiB; user supplied 41.910 GiB. 
  Using in-core AOs.

  ==> MemDFJK: Density-Fitted J/K Matrices <==

    J tasked:                   Yes
    K tasked:                   Yes
    wK tasked:                   No
    OpenMP threads:              20
    Memory [MiB]:             42915
    Algorithm:                 Core
    Schwarz Cutoff:           1E-12
    Mask sparsity (%):      10.9109
    Fitting Condition:        1E-10

   => Auxiliary Basis Set <=

  Basis Set: (AUG-CC-PVTZ AUX)
    Blend: AUG-CC-PVTZ-JKFIT
    Number of shells: 118
    Number of basis functions: 404
    Number of Cartesian functions: 503
    Spherical Harmonics?: true
    Max angular momentum: 4

  Minimum eigenvalue in the overlap matrix is 3.2387212899E-04.
  Reciprocal condition number of the overlap matrix is 4.5175228968E-05.
    Using symmetric orthogonalization.

  ==> Pre-Iterations <==

  SCF Guess: Superposition of Atomic Densities via on-the-fly atomic UHF (no occupation information).

   -------------------------
    Irrep   Nso     Nmo    
   -------------------------
     A        184     184 
   -------------------------
    Total     184     184
   -------------------------

  ==> Iterations <==

                           Total Energy        Delta E     RMS |[F,P]|

   @DF-RHF iter SAD:  -174.31045100643246   -1.74310e+02   0.00000e+00 
   @DF-RHF iter   1:  -175.34352925307687   -1.03308e+00   3.84869e-03 DIIS/ADIIS
   @DF-RHF iter   2:  -175.43066192023275   -8.71327e-02   3.25950e-03 DIIS/ADIIS
   @DF-RHF iter   3:  -175.53083430087588   -1.00172e-01   2.15901e-04 DIIS/ADIIS
   @DF-RHF iter   4:  -175.53144248726815   -6.08186e-04   1.15668e-04 DIIS/ADIIS
   @DF-RHF iter   5:  -175.53160938788017   -1.66901e-04   1.69632e-05 DIIS
   @DF-RHF iter   6:  -175.53161724384341   -7.85596e-06   4.26902e-06 DIIS
   @DF-RHF iter   7:  -175.53161782498606   -5.81143e-07   9.07771e-07 DIIS
   @DF-RHF iter   8:  -175.53161786388526   -3.88992e-08   2.24755e-07 DIIS
   @DF-RHF iter   9:  -175.53161786590445   -2.01919e-09   3.74916e-08 DIIS
   @DF-RHF iter  10:  -175.53161786595885   -5.43992e-11   7.37991e-09 DIIS
  Energy and wave function converged.


  ==> Post-Iterations <==

    Orbital Energies [Eh]
    ---------------------

    Doubly Occupied:                                                      

       1A    -25.855831     2A    -20.409163     3A     -1.195360  
       4A     -1.098678     5A     -0.558661     6A     -0.431619  
       7A     -0.354831     8A     -0.203991     9A     -0.203505  
      10A     -0.203483  

    Virtual:                                                              

      11A      0.132555    12A      0.190960    13A      0.226324  
      14A      0.250383    15A      0.263042    16A      0.278940  
      17A      0.296205    18A      0.302257    19A      0.326979  
      20A      0.357068    21A      0.419724    22A      0.426179  
      23A      0.431448    24A      0.444546    25A      0.464805  
      26A      0.486292    27A      0.492125    28A      0.506741  
      29A      0.571469    30A      0.627722    31A      0.667949  
      32A      0.718008    33A      0.813611    34A      0.839285  
      35A      0.848904    36A      0.868254    37A      0.869801  
      38A      0.876194    39A      0.895603    40A      0.907639  
      41A      0.931210    42A      0.982082    43A      0.995357  
      44A      1.005522    45A      1.051659    46A      1.069718  
      47A      1.070775    48A      1.089127    49A      1.097816  
      50A      1.114337    51A      1.117060    52A      1.128346  
      53A      1.159975    54A      1.204312    55A      1.205878  
      56A      1.234791    57A      1.250523    58A      1.282249  
      59A      1.304863    60A      1.365661    61A      1.386432  
      62A      1.418133    63A      1.424072    64A      1.450426  
      65A      1.474715    66A      1.518643    67A      1.542436  
      68A      1.611525    69A      1.697785    70A      1.726317  
      71A      1.781348    72A      1.817614    73A      1.997044  
      74A      2.028050    75A      2.142430    76A      2.387340  
      77A      2.427527    78A      2.488622    79A      2.510477  
      80A      2.529524    81A      2.580114    82A      2.650718  
      83A      2.660647    84A      2.685918    85A      2.856667  
      86A      2.859284    87A      2.953939    88A      2.989817  
      89A      3.019031    90A      3.117193    91A      3.124824  
      92A      3.173615    93A      3.173634    94A      3.177019  
      95A      3.177642    96A      3.187641    97A      3.210910  
      98A      3.266455    99A      3.268114   100A      3.273418  
     101A      3.293500   102A      3.299052   103A      3.304547  
     104A      3.311401   105A      3.311448   106A      3.314120  
     107A      3.316136   108A      3.378433   109A      3.423377  
     110A      3.477044   111A      3.525771   112A      3.604849  
     113A      3.639185   114A      3.640941   115A      3.705179  
     116A      3.754499   117A      3.844291   118A      3.949100  
     119A      4.018427   120A      4.190440   121A      4.304675  
     122A      4.341807   123A      4.442280   124A      4.453947  
     125A      4.559276   126A      4.571015   127A      4.590770  
     128A      4.758921   129A      4.973685   130A      5.165602  
     131A      5.320651   132A      5.359884   133A      5.514247  
     134A      5.528171   135A      5.665031   136A      5.677096  
     137A      5.693408   138A      5.840949   139A      5.908313  
     140A      6.357125   141A      6.684590   142A      6.873904  
     143A      7.083796   144A      7.296761   145A      7.432649  
     146A      7.486238   147A      7.496784   148A      7.502490  
     149A      7.552686   150A      7.869895   151A      8.081193  
     152A      8.157615   153A      9.003642   154A      9.254268  
     155A      9.254283   156A      9.255218   157A      9.255332  
     158A      9.285711   159A      9.293019   160A      9.360667  
     161A      9.482326   162A      9.737558   163A      9.738159  
     164A      9.776891   165A      9.797397   166A      9.892913  
     167A     10.244435   168A     10.244451   169A     10.245959  
     170A     10.246078   171A     10.277810   172A     10.286890  
     173A     10.374613   174A     11.401628   175A     13.032847  
     176A     13.033442   177A     13.068602   178A     13.087682  
     179A     13.158704   180A     14.307448   181A     14.316364  
     182A     14.493940   183A     16.727453   184A     67.148457  

    Final Occupation by Irrep:
              A 
    DOCC [    10 ]
    NA   [    10 ]
    NB   [    10 ]

  @DF-RHF Final Energy:  -175.53161786595885

   => Energetics <=

    Nuclear Repulsion Energy =             23.0041624900706552
    One-Electron Energy =                -296.0413125733570041
    Two-Electron Energy =                  97.5055322173274988
    Total Energy =                       -175.5316178659588502

Computation Completed


Properties will be evaluated at   0.000000,   0.000000,   0.000000 [a0]

Properties computed using the SCF density matrix


 Multipole Moments:

 ------------------------------------------------------------------------------------
     Multipole            Electronic (a.u.)      Nuclear  (a.u.)        Total (a.u.)
 ------------------------------------------------------------------------------------

 L = 1.  Multiply by 2.5417464519 to convert [e a0] to [Debye]
 Dipole X            :        -48.6801676           44.9051348           -3.7750328
 Dipole Y            :         47.2019407          -42.6807836            4.5211572
 Dipole Z            :          0.0000000            0.0000000            0.0000000
 Magnitude           :                                                    5.8899690

 ------------------------------------------------------------------------------------

*** tstop() called on ddmfs1 at Mon Jan 22 05:25:35 2024
Module time:
	user time   =      15.09 seconds =       0.25 minutes
	system time =       0.51 seconds =       0.01 minutes
	total time  =          1 seconds =       0.02 minutes
Total time:
	user time   =      79.15 seconds =       1.32 minutes
	system time =       2.91 seconds =       0.05 minutes
	total time  =          5 seconds =       0.08 minutes

*** tstart() called on ddmfs1
*** at Mon Jan 22 05:25:35 2024


  //>>>>>>>>>>>>>>>>>>>>>>>>>>>>>>>>>>>//
  //               DFMP2               //
  //<<<<<<<<<<<<<<<<<<<<<<<<<<<<<<<<<<<//

   => Loading Basis Set <=

    Name: (AUG-CC-PVTZ AUX)
    Role: RIFIT
    Keyword: DF_BASIS_MP2
    atoms 1   entry O          line   264 file /ddmfs1b/softs/psi4conda/share/psi4/basis/aug-cc-pvtz-ri.gbs 
    atoms 2-3 entry H          line    30 file /ddmfs1b/softs/psi4conda/share/psi4/basis/aug-cc-pvtz-ri.gbs 
    atoms 4-5 entry F          line   322 file /ddmfs1b/softs/psi4conda/share/psi4/basis/aug-cc-pvtz-ri.gbs 

	 --------------------------------------------------------
	                          DF-MP2                         
	      2nd-Order Density-Fitted Moller-Plesset Theory     
	              RMP2 Wavefunction,  20 Threads             
	                                                         
	        Rob Parrish, Justin Turney, Andy Simmonett,      
	           Ed Hohenstein, and C. David Sherrill          
	 --------------------------------------------------------

   => Auxiliary Basis Set <=

  Basis Set: (AUG-CC-PVTZ AUX)
    Blend: AUG-CC-PVTZ-RI
    Number of shells: 112
    Number of basis functions: 410
    Number of Cartesian functions: 518
    Spherical Harmonics?: true
    Max angular momentum: 4

	 --------------------------------------------------------
	                 NBF =   184, NAUX =   410
	 --------------------------------------------------------
	   CLASS    FOCC     OCC    AOCC    AVIR     VIR    FVIR
	   PAIRS       0      10      10     174     174       0
	 --------------------------------------------------------

	-----------------------------------------------------------
	 ==================> DF-MP2 Energies <==================== 
	-----------------------------------------------------------
	 Reference Energy          =    -175.5316178659588502 [Eh]
	 Singles Energy            =      -0.0000000000000000 [Eh]
	 Same-Spin Energy          =      -0.1503055477567004 [Eh]
	 Opposite-Spin Energy      =      -0.4419800762657978 [Eh]
	 Correlation Energy        =      -0.5922856240224981 [Eh]
	 Total Energy              =    -176.1239034899813589 [Eh]
	-----------------------------------------------------------
	 ================> DF-SCS-MP2 Energies <================== 
	-----------------------------------------------------------
	 SCS Same-Spin Scale       =       0.3333333333333333 [-]
	 SCS Opposite-Spin Scale   =       1.2000000000000000 [-]
	 SCS Same-Spin Energy      =      -0.0501018492522334 [Eh]
	 SCS Opposite-Spin Energy  =      -0.5303760915189573 [Eh]
	 SCS Correlation Energy    =      -0.5804779407711907 [Eh]
	 SCS Total Energy          =    -176.1120958067300535 [Eh]
	-----------------------------------------------------------


*** tstop() called on ddmfs1 at Mon Jan 22 05:25:36 2024
Module time:
	user time   =       6.09 seconds =       0.10 minutes
	system time =       0.24 seconds =       0.00 minutes
	total time  =          1 seconds =       0.02 minutes
Total time:
	user time   =      85.26 seconds =       1.42 minutes
	system time =       3.15 seconds =       0.05 minutes
	total time  =          6 seconds =       0.10 minutes

    Psi4 stopped on: Monday, 22 January 2024 05:25AM
    Psi4 wall time for execution: 0:00:01.41


    -----------------------------------------------------------------------
          Psi4: An Open-Source Ab Initio Electronic Structure Package
                               Psi4 1.8.2 release

                         Git: Rev {} zzzzzzz 


    D. G. A. Smith, L. A. Burns, A. C. Simmonett, R. M. Parrish,
    M. C. Schieber, R. Galvelis, P. Kraus, H. Kruse, R. Di Remigio,
    A. Alenaizan, A. M. James, S. Lehtola, J. P. Misiewicz, M. Scheurer,
    R. A. Shaw, J. B. Schriber, Y. Xie, Z. L. Glick, D. A. Sirianni,
    J. S. O'Brien, J. M. Waldrop, A. Kumar, E. G. Hohenstein,
    B. P. Pritchard, B. R. Brooks, H. F. Schaefer III, A. Yu. Sokolov,
    K. Patkowski, A. E. DePrince III, U. Bozkaya, R. A. King,
    F. A. Evangelista, J. M. Turney, T. D. Crawford, C. D. Sherrill,
    J. Chem. Phys. 152(18) 184108 (2020). https://doi.org/10.1063/5.0006002

                            Additional Code Authors
    E. T. Seidl, C. L. Janssen, E. F. Valeev, M. L. Leininger,
    J. F. Gonthier, R. M. Richard, H. R. McAlexander, M. Saitow, X. Wang,
    P. Verma, M. H. Lechner, A. Jiang, S. Behnle, A. G. Heide,
    M. F. Herbst, and D. L. Poole

             Previous Authors, Complete List of Code Contributors,
                       and Citations for Specific Modules
    https://github.com/psi4/psi4/blob/master/codemeta.json
    https://github.com/psi4/psi4/graphs/contributors
    http://psicode.org/psi4manual/master/introduction.html#citing-psifour

    -----------------------------------------------------------------------


    Psi4 started on: Monday, 22 January 2024 05:25AM

    Process ID: 33725
    Host:       ddmfs1
    PSIDATADIR: /ddmfs1b/softs/psi4conda/share/psi4
    Memory:     55.9 GiB
    Threads:    20
    
  ==> Input QCSchema <==

--------------------------------------------------------------------------
{'driver': 'energy',
 'extras': {'psiapi': True, 'wfn_qcvars_only': True},
 'id': None,
 'keywords': {'SCF_TYPE': 'DF', 'function_kwargs': {}},
 'model': {'basis': 'aug-cc-pvtz', 'method': 'mp2'},
 'molecule': {'atom_labels': ['', '', '', '', ''],
              'atomic_numbers': [8, 1, 1, 9, 9],
              'extras': {},
              'fix_com': True,
              'fix_orientation': True,
              'fix_symmetry': 'c1',
              'fragment_charges': [0.0, -1.0, 0.0],
              'fragment_multiplicities': [1, 1, 1],
              'fragments': [[0, 1, 2], [3], [4]],
              'geometry': [0.0, 0.0, 0.0, 1.1121756344246994, 1.4303677194292883, 0.0, 1.1121756344246994,
                           -1.4303677194292883, 0.0, 4.74230928581118, 4.74230928581118, 0.0, 4.74230928581118,
                           -4.74230928581118, 0.0],
              'mass_numbers': [16, 1, 1, 19, 19],
              'masses': [15.99491461957, 1.00782503223, 1.00782503223, 18.99840316273, 18.99840316273],
              'molecular_charge': -1.0,
              'molecular_multiplicity': 1,
              'name': 'dimer',
              'provenance': {'creator': 'QCElemental',
                             'routine': 'qcelemental.molparse.from_string',
                             'version': '0.26.0'},
              'real': [True, True, True, True, False],
              'schema_name': 'qcschema_molecule',
              'schema_version': 2,
              'symbols': ['O', 'H', 'H', 'F', 'F'],
              'validated': True},
 'protocols': {'stdout': True},
 'provenance': {'creator': 'QCElemental', 'routine': 'qcelemental.models.results', 'version': '0.26.0'},
 'schema_name': 'qcschema_input',
 'schema_version': 1}
[...]


*** tstop() called on ddmfs1 at Mon Jan 22 05:25:38 2024
Module time:
	user time   =       6.00 seconds =       0.10 minutes
	system time =       0.21 seconds =       0.00 minutes
	total time  =          0 seconds =       0.00 minutes
Total time:
	user time   =     127.54 seconds =       2.13 minutes
	system time =       4.54 seconds =       0.08 minutes
	total time  =          8 seconds =       0.13 minutes

    Psi4 stopped on: Monday, 22 January 2024 05:25AM
    Psi4 wall time for execution: 0:00:01.27


    -----------------------------------------------------------------------
          Psi4: An Open-Source Ab Initio Electronic Structure Package
                               Psi4 1.8.2 release

                         Git: Rev {} zzzzzzz 


    D. G. A. Smith, L. A. Burns, A. C. Simmonett, R. M. Parrish,
    M. C. Schieber, R. Galvelis, P. Kraus, H. Kruse, R. Di Remigio,
    A. Alenaizan, A. M. James, S. Lehtola, J. P. Misiewicz, M. Scheurer,
    R. A. Shaw, J. B. Schriber, Y. Xie, Z. L. Glick, D. A. Sirianni,
    J. S. O'Brien, J. M. Waldrop, A. Kumar, E. G. Hohenstein,
    B. P. Pritchard, B. R. Brooks, H. F. Schaefer III, A. Yu. Sokolov,
    K. Patkowski, A. E. DePrince III, U. Bozkaya, R. A. King,
    F. A. Evangelista, J. M. Turney, T. D. Crawford, C. D. Sherrill,
    J. Chem. Phys. 152(18) 184108 (2020). https://doi.org/10.1063/5.0006002

                            Additional Code Authors
    E. T. Seidl, C. L. Janssen, E. F. Valeev, M. L. Leininger,
    J. F. Gonthier, R. M. Richard, H. R. McAlexander, M. Saitow, X. Wang,
    P. Verma, M. H. Lechner, A. Jiang, S. Behnle, A. G. Heide,
    M. F. Herbst, and D. L. Poole

             Previous Authors, Complete List of Code Contributors,
                       and Citations for Specific Modules
    https://github.com/psi4/psi4/blob/master/codemeta.json
    https://github.com/psi4/psi4/graphs/contributors
    http://psicode.org/psi4manual/master/introduction.html#citing-psifour

    -----------------------------------------------------------------------


    Psi4 started on: Monday, 22 January 2024 05:25AM

    Process ID: 33725
    Host:       ddmfs1
    PSIDATADIR: /ddmfs1b/softs/psi4conda/share/psi4
    Memory:     55.9 GiB
    Threads:    20
    
  ==> Input QCSchema <==

--------------------------------------------------------------------------
{'driver': 'energy',
 'extras': {'psiapi': True, 'wfn_qcvars_only': True},
 'id': None,
 'keywords': {'SCF_TYPE': 'DF', 'function_kwargs': {}},
 'model': {'basis': 'aug-cc-pvtz', 'method': 'mp2'},
 'molecule': {'atom_labels': ['', '', '', '', ''],
              'atomic_numbers': [8, 1, 1, 9, 9],
              'extras': {},
              'fix_com': True,
              'fix_orientation': True,
              'fix_symmetry': 'c1',
              'fragment_charges': [0.0, -1.0, -1.0],
              'fragment_multiplicities': [1, 1, 1],
              'fragments': [[0, 1, 2], [3], [4]],
              'geometry': [0.0, 0.0, 0.0, 1.1121756344246994, 1.4303677194292883, 0.0, 1.1121756344246994,
                           -1.4303677194292883, 0.0, 4.74230928581118, 4.74230928581118, 0.0, 4.74230928581118,
                           -4.74230928581118, 0.0],
              'mass_numbers': [16, 1, 1, 19, 19],
              'masses': [15.99491461957, 1.00782503223, 1.00782503223, 18.99840316273, 18.99840316273],
              'molecular_charge': -2.0,
              'molecular_multiplicity': 1,
              'name': 'dimer',
              'provenance': {'creator': 'QCElemental',
                             'routine': 'qcelemental.molparse.from_string',
                             'version': '0.26.0'},
              'real': [True, True, True, True, True],
              'schema_name': 'qcschema_molecule',
              'schema_version': 2,
              'symbols': ['O', 'H', 'H', 'F', 'F'],
              'validated': True},
 'protocols': {'stdout': True},
 'provenance': {'creator': 'QCElemental', 'routine': 'qcelemental.models.results', 'version': '0.26.0'},
 'schema_name': 'qcschema_input',
 'schema_version': 1}
--------------------------------------------------------------------------

Scratch directory: /ddmfs1a/scratch/
   => Libint2 <=

    Primary   basis highest AM E, G, H:  5, 4, 3
    Auxiliary basis highest AM E, G, H:  6, 5, 4
    Onebody   basis highest AM E, G, H:  6, 5, 4
    Solid Harmonics ordering:            gaussian

*** tstart() called on ddmfs1
*** at Mon Jan 22 05:25:38 2024

   => Loading Basis Set <=

    Name: AUG-CC-PVTZ
    Role: ORBITAL
    Keyword: BASIS
    atoms 1   entry O          line   331 file /ddmfs1b/softs/psi4conda/share/psi4/basis/aug-cc-pvtz.gbs 
    atoms 2-3 entry H          line    40 file /ddmfs1b/softs/psi4conda/share/psi4/basis/aug-cc-pvtz.gbs 
    atoms 4-5 entry F          line   377 file /ddmfs1b/softs/psi4conda/share/psi4/basis/aug-cc-pvtz.gbs 


         ---------------------------------------------------------
                                   SCF
               by Justin Turney, Rob Parrish, Andy Simmonett
                          and Daniel G. A. Smith
                              RHF Reference
                       20 Threads,  57220 MiB Core
         ---------------------------------------------------------

  ==> Geometry <==

    Molecular point group: c1
    Full point group: C2v

    Geometry (in Bohr), charge = -2, multiplicity = 1:

       Center              X                  Y                   Z               Mass       
    ------------   -----------------  -----------------  -----------------  -----------------
         O            0.000000000000     0.000000000000     0.000000000000    15.994914619570
         H            1.112175634425     1.430367719429     0.000000000000     1.007825032230
         H            1.112175634425    -1.430367719429     0.000000000000     1.007825032230
         F            4.742309285811     4.742309285811     0.000000000000    18.998403162730
         F            4.742309285811    -4.742309285811     0.000000000000    18.998403162730

  Running in c1 symmetry.

  Rotational constants: A =      0.07024  B =      0.07011  C =      0.03509 [cm^-1]
  Rotational constants: A =   2105.82758  B =   2101.82834  C =   1051.91303 [MHz]
  Nuclear repulsion =   45.368270247968951

  Charge       = -2
  Multiplicity = 1
  Electrons    = 30
  Nalpha       = 15
  Nbeta        = 15

  ==> Algorithm <==

  SCF Algorithm Type is DF.
  DIIS enabled.
  MOM disabled.
  Fractional occupation disabled.
  Guess Type is SAD.
  Energy threshold   = 1.00e-08
  Density threshold  = 1.00e-08
  Integral threshold = 1.00e-12

  ==> Primary Basis <==

  Basis Set: AUG-CC-PVTZ
    Blend: AUG-CC-PVTZ
    Number of shells: 60
    Number of basis functions: 184
    Number of Cartesian functions: 215
    Spherical Harmonics?: true
    Max angular momentum: 3

   => Loading Basis Set <=

    Name: (AUG-CC-PVTZ AUX)
    Role: JKFIT
    Keyword: DF_BASIS_SCF
    atoms 1   entry O          line   286 file /ddmfs1b/softs/psi4conda/share/psi4/basis/aug-cc-pvtz-jkfit.gbs 
    atoms 2-3 entry H          line    70 file /ddmfs1b/softs/psi4conda/share/psi4/basis/aug-cc-pvtz-jkfit.gbs 
    atoms 4-5 entry F          line   348 file /ddmfs1b/softs/psi4conda/share/psi4/basis/aug-cc-pvtz-jkfit.gbs 

  ==> Integral Setup <==

  DFHelper Memory: AOs need 0.104 GiB; user supplied 41.910 GiB. 
  Using in-core AOs.

  ==> MemDFJK: Density-Fitted J/K Matrices <==

    J tasked:                   Yes
    K tasked:                   Yes
    wK tasked:                   No
    OpenMP threads:              20
    Memory [MiB]:             42915
    Algorithm:                 Core
    Schwarz Cutoff:           1E-12
    Mask sparsity (%):      10.9109
    Fitting Condition:        1E-10

   => Auxiliary Basis Set <=

  Basis Set: (AUG-CC-PVTZ AUX)
    Blend: AUG-CC-PVTZ-JKFIT
    Number of shells: 118
    Number of basis functions: 404
    Number of Cartesian functions: 503
    Spherical Harmonics?: true
    Max angular momentum: 4

  Minimum eigenvalue in the overlap matrix is 3.2387212899E-04.
  Reciprocal condition number of the overlap matrix is 4.5175228968E-05.
    Using symmetric orthogonalization.

  ==> Pre-Iterations <==

  SCF Guess: Superposition of Atomic Densities via on-the-fly atomic UHF (no occupation information).

   -------------------------
    Irrep   Nso     Nmo    
   -------------------------
     A        184     184 
   -------------------------
    Total     184     184
   -------------------------

  ==> Iterations <==

                           Total Energy        Delta E     RMS |[F,P]|

   @DF-RHF iter SAD:  -273.14439066533328   -2.73144e+02   0.00000e+00 
   @DF-RHF iter   1:  -274.60498713868566   -1.46060e+00   4.80785e-03 DIIS/ADIIS
   @DF-RHF iter   2:  -274.72666716856531   -1.21680e-01   4.26708e-03 DIIS/ADIIS
   @DF-RHF iter   3:  -274.89540848206434   -1.68741e-01   2.33868e-04 DIIS/ADIIS
   @DF-RHF iter   4:  -274.89608713069907   -6.78649e-04   1.26171e-04 DIIS/ADIIS
   @DF-RHF iter   5:  -274.89627138286482   -1.84252e-04   1.83494e-05 DIIS
   @DF-RHF iter   6:  -274.89627927121933   -7.88835e-06   4.00149e-06 DIIS
   @DF-RHF iter   7:  -274.89627972527660   -4.54057e-07   7.08048e-07 DIIS
   @DF-RHF iter   8:  -274.89627975050053   -2.52239e-08   2.12679e-07 DIIS
   @DF-RHF iter   9:  -274.89627975295042   -2.44989e-09   4.02181e-08 DIIS
   @DF-RHF iter  10:  -274.89627975303694   -8.65157e-11   8.57716e-09 DIIS
  Energy and wave function converged.


  ==> Post-Iterations <==

    Orbital Energies [Eh]
    ---------------------

    Doubly Occupied:                                                      

       1A    -25.750103     2A    -25.750103     3A    -20.254443  
       4A     -1.041401     5A     -0.992901     6A     -0.992879  
       7A     -0.404672     8A     -0.281336     9A     -0.202852  
      10A     -0.098628    11A     -0.097952    12A     -0.097925  
      13A     -0.097743    14A     -0.097612    15A     -0.097182  

    Virtual:                                                              

      16A      0.273728    17A      0.288857    18A      0.390375  
      19A      0.404510    20A      0.431605    21A      0.458740  
      22A      0.512584    23A      0.513912    24A      0.517148  
      25A      0.532048    26A      0.535905    27A      0.579249  
      28A      0.602054    29A      0.607972    30A      0.613658  
      31A      0.629734    32A      0.638510    33A      0.718666  
      34A      0.736252    35A      0.758166    36A      0.807089  
      37A      0.873319    38A      0.997674    39A      1.009250  
      40A      1.018918    41A      1.042220    42A      1.051457  
      43A      1.140679    44A      1.167686    45A      1.193450  
      46A      1.219512    47A      1.226437    48A      1.228720  
      49A      1.261299    50A      1.263002    51A      1.272823  
      52A      1.302870    53A      1.317760    54A      1.318236  
      55A      1.331220    56A      1.342381    57A      1.379420  
      58A      1.411996    59A      1.418232    60A      1.480751  
      61A      1.503697    62A      1.507802    63A      1.523431  
      64A      1.549784    65A      1.558400    66A      1.576247  
      67A      1.590228    68A      1.622985    69A      1.636299  
      70A      1.681080    71A      1.746390    72A      1.850939  
      73A      1.870081    74A      1.933613    75A      1.935314  
      76A      1.966427    77A      2.154610    78A      2.183281  
      79A      2.252184    80A      2.263693    81A      2.576693  
      82A      2.638060    83A      2.647632    84A      2.657506  
      85A      2.712590    86A      2.728225    87A      2.815150  
      88A      2.819068    89A      2.832297    90A      3.010173  
      91A      3.011953    92A      3.131517    93A      3.153988  
      94A      3.182433    95A      3.372171    96A      3.372470  
      97A      3.373239    98A      3.373367    99A      3.403029  
     100A      3.408203   101A      3.409748   102A      3.412995  
     103A      3.416800   104A      3.416855   105A      3.416866  
     106A      3.416881   107A      3.419576   108A      3.420486  
     109A      3.421409   110A      3.421754   111A      3.485874  
     112A      3.490909   113A      3.496327   114A      3.538044  
     115A      3.561201   116A      3.639475   117A      3.710769  
     118A      3.725129   119A      4.056729   120A      4.131470  
     121A      4.351150   122A      4.458855   123A      4.500332  
     124A      4.600106   125A      4.612343   126A      4.719459  
     127A      4.732468   128A      4.745601   129A      4.913159  
     130A      5.128089   131A      5.308418   132A      5.478451  
     133A      5.505408   134A      5.665414   135A      5.672147  
     136A      5.763910   137A      5.767837   138A      5.775485  
     139A      5.803551   140A      5.849030   141A      5.934194  
     142A      6.023885   143A      6.057605   144A      6.511999  
     145A      6.836406   146A      7.025804   147A      7.237624  
     148A      7.448342   149A      7.585383   150A      7.638623  
     151A      7.651139   152A      7.654683   153A      7.705002  
     154A      8.029351   155A      8.233768   156A      8.312331  
     157A      9.161374   158A      9.359713   159A      9.359757  
     160A      9.359800   161A      9.359811   162A      9.360706  
     163A      9.361034   164A      9.361308   165A      9.361445  
     166A      9.389183   167A      9.389401   168A      9.393962  
     169A      9.410001   170A      9.457333   171A      9.477985  
     172A      9.842901   173A      9.843423   174A      9.843440  
     175A      9.844157   176A      9.877887   177A      9.887060  
     178A      9.889848   179A      9.917721   180A      9.987387  
     181A     10.010070   182A     11.471293   183A     11.544079  
     184A     16.870389  

    Final Occupation by Irrep:
              A 
    DOCC [    15 ]
    NA   [    15 ]
    NB   [    15 ]

  @DF-RHF Final Energy:  -274.89627975303694

   => Energetics <=

    Nuclear Repulsion Energy =             45.3682702479689510
    One-Electron Energy =                -488.0136325477157015
    Two-Electron Energy =                 167.7490825467098148
    Total Energy =                       -274.8962797530369357

Computation Completed


Properties will be evaluated at   0.000000,   0.000000,   0.000000 [a0]

Properties computed using the SCF density matrix


 Multipole Moments:

 ------------------------------------------------------------------------------------
     Multipole            Electronic (a.u.)      Nuclear  (a.u.)        Total (a.u.)
 ------------------------------------------------------------------------------------

 L = 1.  Multiply by 2.5417464519 to convert [e a0] to [Debye]
 Dipole X            :        -95.9423917           87.5859184           -8.3564733
 Dipole Y            :          0.0000000            0.0000000            0.0000000
 Dipole Z            :          0.0000000            0.0000000            0.0000000
 Magnitude           :                                                    8.3564733

 ------------------------------------------------------------------------------------

*** tstop() called on ddmfs1 at Mon Jan 22 05:25:39 2024
Module time:
	user time   =      15.41 seconds =       0.26 minutes
	system time =       0.41 seconds =       0.01 minutes
	total time  =          1 seconds =       0.02 minutes
Total time:
	user time   =     144.10 seconds =       2.40 minutes
	system time =       5.01 seconds =       0.08 minutes
	total time  =          9 seconds =       0.15 minutes

*** tstart() called on ddmfs1
*** at Mon Jan 22 05:25:39 2024


  //>>>>>>>>>>>>>>>>>>>>>>>>>>>>>>>>>>>//
  //               DFMP2               //
  //<<<<<<<<<<<<<<<<<<<<<<<<<<<<<<<<<<<//

   => Loading Basis Set <=

    Name: (AUG-CC-PVTZ AUX)
    Role: RIFIT
    Keyword: DF_BASIS_MP2
    atoms 1   entry O          line   264 file /ddmfs1b/softs/psi4conda/share/psi4/basis/aug-cc-pvtz-ri.gbs 
    atoms 2-3 entry H          line    30 file /ddmfs1b/softs/psi4conda/share/psi4/basis/aug-cc-pvtz-ri.gbs 
    atoms 4-5 entry F          line   322 file /ddmfs1b/softs/psi4conda/share/psi4/basis/aug-cc-pvtz-ri.gbs 

	 --------------------------------------------------------
	                          DF-MP2                         
	      2nd-Order Density-Fitted Moller-Plesset Theory     
	              RMP2 Wavefunction,  20 Threads             
	                                                         
	        Rob Parrish, Justin Turney, Andy Simmonett,      
	           Ed Hohenstein, and C. David Sherrill          
	 --------------------------------------------------------

   => Auxiliary Basis Set <=

  Basis Set: (AUG-CC-PVTZ AUX)
    Blend: AUG-CC-PVTZ-RI
    Number of shells: 112
    Number of basis functions: 410
    Number of Cartesian functions: 518
    Spherical Harmonics?: true
    Max angular momentum: 4

	 --------------------------------------------------------
	                 NBF =   184, NAUX =   410
	 --------------------------------------------------------
	   CLASS    FOCC     OCC    AOCC    AVIR     VIR    FVIR
	   PAIRS       0      15      15     169     169       0
	 --------------------------------------------------------

	-----------------------------------------------------------
	 ==================> DF-MP2 Energies <==================== 
	-----------------------------------------------------------
	 Reference Energy          =    -274.8962797530369357 [Eh]
	 Singles Energy            =      -0.0000000000000000 [Eh]
	 Same-Spin Energy          =      -0.2322451402596718 [Eh]
	 Opposite-Spin Energy      =      -0.6683230853421076 [Eh]
	 Correlation Energy        =      -0.9005682256017794 [Eh]
	 Total Energy              =    -275.7968479786387093 [Eh]
	-----------------------------------------------------------
	 ================> DF-SCS-MP2 Energies <================== 
	-----------------------------------------------------------
	 SCS Same-Spin Scale       =       0.3333333333333333 [-]
	 SCS Opposite-Spin Scale   =       1.2000000000000000 [-]
	 SCS Same-Spin Energy      =      -0.0774150467532239 [Eh]
	 SCS Opposite-Spin Energy  =      -0.8019877024105291 [Eh]
	 SCS Correlation Energy    =      -0.8794027491637531 [Eh]
	 SCS Total Energy          =    -275.7756825022007092 [Eh]
	-----------------------------------------------------------


*** tstop() called on ddmfs1 at Mon Jan 22 05:25:40 2024
Module time:
	user time   =       6.29 seconds =       0.10 minutes
	system time =       0.25 seconds =       0.00 minutes
	total time  =          1 seconds =       0.02 minutes
Total time:
	user time   =     150.41 seconds =       2.51 minutes
	system time =       5.26 seconds =       0.09 minutes
	total time  =         10 seconds =       0.17 minutes

    Psi4 stopped on: Monday, 22 January 2024 05:25AM
    Psi4 wall time for execution: 0:00:01.43


  //>>>>>>>>>>>>>>>>>>>>>>>>>>>>>>>>>>>//
  //          ManyBody Results         //
  //<<<<<<<<<<<<<<<<<<<<<<<<<<<<<<<<<<<//


   ==> N-Body: Counterpoise Corrected (CP) energies <==

        n-Body     Total Energy            Interaction Energy                          N-body Contribution to Interaction Energy
                   [Eh]                    [Eh]                  [kcal/mol]            [Eh]                  [kcal/mol]
             1  N/A                         0.000000000000        0.000000000000        0.000000000000        0.000000000000
             2  N/A                         0.063190801270       39.652826452677        0.063190801270       39.652826452677
  FULL/RTN   3  N/A                         0.065652835092       41.197776000412        0.002462033821        1.544949547735


    Psi4 stopped on: Monday, 22 January 2024 05:25AM
    Psi4 wall time for execution: 0:00:12.53

*** Psi4 exiting successfully. Buy a developer a beer!
