
    -----------------------------------------------------------------------
          Psi4: An Open-Source Ab Initio Electronic Structure Package
                               Psi4 1.8.2 release

                         Git: Rev {} zzzzzzz 


    D. G. A. Smith, L. A. Burns, A. C. Simmonett, R. M. Parrish,
    M. C. Schieber, R. Galvelis, P. Kraus, H. Kruse, R. Di Remigio,
    A. Alenaizan, A. M. James, S. Lehtola, J. P. Misiewicz, M. Scheurer,
    R. A. Shaw, J. B. Schriber, Y. Xie, Z. L. Glick, D. A. Sirianni,
    J. S. O'Brien, J. M. Waldrop, A. Kumar, E. G. Hohenstein,
    B. P. Pritchard, B. R. Brooks, H. F. Schaefer III, A. Yu. Sokolov,
    K. Patkowski, A. E. DePrince III, U. Bozkaya, R. A. King,
    F. A. Evangelista, J. M. Turney, T. D. Crawford, C. D. Sherrill,
    J. Chem. Phys. 152(18) 184108 (2020). https://doi.org/10.1063/5.0006002

                            Additional Code Authors
    E. T. Seidl, C. L. Janssen, E. F. Valeev, M. L. Leininger,
    J. F. Gonthier, R. M. Richard, H. R. McAlexander, M. Saitow, X. Wang,
    P. Verma, M. H. Lechner, A. Jiang, S. Behnle, A. G. Heide,
    M. F. Herbst, and D. L. Poole

             Previous Authors, Complete List of Code Contributors,
                       and Citations for Specific Modules
    https://github.com/psi4/psi4/blob/master/codemeta.json
    https://github.com/psi4/psi4/graphs/contributors
    http://psicode.org/psi4manual/master/introduction.html#citing-psifour

    -----------------------------------------------------------------------


    Psi4 started on: Monday, 22 January 2024 05:28AM

    Process ID: 34013
    Host:       ddmfs1
    PSIDATADIR: /ddmfs1b/softs/psi4conda/share/psi4
    Memory:     500.0 MiB
    Threads:    20
    
  ==> Input File <==

--------------------------------------------------------------------------
MEMORY 60 GB

molecule dimer {
0 1
O      0.000000     0.000000     0.000000
H      0.588538     0.756918     0.000000
H      0.588538    -0.756918     0.000000
--
-1 1
Cl     3.177738     3.177738     0.000000
--
-1 1
Cl     3.177738    -3.177738     0.000000

units ang
no_reorient
no_com
symmetry c1
}

set {
basis        aug-cc-pVTZ
scf_type     df
}

energy("mp2", bsse_type="cp")
--------------------------------------------------------------------------

  Memory set to  55.879 GiB by Python driver.

Scratch directory: /ddmfs1a/scratch/

  //>>>>>>>>>>>>>>>>>>>>>>>>>>>>>>>>>>>>>>>>//
  // ManyBody Setup: N-Body Levels [1, 2, 3]//
  //<<<<<<<<<<<<<<<<<<<<<<<<<<<<<<<<<<<<<<<<//

        Number of 1-body computations:     3
        Number of 2-body computations:     3
        Number of 3-body computations:     1

    -----------------------------------------------------------------------
          Psi4: An Open-Source Ab Initio Electronic Structure Package
                               Psi4 1.8.2 release

                         Git: Rev {} zzzzzzz 


    D. G. A. Smith, L. A. Burns, A. C. Simmonett, R. M. Parrish,
    M. C. Schieber, R. Galvelis, P. Kraus, H. Kruse, R. Di Remigio,
    A. Alenaizan, A. M. James, S. Lehtola, J. P. Misiewicz, M. Scheurer,
    R. A. Shaw, J. B. Schriber, Y. Xie, Z. L. Glick, D. A. Sirianni,
    J. S. O'Brien, J. M. Waldrop, A. Kumar, E. G. Hohenstein,
    B. P. Pritchard, B. R. Brooks, H. F. Schaefer III, A. Yu. Sokolov,
    K. Patkowski, A. E. DePrince III, U. Bozkaya, R. A. King,
    F. A. Evangelista, J. M. Turney, T. D. Crawford, C. D. Sherrill,
    J. Chem. Phys. 152(18) 184108 (2020). https://doi.org/10.1063/5.0006002

                            Additional Code Authors
    E. T. Seidl, C. L. Janssen, E. F. Valeev, M. L. Leininger,
    J. F. Gonthier, R. M. Richard, H. R. McAlexander, M. Saitow, X. Wang,
    P. Verma, M. H. Lechner, A. Jiang, S. Behnle, A. G. Heide,
    M. F. Herbst, and D. L. Poole

             Previous Authors, Complete List of Code Contributors,
                       and Citations for Specific Modules
    https://github.com/psi4/psi4/blob/master/codemeta.json
    https://github.com/psi4/psi4/graphs/contributors
    http://psicode.org/psi4manual/master/introduction.html#citing-psifour

    -----------------------------------------------------------------------


    Psi4 started on: Monday, 22 January 2024 05:28AM

    Process ID: 34013
    Host:       ddmfs1
    PSIDATADIR: /ddmfs1b/softs/psi4conda/share/psi4
    Memory:     55.9 GiB
    Threads:    20
    
  ==> Input QCSchema <==

--------------------------------------------------------------------------
{'driver': 'energy',
 'extras': {'psiapi': True, 'wfn_qcvars_only': True},
 'id': None,
 'keywords': {'SCF_TYPE': 'DF', 'function_kwargs': {}},
 'model': {'basis': 'aug-cc-pvtz', 'method': 'mp2'},
 'molecule': {'atom_labels': ['', '', '', '', ''],
              'atomic_numbers': [8, 1, 1, 17, 17],
              'extras': {},
              'fix_com': True,
              'fix_orientation': True,
              'fix_symmetry': 'c1',
              'fragment_charges': [0.0, 0.0, 0.0],
              'fragment_multiplicities': [1, 1, 1],
              'fragments': [[0, 1, 2], [3], [4]],
              'geometry': [0.0, 0.0, 0.0, 1.1121756344246994, 1.4303677194292883, 0.0, 1.1121756344246994,
                           -1.4303677194292883, 0.0, 6.005054518460108, 6.005054518460108, 0.0, 6.005054518460108,
                           -6.005054518460108, 0.0],
              'mass_numbers': [16, 1, 1, 35, 35],
              'masses': [15.99491461957, 1.00782503223, 1.00782503223, 34.968852682, 34.968852682],
              'molecular_charge': 0.0,
              'molecular_multiplicity': 1,
              'name': 'dimer',
              'provenance': {'creator': 'QCElemental',
                             'routine': 'qcelemental.molparse.from_string',
                             'version': '0.26.0'},
              'real': [True, True, True, False, False],
              'schema_name': 'qcschema_molecule',
              'schema_version': 2,
              'symbols': ['O', 'H', 'H', 'Cl', 'Cl'],
              'validated': True},
 'protocols': {'stdout': True},
 'provenance': {'creator': 'QCElemental', 'routine': 'qcelemental.models.results', 'version': '0.26.0'},
 'schema_name': 'qcschema_input',
 'schema_version': 1}
--------------------------------------------------------------------------

Scratch directory: /ddmfs1a/scratch/
   => Libint2 <=

    Primary   basis highest AM E, G, H:  5, 4, 3
    Auxiliary basis highest AM E, G, H:  6, 5, 4
    Onebody   basis highest AM E, G, H:  6, 5, 4
    Solid Harmonics ordering:            gaussian

*** tstart() called on ddmfs1
*** at Mon Jan 22 05:28:20 2024

   => Loading Basis Set <=

    Name: AUG-CC-PVTZ
    Role: ORBITAL
    Keyword: BASIS
    atoms 1   entry O          line   331 file /ddmfs1b/softs/psi4conda/share/psi4/basis/aug-cc-pvtz.gbs 
    atoms 2-3 entry H          line    40 file /ddmfs1b/softs/psi4conda/share/psi4/basis/aug-cc-pvtz.gbs 
    atoms 4-5 entry CL         line   988 file /ddmfs1b/softs/psi4conda/share/psi4/basis/aug-cc-pvtz.gbs 


         ---------------------------------------------------------
                                   SCF
               by Justin Turney, Rob Parrish, Andy Simmonett
                          and Daniel G. A. Smith
                              RHF Reference
                       20 Threads,  57220 MiB Core
         ---------------------------------------------------------

  ==> Geometry <==

    Molecular point group: c1
    Full point group: C2v

    Geometry (in Bohr), charge = 0, multiplicity = 1:

       Center              X                  Y                   Z               Mass       
    ------------   -----------------  -----------------  -----------------  -----------------
         O            0.000000000000     0.000000000000     0.000000000000    15.994914619570
         H            1.112175634425     1.430367719429     0.000000000000     1.007825032230
         H            1.112175634425    -1.430367719429     0.000000000000     1.007825032230
      Gh(CL)          6.005054518460     6.005054518460     0.000000000000    34.968852682000
      Gh(CL)          6.005054518460    -6.005054518460     0.000000000000    34.968852682000

  Running in c1 symmetry.

  Rotational constants: A =      0.02385  B =      0.02383  C =      0.01192 [cm^-1]
  Rotational constants: A =    714.89213  B =    714.43065  C =    357.33066 [MHz]
  Nuclear repulsion =    9.180197847927069

  Charge       = 0
  Multiplicity = 1
  Electrons    = 10
  Nalpha       = 5
  Nbeta        = 5

  ==> Algorithm <==

  SCF Algorithm Type is DF.
  DIIS enabled.
  MOM disabled.
  Fractional occupation disabled.
  Guess Type is SAD.
  Energy threshold   = 1.00e-08
  Density threshold  = 1.00e-08
  Integral threshold = 1.00e-12

  ==> Primary Basis <==

  Basis Set: AUG-CC-PVTZ
    Blend: AUG-CC-PVTZ
    Number of shells: 64
    Number of basis functions: 192
    Number of Cartesian functions: 223
    Spherical Harmonics?: true
    Max angular momentum: 3

   => Loading Basis Set <=

    Name: (AUG-CC-PVTZ AUX)
    Role: JKFIT
    Keyword: DF_BASIS_SCF
    atoms 1   entry O          line   286 file /ddmfs1b/softs/psi4conda/share/psi4/basis/aug-cc-pvtz-jkfit.gbs 
    atoms 2-3 entry H          line    70 file /ddmfs1b/softs/psi4conda/share/psi4/basis/aug-cc-pvtz-jkfit.gbs 
    atoms 4-5 entry CL         line   816 file /ddmfs1b/softs/psi4conda/share/psi4/basis/aug-cc-pvtz-jkfit.gbs 

  ==> Integral Setup <==

  DFHelper Memory: AOs need 0.136 GiB; user supplied 41.910 GiB. 
  Using in-core AOs.

  ==> MemDFJK: Density-Fitted J/K Matrices <==

    J tasked:                   Yes
    K tasked:                   Yes
    wK tasked:                   No
    OpenMP threads:              20
    Memory [MiB]:             42915
    Algorithm:                 Core
    Schwarz Cutoff:           1E-12
    Mask sparsity (%):       9.4727
    Fitting Condition:        1E-10

   => Auxiliary Basis Set <=

  Basis Set: (AUG-CC-PVTZ AUX)
    Blend: AUG-CC-PVTZ-JKFIT
    Number of shells: 142
    Number of basis functions: 488
    Number of Cartesian functions: 601
    Spherical Harmonics?: true
    Max angular momentum: 4

  Minimum eigenvalue in the overlap matrix is 3.3699394509E-04.
  Reciprocal condition number of the overlap matrix is 4.7545015335E-05.
    Using symmetric orthogonalization.

  ==> Pre-Iterations <==

  SCF Guess: Superposition of Atomic Densities via on-the-fly atomic UHF (no occupation information).

   -------------------------
    Irrep   Nso     Nmo    
   -------------------------
     A        192     192 
   -------------------------
    Total     192     192
   -------------------------

  ==> Iterations <==

                           Total Energy        Delta E     RMS |[F,P]|

   @DF-RHF iter SAD:   -75.47651208416070   -7.54765e+01   0.00000e+00 
   @DF-RHF iter   1:   -75.97615496856207   -4.99643e-01   2.44041e-03 ADIIS/DIIS
   @DF-RHF iter   2:   -76.02868044597132   -5.25255e-02   1.66247e-03 ADIIS/DIIS
   @DF-RHF iter   3:   -76.06007784562024   -3.13974e-02   1.13428e-04 ADIIS/DIIS
   @DF-RHF iter   4:   -76.06046803840957   -3.90193e-04   2.69019e-05 DIIS
   @DF-RHF iter   5:   -76.06049213425581   -2.40958e-05   6.12260e-06 DIIS
   @DF-RHF iter   6:   -76.06049410810438   -1.97385e-06   1.34043e-06 DIIS
   @DF-RHF iter   7:   -76.06049421226510   -1.04161e-07   2.41891e-07 DIIS
   @DF-RHF iter   8:   -76.06049421524234   -2.97725e-09   4.02319e-08 DIIS
   @DF-RHF iter   9:   -76.06049421530713   -6.47873e-11   9.91749e-09 DIIS
  Energy and wave function converged.


  ==> Post-Iterations <==

    Orbital Energies [Eh]
    ---------------------

    Doubly Occupied:                                                      

       1A    -20.567609     2A     -1.352987     3A     -0.716519  
       4A     -0.585133     5A     -0.510307  

    Virtual:                                                              

       6A      0.026352     7A      0.041312     8A      0.073375  
       9A      0.081121    10A      0.083004    11A      0.087967  
      12A      0.096373    13A      0.107462    14A      0.118061  
      15A      0.125453    16A      0.168543    17A      0.173421  
      18A      0.193648    19A      0.199667    20A      0.253373  
      21A      0.267822    22A      0.272828    23A      0.296092  
      24A      0.314073    25A      0.346100    26A      0.381709  
      27A      0.389323    28A      0.394727    29A      0.394816  
      30A      0.403450    31A      0.404820    32A      0.406473  
      33A      0.411331    34A      0.421868    35A      0.424054  
      36A      0.424432    37A      0.448163    38A      0.455464  
      39A      0.461853    40A      0.462070    41A      0.495660  
      42A      0.506883    43A      0.536723    44A      0.570913  
      45A      0.620382    46A      0.697851    47A      0.716903  
      48A      0.734901    49A      0.748387    50A      0.753269  
      51A      0.852305    52A      0.853543    53A      0.917065  
      54A      0.924796    55A      0.925365    56A      0.937403  
      57A      0.963530    58A      0.965715    59A      1.032558  
      60A      1.055456    61A      1.086631    62A      1.118733  
      63A      1.173305    64A      1.196442    65A      1.262413  
      66A      1.285362    67A      1.286044    68A      1.286204  
      69A      1.286293    70A      1.286428    71A      1.287340  
      72A      1.289414    73A      1.289726    74A      1.290651  
      75A      1.290766    76A      1.294788    77A      1.301521  
      78A      1.302368    79A      1.306748    80A      1.309747  
      81A      1.312768    82A      1.317873    83A      1.364480  
      84A      1.389784    85A      1.392964    86A      1.423099  
      87A      1.451076    88A      1.459538    89A      1.460698  
      90A      1.461778    91A      1.467426    92A      1.480367  
      93A      1.487118    94A      1.489084    95A      1.524384  
      96A      1.528156    97A      1.566682    98A      1.590976  
      99A      1.615423   100A      1.617000   101A      1.830979  
     102A      1.844323   103A      2.133165   104A      2.224294  
     105A      2.270281   106A      2.339007   107A      2.343323  
     108A      2.425989   109A      2.454490   110A      2.503309  
     111A      2.515564   112A      2.709254   113A      2.715930  
     114A      2.791041   115A      2.832402   116A      2.891756  
     117A      3.672921   118A      3.763202   119A      3.913365  
     120A      3.914050   121A      3.914119   122A      3.914248  
     123A      3.914539   124A      3.914552   125A      3.914553  
     126A      3.914594   127A      3.915812   128A      3.925137  
     129A      3.926572   130A      3.929168   131A      3.930072  
     132A      3.930411   133A      3.935228   134A      3.935814  
     135A      3.936840   136A      3.953450   137A      3.979781  
     138A      4.020232   139A      4.022116   140A      4.031887  
     141A      4.032555   142A      4.108231   143A      4.178735  
     144A      4.275476   145A      4.291778   146A      4.381858  
     147A      4.395417   148A      4.409370   149A      4.564982  
     150A      4.650323   151A      4.650547   152A      4.651544  
     153A      4.653539   154A      4.665010   155A      4.667581  
     156A      4.670276   157A      4.681365   158A      4.717966  
     159A      4.730764   160A      4.781462   161A      4.907515  
     162A      5.158200   163A      5.170614   164A      5.297555  
     165A      5.347807   166A      5.529179   167A      5.679451  
     168A      6.189893   169A      6.530933   170A      6.716299  
     171A      6.920017   172A      7.141089   173A      7.263363  
     174A      7.316991   175A      7.328131   176A      7.344287  
     177A      7.368182   178A      7.614849   179A      7.910534  
     180A      7.984601   181A      8.832551   182A     13.708761  
     183A     13.780010   184A     15.967353   185A     27.698041  
     186A     27.699344   187A     27.704156   188A     27.717797  
     189A     27.770089   190A     27.784803   191A    160.700556  
     192A    160.715480  

    Final Occupation by Irrep:
              A 
    DOCC [     5 ]
    NA   [     5 ]
    NB   [     5 ]

  @DF-RHF Final Energy:   -76.06049421530713

   => Energetics <=

    Nuclear Repulsion Energy =              9.1801978479270687
    One-Electron Energy =                -123.0162713885809893
    Two-Electron Energy =                  37.7755793253467971
    Total Energy =                        -76.0604942153071306

Computation Completed


Properties will be evaluated at   0.000000,   0.000000,   0.000000 [a0]

Properties computed using the SCF density matrix


 Multipole Moments:

 ------------------------------------------------------------------------------------
     Multipole            Electronic (a.u.)      Nuclear  (a.u.)        Total (a.u.)
 ------------------------------------------------------------------------------------

 L = 1.  Multiply by 2.5417464519 to convert [e a0] to [Debye]
 Dipole X            :         -1.4419620            2.2243513            0.7823892
 Dipole Y            :          0.0000000            0.0000000            0.0000000
 Dipole Z            :         -0.0000000            0.0000000           -0.0000000
 Magnitude           :                                                    0.7823892

 ------------------------------------------------------------------------------------

*** tstop() called on ddmfs1 at Mon Jan 22 05:28:21 2024
Module time:
	user time   =      22.06 seconds =       0.37 minutes
	system time =       1.80 seconds =       0.03 minutes
	total time  =          1 seconds =       0.02 minutes
Total time:
	user time   =      22.06 seconds =       0.37 minutes
	system time =       1.80 seconds =       0.03 minutes
	total time  =          1 seconds =       0.02 minutes

*** tstart() called on ddmfs1
*** at Mon Jan 22 05:28:21 2024


  //>>>>>>>>>>>>>>>>>>>>>>>>>>>>>>>>>>>//
  //               DFMP2               //
  //<<<<<<<<<<<<<<<<<<<<<<<<<<<<<<<<<<<//

   => Loading Basis Set <=

    Name: (AUG-CC-PVTZ AUX)
    Role: RIFIT
    Keyword: DF_BASIS_MP2
    atoms 1   entry O          line   264 file /ddmfs1b/softs/psi4conda/share/psi4/basis/aug-cc-pvtz-ri.gbs 
    atoms 2-3 entry H          line    30 file /ddmfs1b/softs/psi4conda/share/psi4/basis/aug-cc-pvtz-ri.gbs 
    atoms 4-5 entry CL         line   742 file /ddmfs1b/softs/psi4conda/share/psi4/basis/aug-cc-pvtz-ri.gbs 

	 --------------------------------------------------------
	                          DF-MP2                         
	      2nd-Order Density-Fitted Moller-Plesset Theory     
	              RMP2 Wavefunction,  20 Threads             
	                                                         
	        Rob Parrish, Justin Turney, Andy Simmonett,      
	           Ed Hohenstein, and C. David Sherrill          
	 --------------------------------------------------------

   => Auxiliary Basis Set <=

  Basis Set: (AUG-CC-PVTZ AUX)
    Blend: AUG-CC-PVTZ-RI
    Number of shells: 130
    Number of basis functions: 492
    Number of Cartesian functions: 628
    Spherical Harmonics?: true
    Max angular momentum: 4

	 --------------------------------------------------------
	                 NBF =   192, NAUX =   492
	 --------------------------------------------------------
	   CLASS    FOCC     OCC    AOCC    AVIR     VIR    FVIR
	   PAIRS       0       5       5     187     187       0
	 --------------------------------------------------------

	-----------------------------------------------------------
	 ==================> DF-MP2 Energies <==================== 
	-----------------------------------------------------------
	 Reference Energy          =     -76.0604942153071306 [Eh]
	 Singles Energy            =      -0.0000000000000000 [Eh]
	 Same-Spin Energy          =      -0.0683773172375313 [Eh]
	 Opposite-Spin Energy      =      -0.2153733451792064 [Eh]
	 Correlation Energy        =      -0.2837506624167377 [Eh]
	 Total Energy              =     -76.3442448777238667 [Eh]
	-----------------------------------------------------------
	 ================> DF-SCS-MP2 Energies <================== 
	-----------------------------------------------------------
	 SCS Same-Spin Scale       =       0.3333333333333333 [-]
	 SCS Opposite-Spin Scale   =       1.2000000000000000 [-]
	 SCS Same-Spin Energy      =      -0.0227924390791771 [Eh]
	 SCS Opposite-Spin Energy  =      -0.2584480142150477 [Eh]
	 SCS Correlation Energy    =      -0.2812404532942248 [Eh]
	 SCS Total Energy          =     -76.3417346686013616 [Eh]
	-----------------------------------------------------------


*** tstop() called on ddmfs1 at Mon Jan 22 05:28:23 2024
Module time:
	user time   =       9.17 seconds =       0.15 minutes
	system time =       0.60 seconds =       0.01 minutes
	total time  =          2 seconds =       0.03 minutes
Total time:
	user time   =      31.25 seconds =       0.52 minutes
	system time =       2.40 seconds =       0.04 minutes
	total time  =          3 seconds =       0.05 minutes

    Psi4 stopped on: Monday, 22 January 2024 05:28AM
    Psi4 wall time for execution: 0:00:03.76


    -----------------------------------------------------------------------
          Psi4: An Open-Source Ab Initio Electronic Structure Package
                               Psi4 1.8.2 release

                         Git: Rev {} zzzzzzz 


    D. G. A. Smith, L. A. Burns, A. C. Simmonett, R. M. Parrish,
    M. C. Schieber, R. Galvelis, P. Kraus, H. Kruse, R. Di Remigio,
    A. Alenaizan, A. M. James, S. Lehtola, J. P. Misiewicz, M. Scheurer,
    R. A. Shaw, J. B. Schriber, Y. Xie, Z. L. Glick, D. A. Sirianni,
    J. S. O'Brien, J. M. Waldrop, A. Kumar, E. G. Hohenstein,
    B. P. Pritchard, B. R. Brooks, H. F. Schaefer III, A. Yu. Sokolov,
    K. Patkowski, A. E. DePrince III, U. Bozkaya, R. A. King,
    F. A. Evangelista, J. M. Turney, T. D. Crawford, C. D. Sherrill,
    J. Chem. Phys. 152(18) 184108 (2020). https://doi.org/10.1063/5.0006002

                            Additional Code Authors
    E. T. Seidl, C. L. Janssen, E. F. Valeev, M. L. Leininger,
    J. F. Gonthier, R. M. Richard, H. R. McAlexander, M. Saitow, X. Wang,
    P. Verma, M. H. Lechner, A. Jiang, S. Behnle, A. G. Heide,
    M. F. Herbst, and D. L. Poole

             Previous Authors, Complete List of Code Contributors,
                       and Citations for Specific Modules
    https://github.com/psi4/psi4/blob/master/codemeta.json
    https://github.com/psi4/psi4/graphs/contributors
    http://psicode.org/psi4manual/master/introduction.html#citing-psifour

    -----------------------------------------------------------------------


    Psi4 started on: Monday, 22 January 2024 05:28AM

    Process ID: 34013
    Host:       ddmfs1
    PSIDATADIR: /ddmfs1b/softs/psi4conda/share/psi4
    Memory:     55.9 GiB
    Threads:    20
    
  ==> Input QCSchema <==

--------------------------------------------------------------------------
{'driver': 'energy',
 'extras': {'psiapi': True, 'wfn_qcvars_only': True},
 'id': None,
 'keywords': {'SCF_TYPE': 'DF', 'function_kwargs': {}},
 'model': {'basis': 'aug-cc-pvtz', 'method': 'mp2'},
 'molecule': {'atom_labels': ['', '', '', '', ''],
              'atomic_numbers': [8, 1, 1, 17, 17],
              'extras': {},
              'fix_com': True,
              'fix_orientation': True,
              'fix_symmetry': 'c1',
              'fragment_charges': [0.0, -1.0, 0.0],
              'fragment_multiplicities': [1, 1, 1],
              'fragments': [[0, 1, 2], [3], [4]],
              'geometry': [0.0, 0.0, 0.0, 1.1121756344246994, 1.4303677194292883, 0.0, 1.1121756344246994,
                           -1.4303677194292883, 0.0, 6.005054518460108, 6.005054518460108, 0.0, 6.005054518460108,
                           -6.005054518460108, 0.0],
              'mass_numbers': [16, 1, 1, 35, 35],
              'masses': [15.99491461957, 1.00782503223, 1.00782503223, 34.968852682, 34.968852682],
              'molecular_charge': -1.0,
              'molecular_multiplicity': 1,
              'name': 'dimer',
              'provenance': {'creator': 'QCElemental',
                             'routine': 'qcelemental.molparse.from_string',
                             'version': '0.26.0'},
              'real': [False, False, False, True, False],
              'schema_name': 'qcschema_molecule',
              'schema_version': 2,
              'symbols': ['O', 'H', 'H', 'Cl', 'Cl'],
              'validated': True},
 'protocols': {'stdout': True},
 'provenance': {'creator': 'QCElemental', 'routine': 'qcelemental.models.results', 'version': '0.26.0'},
 'schema_name': 'qcschema_input',
 'schema_version': 1}
--------------------------------------------------------------------------

Scratch directory: /ddmfs1a/scratch/
   => Libint2 <=

    Primary   basis highest AM E, G, H:  5, 4, 3
    Auxiliary basis highest AM E, G, H:  6, 5, 4
    Onebody   basis highest AM E, G, H:  6, 5, 4
    Solid Harmonics ordering:            gaussian

*** tstart() called on ddmfs1
*** at Mon Jan 22 05:28:23 2024

   => Loading Basis Set <=

    Name: AUG-CC-PVTZ
    Role: ORBITAL
    Keyword: BASIS
    atoms 1   entry O          line   331 file /ddmfs1b/softs/psi4conda/share/psi4/basis/aug-cc-pvtz.gbs 
    atoms 2-3 entry H          line    40 file /ddmfs1b/softs/psi4conda/share/psi4/basis/aug-cc-pvtz.gbs 
    atoms 4-5 entry CL         line   988 file /ddmfs1b/softs/psi4conda/share/psi4/basis/aug-cc-pvtz.gbs 


         ---------------------------------------------------------
                                   SCF
               by Justin Turney, Rob Parrish, Andy Simmonett
                          and Daniel G. A. Smith
                              RHF Reference
                       20 Threads,  57220 MiB Core
         ---------------------------------------------------------

  ==> Geometry <==

    Molecular point group: c1
    Full point group: Cs

    Geometry (in Bohr), charge = -1, multiplicity = 1:

       Center              X                  Y                   Z               Mass       
    ------------   -----------------  -----------------  -----------------  -----------------
      Gh(O)           0.000000000000     0.000000000000     0.000000000000    15.994914619570
      Gh(H)           1.112175634425     1.430367719429     0.000000000000     1.007825032230
      Gh(H)           1.112175634425    -1.430367719429     0.000000000000     1.007825032230
         CL           6.005054518460     6.005054518460     0.000000000000    34.968852682000
      Gh(CL)          6.005054518460    -6.005054518460     0.000000000000    34.968852682000

  Running in c1 symmetry.

  Rotational constants: A =      0.02385  B =      0.02383  C =      0.01192 [cm^-1]
  Rotational constants: A =    714.89213  B =    714.43065  C =    357.33066 [MHz]
  Nuclear repulsion =    0.000000000000000

  Charge       = -1
  Multiplicity = 1
  Electrons    = 18
  Nalpha       = 9
  Nbeta        = 9

  ==> Algorithm <==

  SCF Algorithm Type is DF.
  DIIS enabled.
  MOM disabled.
  Fractional occupation disabled.
  Guess Type is SAD.
  Energy threshold   = 1.00e-08
  Density threshold  = 1.00e-08
  Integral threshold = 1.00e-12

  ==> Primary Basis <==

  Basis Set: AUG-CC-PVTZ
    Blend: AUG-CC-PVTZ
    Number of shells: 64
    Number of basis functions: 192
    Number of Cartesian functions: 223
    Spherical Harmonics?: true
    Max angular momentum: 3

   => Loading Basis Set <=

    Name: (AUG-CC-PVTZ AUX)
    Role: JKFIT
    Keyword: DF_BASIS_SCF
    atoms 1   entry O          line   286 file /ddmfs1b/softs/psi4conda/share/psi4/basis/aug-cc-pvtz-jkfit.gbs 
    atoms 2-3 entry H          line    70 file /ddmfs1b/softs/psi4conda/share/psi4/basis/aug-cc-pvtz-jkfit.gbs 
    atoms 4-5 entry CL         line   816 file /ddmfs1b/softs/psi4conda/share/psi4/basis/aug-cc-pvtz-jkfit.gbs 

  ==> Integral Setup <==

  DFHelper Memory: AOs need 0.136 GiB; user supplied 41.910 GiB. 
  Using in-core AOs.

  ==> MemDFJK: Density-Fitted J/K Matrices <==

    J tasked:                   Yes
    K tasked:                   Yes
    wK tasked:                   No
    OpenMP threads:              20
    Memory [MiB]:             42915
    Algorithm:                 Core
    Schwarz Cutoff:           1E-12
    Mask sparsity (%):       9.4727
    Fitting Condition:        1E-10

   => Auxiliary Basis Set <=

  Basis Set: (AUG-CC-PVTZ AUX)
    Blend: AUG-CC-PVTZ-JKFIT
    Number of shells: 142
    Number of basis functions: 488
    Number of Cartesian functions: 601
    Spherical Harmonics?: true
    Max angular momentum: 4

  Minimum eigenvalue in the overlap matrix is 3.3699394509E-04.
  Reciprocal condition number of the overlap matrix is 4.7545015335E-05.
    Using symmetric orthogonalization.

  ==> Pre-Iterations <==

  SCF Guess: Superposition of Atomic Densities via on-the-fly atomic UHF (no occupation information).

   -------------------------
    Irrep   Nso     Nmo    
   -------------------------
     A        192     192 
   -------------------------
    Total     192     192
   -------------------------

  ==> Iterations <==

                           Total Energy        Delta E     RMS |[F,P]|

   @DF-RHF iter SAD:  -459.11248994815207   -4.59112e+02   0.00000e+00 
   @DF-RHF iter   1:  -459.51389244191466   -4.01402e-01   1.55274e-03 ADIIS/DIIS
   @DF-RHF iter   2:  -459.56473429806687   -5.08419e-02   7.92960e-04 ADIIS/DIIS
   @DF-RHF iter   3:  -459.57343008826285   -8.69579e-03   5.27307e-05 DIIS
   @DF-RHF iter   4:  -459.57348519222950   -5.51040e-05   1.07756e-05 DIIS
   @DF-RHF iter   5:  -459.57348895644458   -3.76422e-06   1.11082e-06 DIIS
   @DF-RHF iter   6:  -459.57348902999701   -7.35524e-08   6.19079e-08 DIIS
   @DF-RHF iter   7:  -459.57348903024564   -2.48633e-10   8.57262e-09 DIIS
  Energy and wave function converged.


  ==> Post-Iterations <==

    Orbital Energies [Eh]
    ---------------------

    Doubly Occupied:                                                      

       1A   -104.506033     2A    -10.229757     3A     -7.695793  
       4A     -7.695792     5A     -7.695784     6A     -0.733507  
       7A     -0.150337     8A     -0.150331     9A     -0.150331  

    Virtual:                                                              

      10A      0.112691    11A      0.150953    12A      0.167872  
      13A      0.172247    14A      0.191237    15A      0.201177  
      16A      0.231081    17A      0.242965    18A      0.264495  
      19A      0.281140    20A      0.294864    21A      0.295456  
      22A      0.307436    23A      0.383302    24A      0.395690  
      25A      0.398172    26A      0.410240    27A      0.438285  
      28A      0.469543    29A      0.473100    30A      0.481450  
      31A      0.483721    32A      0.494413    33A      0.510545  
      34A      0.513767    35A      0.521265    36A      0.535752  
      37A      0.546904    38A      0.575998    39A      0.592127  
      40A      0.595587    41A      0.601193    42A      0.617824  
      43A      0.653907    44A      0.666170    45A      0.717838  
      46A      0.782279    47A      0.823518    48A      0.891783  
      49A      0.895033    50A      0.903726    51A      0.930167  
      52A      0.936031    53A      0.949473    54A      0.955093  
      55A      0.977961    56A      1.030697    57A      1.032987  
      58A      1.067548    59A      1.077506    60A      1.096109  
      61A      1.097692    62A      1.158401    63A      1.180599  
      64A      1.184153    65A      1.221584    66A      1.225085  
      67A      1.229301    68A      1.255871    69A      1.256912  
      70A      1.286957    71A      1.302918    72A      1.328140  
      73A      1.338334    74A      1.377340    75A      1.377883  
      76A      1.380324    77A      1.383604    78A      1.384984  
      79A      1.390438    80A      1.393619    81A      1.403057  
      82A      1.427578    83A      1.461718    84A      1.468146  
      85A      1.468168    86A      1.470667    87A      1.470703  
      88A      1.490194    89A      1.501798    90A      1.521760  
      91A      1.550078    92A      1.553161    93A      1.557973  
      94A      1.577662    95A      1.606689    96A      1.628332  
      97A      1.675420    98A      1.754645    99A      1.825597  
     100A      1.862565   101A      1.868647   102A      1.955286  
     103A      2.028981   104A      2.203606   105A      2.521587  
     106A      2.571451   107A      2.643883   108A      2.663403  
     109A      2.671882   110A      2.672010   111A      2.699727  
     112A      2.746759   113A      2.829774   114A      2.830663  
     115A      2.853130   116A      2.858717   117A      2.892802  
     118A      2.983558   119A      2.987060   120A      3.020206  
     121A      3.091699   122A      3.275482   123A      3.280639  
     124A      3.289421   125A      3.373532   126A      3.373579  
     127A      3.373824   128A      3.374147   129A      3.375375  
     130A      3.397627   131A      3.451329   132A      3.456635  
     133A      3.483226   134A      3.676719   135A      3.823028  
     136A      4.006773   137A      4.006851   138A      4.007806  
     139A      4.008326   140A      4.019747   141A      4.026060  
     142A      4.027131   143A      4.031927   144A      4.039069  
     145A      4.092927   146A      4.171357   147A      4.483114  
     148A      4.554523   149A      4.606261   150A      4.733398  
     151A      4.743843   152A      4.744491   153A      4.758072  
     154A      4.763463   155A      4.779901   156A      4.816841  
     157A      4.829185   158A      4.982007   159A      5.014303  
     160A      5.024152   161A      5.328405   162A      5.511277  
     163A      5.682973   164A      5.737048   165A      5.784552  
     166A      5.982604   167A      6.270206   168A      6.527351  
     169A      6.752579   170A      7.204499   171A      7.781907  
     172A      7.948119   173A      8.165096   174A      8.299239  
     175A      8.408270   176A      8.930677   177A      8.992057  
     178A      9.750531   179A      9.944522   180A     10.111777  
     181A     10.341092   182A     11.367852   183A     11.734407  
     184A     12.240664   185A     13.639921   186A     13.839738  
     187A     13.932686   188A     27.794265   189A     27.801917  
     190A     27.869556   191A     65.080595   192A    160.801332  

    Final Occupation by Irrep:
              A 
    DOCC [     9 ]
    NA   [     9 ]
    NB   [     9 ]

  @DF-RHF Final Energy:  -459.57348903024564

   => Energetics <=

    Nuclear Repulsion Energy =              0.0000000000000000
    One-Electron Energy =                -641.1316602663192725
    Two-Electron Energy =                 181.5581712360736049
    Total Energy =                       -459.5734890302456961

Computation Completed


Properties will be evaluated at   0.000000,   0.000000,   0.000000 [a0]

Properties computed using the SCF density matrix


 Multipole Moments:

 ------------------------------------------------------------------------------------
     Multipole            Electronic (a.u.)      Nuclear  (a.u.)        Total (a.u.)
 ------------------------------------------------------------------------------------

 L = 1.  Multiply by 2.5417464519 to convert [e a0] to [Debye]
 Dipole X            :       -108.0907012          102.0859268           -6.0047744
 Dipole Y            :       -108.0908041          102.0859268           -6.0048773
 Dipole Z            :          0.0000000            0.0000000            0.0000000
 Magnitude           :                                                    8.4921061

 ------------------------------------------------------------------------------------

*** tstop() called on ddmfs1 at Mon Jan 22 05:28:25 2024
Module time:
	user time   =      21.17 seconds =       0.35 minutes
	system time =       2.09 seconds =       0.03 minutes
	total time  =          2 seconds =       0.03 minutes
Total time:
	user time   =      53.81 seconds =       0.90 minutes
	system time =       4.52 seconds =       0.08 minutes
	total time  =          5 seconds =       0.08 minutes

*** tstart() called on ddmfs1
*** at Mon Jan 22 05:28:25 2024


  //>>>>>>>>>>>>>>>>>>>>>>>>>>>>>>>>>>>//
  //               DFMP2               //
  //<<<<<<<<<<<<<<<<<<<<<<<<<<<<<<<<<<<//

   => Loading Basis Set <=

    Name: (AUG-CC-PVTZ AUX)
    Role: RIFIT
    Keyword: DF_BASIS_MP2
    atoms 1   entry O          line   264 file /ddmfs1b/softs/psi4conda/share/psi4/basis/aug-cc-pvtz-ri.gbs 
    atoms 2-3 entry H          line    30 file /ddmfs1b/softs/psi4conda/share/psi4/basis/aug-cc-pvtz-ri.gbs 
    atoms 4-5 entry CL         line   742 file /ddmfs1b/softs/psi4conda/share/psi4/basis/aug-cc-pvtz-ri.gbs 

	 --------------------------------------------------------
	                          DF-MP2                         
	      2nd-Order Density-Fitted Moller-Plesset Theory     
	              RMP2 Wavefunction,  20 Threads             
	                                                         
	        Rob Parrish, Justin Turney, Andy Simmonett,      
	           Ed Hohenstein, and C. David Sherrill          
	 --------------------------------------------------------

   => Auxiliary Basis Set <=

  Basis Set: (AUG-CC-PVTZ AUX)
    Blend: AUG-CC-PVTZ-RI
    Number of shells: 130
    Number of basis functions: 492
    Number of Cartesian functions: 628
    Spherical Harmonics?: true
    Max angular momentum: 4

	 --------------------------------------------------------
	                 NBF =   192, NAUX =   492
	 --------------------------------------------------------
	   CLASS    FOCC     OCC    AOCC    AVIR     VIR    FVIR
	   PAIRS       0       9       9     183     183       0
	 --------------------------------------------------------

	-----------------------------------------------------------
	 ==================> DF-MP2 Energies <==================== 
	-----------------------------------------------------------
	 Reference Energy          =    -459.5734890302456392 [Eh]
	 Singles Energy            =      -0.0000000000000000 [Eh]
	 Same-Spin Energy          =      -0.0623276579725342 [Eh]
	 Opposite-Spin Energy      =      -0.1788399612000727 [Eh]
	 Correlation Energy        =      -0.2411676191726069 [Eh]
	 Total Energy              =    -459.8146566494182252 [Eh]
	-----------------------------------------------------------
	 ================> DF-SCS-MP2 Energies <================== 
	-----------------------------------------------------------
	 SCS Same-Spin Scale       =       0.3333333333333333 [-]
	 SCS Opposite-Spin Scale   =       1.2000000000000000 [-]
	 SCS Same-Spin Energy      =      -0.0207758859908447 [Eh]
	 SCS Opposite-Spin Energy  =      -0.2146079534400872 [Eh]
	 SCS Correlation Energy    =      -0.2353838394309319 [Eh]
	 SCS Total Energy          =    -459.8088728696765770 [Eh]
	-----------------------------------------------------------


*** tstop() called on ddmfs1 at Mon Jan 22 05:28:27 2024
Module time:
	user time   =       9.13 seconds =       0.15 minutes
	system time =       0.62 seconds =       0.01 minutes
	total time  =          2 seconds =       0.03 minutes
Total time:
	user time   =      62.96 seconds =       1.05 minutes
	system time =       5.14 seconds =       0.09 minutes
	total time  =          7 seconds =       0.12 minutes

    Psi4 stopped on: Monday, 22 January 2024 05:28AM
    Psi4 wall time for execution: 0:00:03.57


    -----------------------------------------------------------------------
          Psi4: An Open-Source Ab Initio Electronic Structure Package
                               Psi4 1.8.2 release

                         Git: Rev {} zzzzzzz 


    D. G. A. Smith, L. A. Burns, A. C. Simmonett, R. M. Parrish,
    M. C. Schieber, R. Galvelis, P. Kraus, H. Kruse, R. Di Remigio,
    A. Alenaizan, A. M. James, S. Lehtola, J. P. Misiewicz, M. Scheurer,
    R. A. Shaw, J. B. Schriber, Y. Xie, Z. L. Glick, D. A. Sirianni,
    J. S. O'Brien, J. M. Waldrop, A. Kumar, E. G. Hohenstein,
    B. P. Pritchard, B. R. Brooks, H. F. Schaefer III, A. Yu. Sokolov,
    K. Patkowski, A. E. DePrince III, U. Bozkaya, R. A. King,
    F. A. Evangelista, J. M. Turney, T. D. Crawford, C. D. Sherrill,
    J. Chem. Phys. 152(18) 184108 (2020). https://doi.org/10.1063/5.0006002

                            Additional Code Authors
    E. T. Seidl, C. L. Janssen, E. F. Valeev, M. L. Leininger,
    J. F. Gonthier, R. M. Richard, H. R. McAlexander, M. Saitow, X. Wang,
    P. Verma, M. H. Lechner, A. Jiang, S. Behnle, A. G. Heide,
    M. F. Herbst, and D. L. Poole

             Previous Authors, Complete List of Code Contributors,
                       and Citations for Specific Modules
    https://github.com/psi4/psi4/blob/master/codemeta.json
    https://github.com/psi4/psi4/graphs/contributors
    http://psicode.org/psi4manual/master/introduction.html#citing-psifour

    -----------------------------------------------------------------------


    Psi4 started on: Monday, 22 January 2024 05:28AM

    Process ID: 34013
    Host:       ddmfs1
    PSIDATADIR: /ddmfs1b/softs/psi4conda/share/psi4
    Memory:     55.9 GiB
    Threads:    20
    
  ==> Input QCSchema <==

--------------------------------------------------------------------------
{'driver': 'energy',
 'extras': {'psiapi': True, 'wfn_qcvars_only': True},
 'id': None,
 'keywords': {'SCF_TYPE': 'DF', 'function_kwargs': {}},
 'model': {'basis': 'aug-cc-pvtz', 'method': 'mp2'},
 'molecule': {'atom_labels': ['', '', '', '', ''],
              'atomic_numbers': [8, 1, 1, 17, 17],
              'extras': {},
              'fix_com': True,
              'fix_orientation': True,
              'fix_symmetry': 'c1',
              'fragment_charges': [0.0, -1.0, -1.0],
              'fragment_multiplicities': [1, 1, 1],
              'fragments': [[0, 1, 2], [3], [4]],
              'geometry': [0.0, 0.0, 0.0, 1.1121756344246994, 1.4303677194292883, 0.0, 1.1121756344246994,
                           -1.4303677194292883, 0.0, 6.005054518460108, 6.005054518460108, 0.0, 6.005054518460108,
                           -6.005054518460108, 0.0],
              'mass_numbers': [16, 1, 1, 35, 35],
              'masses': [15.99491461957, 1.00782503223, 1.00782503223, 34.968852682, 34.968852682],
              'molecular_charge': -2.0,
              'molecular_multiplicity': 1,
              'name': 'dimer',
              'provenance': {'creator': 'QCElemental',
                             'routine': 'qcelemental.molparse.from_string',
                             'version': '0.26.0'},
              'real': [False, False, False, True, True],
              'schema_name': 'qcschema_molecule',
              'schema_version': 2,
              'symbols': ['O', 'H', 'H', 'Cl', 'Cl'],
              'validated': True},
 'protocols': {'stdout': True},
 'provenance': {'creator': 'QCElemental', 'routine': 'qcelemental.models.results', 'version': '0.26.0'},
 'schema_name': 'qcschema_input',
 'schema_version': 1}
--------------------------------------------------------------------------

Scratch directory: /ddmfs1a/scratch/
   => Libint2 <=

    Primary   basis highest AM E, G, H:  5, 4, 3
    Auxiliary basis highest AM E, G, H:  6, 5, 4
    Onebody   basis highest AM E, G, H:  6, 5, 4
    Solid Harmonics ordering:            gaussian

*** tstart() called on ddmfs1
*** at Mon Jan 22 05:28:27 2024

   => Loading Basis Set <=

    Name: AUG-CC-PVTZ
    Role: ORBITAL
    Keyword: BASIS
    atoms 1   entry O          line   331 file /ddmfs1b/softs/psi4conda/share/psi4/basis/aug-cc-pvtz.gbs 
    atoms 2-3 entry H          line    40 file /ddmfs1b/softs/psi4conda/share/psi4/basis/aug-cc-pvtz.gbs 
    atoms 4-5 entry CL         line   988 file /ddmfs1b/softs/psi4conda/share/psi4/basis/aug-cc-pvtz.gbs 


         ---------------------------------------------------------
                                   SCF
               by Justin Turney, Rob Parrish, Andy Simmonett
                          and Daniel G. A. Smith
                              RHF Reference
                       20 Threads,  57220 MiB Core
         ---------------------------------------------------------

  ==> Geometry <==

    Molecular point group: c1
    Full point group: C2v

    Geometry (in Bohr), charge = -2, multiplicity = 1:

       Center              X                  Y                   Z               Mass       
    ------------   -----------------  -----------------  -----------------  -----------------
      Gh(O)           0.000000000000     0.000000000000     0.000000000000    15.994914619570
      Gh(H)           1.112175634425     1.430367719429     0.000000000000     1.007825032230
      Gh(H)           1.112175634425    -1.430367719429     0.000000000000     1.007825032230
         CL           6.005054518460     6.005054518460     0.000000000000    34.968852682000
         CL           6.005054518460    -6.005054518460     0.000000000000    34.968852682000

  Running in c1 symmetry.

  Rotational constants: A =      0.02385  B =      0.02383  C =      0.01192 [cm^-1]
  Rotational constants: A =    714.89213  B =    714.43065  C =    357.33066 [MHz]
  Nuclear repulsion =   24.063062134705568

  Charge       = -2
  Multiplicity = 1
  Electrons    = 36
  Nalpha       = 18
  Nbeta        = 18

  ==> Algorithm <==

  SCF Algorithm Type is DF.
  DIIS enabled.
  MOM disabled.
  Fractional occupation disabled.
  Guess Type is SAD.
  Energy threshold   = 1.00e-08
  Density threshold  = 1.00e-08
  Integral threshold = 1.00e-12

  ==> Primary Basis <==

  Basis Set: AUG-CC-PVTZ
    Blend: AUG-CC-PVTZ
    Number of shells: 64
    Number of basis functions: 192
    Number of Cartesian functions: 223
    Spherical Harmonics?: true
    Max angular momentum: 3

   => Loading Basis Set <=

    Name: (AUG-CC-PVTZ AUX)
    Role: JKFIT
    Keyword: DF_BASIS_SCF
    atoms 1   entry O          line   286 file /ddmfs1b/softs/psi4conda/share/psi4/basis/aug-cc-pvtz-jkfit.gbs 
    atoms 2-3 entry H          line    70 file /ddmfs1b/softs/psi4conda/share/psi4/basis/aug-cc-pvtz-jkfit.gbs 
    atoms 4-5 entry CL         line   816 file /ddmfs1b/softs/psi4conda/share/psi4/basis/aug-cc-pvtz-jkfit.gbs 

  ==> Integral Setup <==

  DFHelper Memory: AOs need 0.136 GiB; user supplied 41.910 GiB. 
  Using in-core AOs.

  ==> MemDFJK: Density-Fitted J/K Matrices <==

    J tasked:                   Yes
    K tasked:                   Yes
    wK tasked:                   No
    OpenMP threads:              20
    Memory [MiB]:             42915
    Algorithm:                 Core
    Schwarz Cutoff:           1E-12
    Mask sparsity (%):       9.4727
    Fitting Condition:        1E-10

   => Auxiliary Basis Set <=

  Basis Set: (AUG-CC-PVTZ AUX)
    Blend: AUG-CC-PVTZ-JKFIT
    Number of shells: 142
    Number of basis functions: 488
    Number of Cartesian functions: 601
    Spherical Harmonics?: true
    Max angular momentum: 4

  Minimum eigenvalue in the overlap matrix is 3.3699394509E-04.
  Reciprocal condition number of the overlap matrix is 4.7545015335E-05.
    Using symmetric orthogonalization.

  ==> Pre-Iterations <==

  SCF Guess: Superposition of Atomic Densities via on-the-fly atomic UHF (no occupation information).

   -------------------------
    Irrep   Nso     Nmo    
   -------------------------
     A        192     192 
   -------------------------
    Total     192     192
   -------------------------

  ==> Iterations <==

                           Total Energy        Delta E     RMS |[F,P]|

   @DF-RHF iter SAD:  -918.22498121275817   -9.18225e+02   0.00000e+00 
   @DF-RHF iter   1:  -918.94451662903600   -7.19535e-01   2.19993e-03 ADIIS/DIIS
   @DF-RHF iter   2:  -919.04726527274090   -1.02749e-01   1.12759e-03 ADIIS/DIIS
   @DF-RHF iter   3:  -919.06491621192970   -1.76509e-02   7.53326e-05 DIIS
   @DF-RHF iter   4:  -919.06504512437243   -1.28912e-04   1.64884e-05 DIIS
   @DF-RHF iter   5:  -919.06505616652169   -1.10421e-05   2.22347e-06 DIIS
   @DF-RHF iter   6:  -919.06505661803226   -4.51511e-07   3.86008e-07 DIIS
   @DF-RHF iter   7:  -919.06505663386270   -1.58304e-08   8.03106e-08 DIIS
   @DF-RHF iter   8:  -919.06505663441055   -5.47857e-10   1.79411e-08 DIIS
   @DF-RHF iter   9:  -919.06505663442806   -1.75078e-11   3.23609e-09 DIIS
  Energy and wave function converged.


  ==> Post-Iterations <==

    Orbital Energies [Eh]
    ---------------------

    Doubly Occupied:                                                      

       1A   -104.424928     2A   -104.424928     3A    -10.148592  
       4A    -10.148592     5A     -7.614630     6A     -7.614630  
       7A     -7.614626     8A     -7.614626     9A     -7.614599  
      10A     -7.614598    11A     -0.652109    12A     -0.652092  
      13A     -0.069232    14A     -0.069219    15A     -0.069090  
      16A     -0.069083    17A     -0.068788    18A     -0.067797  

    Virtual:                                                              

      19A      0.225438    20A      0.252040    21A      0.320287  
      22A      0.333700    23A      0.358213    24A      0.358258  
      25A      0.363507    26A      0.371357    27A      0.374153  
      28A      0.377024    29A      0.380643    30A      0.402679  
      31A      0.478392    32A      0.482506    33A      0.529971  
      34A      0.534582    35A      0.540075    36A      0.564942  
      37A      0.580291    38A      0.610153    39A      0.639252  
      40A      0.671423    41A      0.675435    42A      0.675499  
      43A      0.677962    44A      0.686180    45A      0.691403  
      46A      0.708733    47A      0.713557    48A      0.762239  
      49A      0.765087    50A      0.801090    51A      0.888980  
      52A      0.902926    53A      0.972777    54A      0.975486  
      55A      0.978913    56A      0.990887    57A      0.994812  
      58A      0.999832    59A      1.048121    60A      1.058240  
      61A      1.063341    62A      1.071749    63A      1.128062  
      64A      1.139415    65A      1.155116    66A      1.192113  
      67A      1.195758    68A      1.229038    69A      1.240934  
      70A      1.271247    71A      1.285802    72A      1.300205  
      73A      1.300308    74A      1.303048    75A      1.304537  
      76A      1.314055    77A      1.325097    78A      1.330233  
      79A      1.333493    80A      1.338918    81A      1.349037  
      82A      1.367333    83A      1.384385    84A      1.394361  
      85A      1.427603    86A      1.459191    87A      1.464029  
      88A      1.548999    89A      1.549123    90A      1.549135  
      91A      1.549443    92A      1.550881    93A      1.551317  
      94A      1.552288    95A      1.555859    96A      1.567772  
      97A      1.573256    98A      1.573372    99A      1.593343  
     100A      1.649705   101A      1.659692   102A      1.759445  
     103A      1.837798   104A      1.954424   105A      1.976332  
     106A      1.983326   107A      2.075485   108A      2.142680  
     109A      2.329993   110A      2.630647   111A      2.672101  
     112A      2.751629   113A      2.768080   114A      2.779661  
     115A      2.784001   116A      2.795031   117A      2.852241  
     118A      2.910044   119A      2.910833   120A      2.911269  
     121A      2.913003   122A      2.931000   123A      2.939328  
     124A      2.940716   125A      2.940890   126A      2.972071  
     127A      2.975779   128A      3.065379   129A      3.070564  
     130A      3.071212   131A      3.072437   132A      3.118861  
     133A      3.157826   134A      3.193088   135A      3.383465  
     136A      3.383870   137A      3.385894   138A      3.451949  
     139A      3.454251   140A      3.454670   141A      3.454684  
     142A      3.454737   143A      3.455230   144A      3.455645  
     145A      3.455846   146A      3.456631   147A      3.465549  
     148A      3.481490   149A      3.501791   150A      3.539866  
     151A      3.572731   152A      3.578429   153A      3.618446  
     154A      3.827373   155A      3.958685   156A      4.609816  
     157A      4.685857   158A      4.724482   159A      4.855799  
     160A      4.912297   161A      4.940757   162A      5.123963  
     163A      5.134447   164A      5.140039   165A      5.452537  
     166A      5.557313   167A      5.627519   168A      5.807290  
     169A      5.862474   170A      5.902188   171A      6.103060  
     172A      6.389809   173A      6.649378   174A      6.871796  
     175A      7.323607   176A      7.896084   177A      8.063010  
     178A      8.279359   179A      8.414647   180A      8.523141  
     181A      9.049166   182A      9.108473   183A      9.863342  
     184A     10.057834   185A     10.226100   186A     10.455854  
     187A     11.484517   188A     11.849240   189A     12.356248  
     190A     13.757961   191A     14.045686   192A     65.194723  

    Final Occupation by Irrep:
              A 
    DOCC [    18 ]
    NA   [    18 ]
    NB   [    18 ]

  @DF-RHF Final Energy:  -919.06505663442806

   => Energetics <=

    Nuclear Repulsion Energy =             24.0630621347055680
    One-Electron Energy =               -1333.1519126532459723
    Two-Electron Energy =                 390.0237938841123650
    Total Energy =                       -919.0650566344279468

Computation Completed


Properties will be evaluated at   0.000000,   0.000000,   0.000000 [a0]

Properties computed using the SCF density matrix


 Multipole Moments:

 ------------------------------------------------------------------------------------
     Multipole            Electronic (a.u.)      Nuclear  (a.u.)        Total (a.u.)
 ------------------------------------------------------------------------------------

 L = 1.  Multiply by 2.5417464519 to convert [e a0] to [Debye]
 Dipole X            :       -216.1886890          204.1718536          -12.0168354
 Dipole Y            :         -0.0000000            0.0000000           -0.0000000
 Dipole Z            :          0.0000000            0.0000000            0.0000000
 Magnitude           :                                                   12.0168354

 ------------------------------------------------------------------------------------

*** tstop() called on ddmfs1 at Mon Jan 22 05:28:28 2024
Module time:
	user time   =      22.90 seconds =       0.38 minutes
	system time =       1.94 seconds =       0.03 minutes
	total time  =          1 seconds =       0.02 minutes
Total time:
	user time   =      87.03 seconds =       1.45 minutes
	system time =       7.12 seconds =       0.12 minutes
	total time  =          8 seconds =       0.13 minutes

*** tstart() called on ddmfs1
*** at Mon Jan 22 05:28:28 2024


  //>>>>>>>>>>>>>>>>>>>>>>>>>>>>>>>>>>>//
  //               DFMP2               //
  //<<<<<<<<<<<<<<<<<<<<<<<<<<<<<<<<<<<//

   => Loading Basis Set <=

    Name: (AUG-CC-PVTZ AUX)
    Role: RIFIT
    Keyword: DF_BASIS_MP2
    atoms 1   entry O          line   264 file /ddmfs1b/softs/psi4conda/share/psi4/basis/aug-cc-pvtz-ri.gbs 
    atoms 2-3 entry H          line    30 file /ddmfs1b/softs/psi4conda/share/psi4/basis/aug-cc-pvtz-ri.gbs 
    atoms 4-5 entry CL         line   742 file /ddmfs1b/softs/psi4conda/share/psi4/basis/aug-cc-pvtz-ri.gbs 

	 --------------------------------------------------------
	                          DF-MP2                         
	      2nd-Order Density-Fitted Moller-Plesset Theory     
	              RMP2 Wavefunction,  20 Threads             
	                                                         
	        Rob Parrish, Justin Turney, Andy Simmonett,      
	           Ed Hohenstein, and C. David Sherrill          
	 --------------------------------------------------------

   => Auxiliary Basis Set <=

  Basis Set: (AUG-CC-PVTZ AUX)
    Blend: AUG-CC-PVTZ-RI
    Number of shells: 130
    Number of basis functions: 492
    Number of Cartesian functions: 628
    Spherical Harmonics?: true
    Max angular momentum: 4

	 --------------------------------------------------------
	                 NBF =   192, NAUX =   492
	 --------------------------------------------------------
	   CLASS    FOCC     OCC    AOCC    AVIR     VIR    FVIR
	   PAIRS       0      18      18     174     174       0
	 --------------------------------------------------------

	-----------------------------------------------------------
	 ==================> DF-MP2 Energies <==================== 
	-----------------------------------------------------------
	 Reference Energy          =    -919.0650566344280605 [Eh]
	 Singles Energy            =      -0.0000000000000000 [Eh]
	 Same-Spin Energy          =      -0.1247432554900843 [Eh]
	 Opposite-Spin Energy      =      -0.3578397930853548 [Eh]
	 Correlation Energy        =      -0.4825830485754391 [Eh]
	 Total Energy              =    -919.5476396830034673 [Eh]
	-----------------------------------------------------------
	 ================> DF-SCS-MP2 Energies <================== 
	-----------------------------------------------------------
	 SCS Same-Spin Scale       =       0.3333333333333333 [-]
	 SCS Opposite-Spin Scale   =       1.2000000000000000 [-]
	 SCS Same-Spin Energy      =      -0.0415810851633614 [Eh]
	 SCS Opposite-Spin Energy  =      -0.4294077517024257 [Eh]
	 SCS Correlation Energy    =      -0.4709888368657872 [Eh]
	 SCS Total Energy          =    -919.5360454712938463 [Eh]
	-----------------------------------------------------------


*** tstop() called on ddmfs1 at Mon Jan 22 05:28:31 2024
Module time:
	user time   =       9.66 seconds =       0.16 minutes
	system time =       0.65 seconds =       0.01 minutes
	total time  =          3 seconds =       0.05 minutes
Total time:
	user time   =      96.70 seconds =       1.61 minutes
	system time =       7.77 seconds =       0.13 minutes
	total time  =         11 seconds =       0.18 minutes

    Psi4 stopped on: Monday, 22 January 2024 05:28AM
    Psi4 wall time for execution: 0:00:03.63


    -----------------------------------------------------------------------
          Psi4: An Open-Source Ab Initio Electronic Structure Package
                               Psi4 1.8.2 release

                         Git: Rev {} zzzzzzz 


    D. G. A. Smith, L. A. Burns, A. C. Simmonett, R. M. Parrish,
    M. C. Schieber, R. Galvelis, P. Kraus, H. Kruse, R. Di Remigio,
    A. Alenaizan, A. M. James, S. Lehtola, J. P. Misiewicz, M. Scheurer,
    R. A. Shaw, J. B. Schriber, Y. Xie, Z. L. Glick, D. A. Sirianni,
    J. S. O'Brien, J. M. Waldrop, A. Kumar, E. G. Hohenstein,
    B. P. Pritchard, B. R. Brooks, H. F. Schaefer III, A. Yu. Sokolov,
    K. Patkowski, A. E. DePrince III, U. Bozkaya, R. A. King,
    F. A. Evangelista, J. M. Turney, T. D. Crawford, C. D. Sherrill,
    J. Chem. Phys. 152(18) 184108 (2020). https://doi.org/10.1063/5.0006002

                            Additional Code Authors
    E. T. Seidl, C. L. Janssen, E. F. Valeev, M. L. Leininger,
    J. F. Gonthier, R. M. Richard, H. R. McAlexander, M. Saitow, X. Wang,
    P. Verma, M. H. Lechner, A. Jiang, S. Behnle, A. G. Heide,
    M. F. Herbst, and D. L. Poole

             Previous Authors, Complete List of Code Contributors,
                       and Citations for Specific Modules
    https://github.com/psi4/psi4/blob/master/codemeta.json
    https://github.com/psi4/psi4/graphs/contributors
    http://psicode.org/psi4manual/master/introduction.html#citing-psifour

    -----------------------------------------------------------------------


    Psi4 started on: Monday, 22 January 2024 05:28AM

    Process ID: 34013
    Host:       ddmfs1
    PSIDATADIR: /ddmfs1b/softs/psi4conda/share/psi4
    Memory:     55.9 GiB
    Threads:    20
    
  ==> Input QCSchema <==

--------------------------------------------------------------------------
{'driver': 'energy',
 'extras': {'psiapi': True, 'wfn_qcvars_only': True},
 'id': None,
 'keywords': {'SCF_TYPE': 'DF', 'function_kwargs': {}},
 'model': {'basis': 'aug-cc-pvtz', 'method': 'mp2'},
 'molecule': {'atom_labels': ['', '', '', '', ''],
              'atomic_numbers': [8, 1, 1, 17, 17],
              'extras': {},
              'fix_com': True,
              'fix_orientation': True,
              'fix_symmetry': 'c1',
              'fragment_charges': [0.0, 0.0, -1.0],
              'fragment_multiplicities': [1, 1, 1],
              'fragments': [[0, 1, 2], [3], [4]],
              'geometry': [0.0, 0.0, 0.0, 1.1121756344246994, 1.4303677194292883, 0.0, 1.1121756344246994,
                           -1.4303677194292883, 0.0, 6.005054518460108, 6.005054518460108, 0.0, 6.005054518460108,
                           -6.005054518460108, 0.0],
              'mass_numbers': [16, 1, 1, 35, 35],
              'masses': [15.99491461957, 1.00782503223, 1.00782503223, 34.968852682, 34.968852682],
              'molecular_charge': -1.0,
              'molecular_multiplicity': 1,
              'name': 'dimer',
              'provenance': {'creator': 'QCElemental',
                             'routine': 'qcelemental.molparse.from_string',
                             'version': '0.26.0'},
              'real': [True, True, True, False, True],
              'schema_name': 'qcschema_molecule',
              'schema_version': 2,
              'symbols': ['O', 'H', 'H', 'Cl', 'Cl'],
              'validated': True},
 'protocols': {'stdout': True},
 'provenance': {'creator': 'QCElemental', 'routine': 'qcelemental.models.results', 'version': '0.26.0'},
 'schema_name': 'qcschema_input',
 'schema_version': 1}
--------------------------------------------------------------------------

Scratch directory: /ddmfs1a/scratch/
   => Libint2 <=

    Primary   basis highest AM E, G, H:  5, 4, 3
    Auxiliary basis highest AM E, G, H:  6, 5, 4
    Onebody   basis highest AM E, G, H:  6, 5, 4
    Solid Harmonics ordering:            gaussian

*** tstart() called on ddmfs1
*** at Mon Jan 22 05:28:31 2024

   => Loading Basis Set <=

    Name: AUG-CC-PVTZ
    Role: ORBITAL
    Keyword: BASIS
    atoms 1   entry O          line   331 file /ddmfs1b/softs/psi4conda/share/psi4/basis/aug-cc-pvtz.gbs 
    atoms 2-3 entry H          line    40 file /ddmfs1b/softs/psi4conda/share/psi4/basis/aug-cc-pvtz.gbs 
    atoms 4-5 entry CL         line   988 file /ddmfs1b/softs/psi4conda/share/psi4/basis/aug-cc-pvtz.gbs 


         ---------------------------------------------------------
                                   SCF
               by Justin Turney, Rob Parrish, Andy Simmonett
                          and Daniel G. A. Smith
                              RHF Reference
                       20 Threads,  57220 MiB Core
         ---------------------------------------------------------

  ==> Geometry <==

    Molecular point group: c1
    Full point group: Cs

    Geometry (in Bohr), charge = -1, multiplicity = 1:

       Center              X                  Y                   Z               Mass       
    ------------   -----------------  -----------------  -----------------  -----------------
         O            0.000000000000     0.000000000000     0.000000000000    15.994914619570
         H            1.112175634425     1.430367719429     0.000000000000     1.007825032230
         H            1.112175634425    -1.430367719429     0.000000000000     1.007825032230
      Gh(CL)          6.005054518460     6.005054518460     0.000000000000    34.968852682000
         CL           6.005054518460    -6.005054518460     0.000000000000    34.968852682000

  Running in c1 symmetry.

  Rotational constants: A =      0.02385  B =      0.02383  C =      0.01192 [cm^-1]
  Rotational constants: A =    714.89213  B =    714.43065  C =    357.33066 [MHz]
  Nuclear repulsion =   29.642317857547681

  Charge       = -1
  Multiplicity = 1
  Electrons    = 28
  Nalpha       = 14
  Nbeta        = 14

  ==> Algorithm <==

  SCF Algorithm Type is DF.
  DIIS enabled.
  MOM disabled.
  Fractional occupation disabled.
  Guess Type is SAD.
  Energy threshold   = 1.00e-08
  Density threshold  = 1.00e-08
  Integral threshold = 1.00e-12

  ==> Primary Basis <==

  Basis Set: AUG-CC-PVTZ
    Blend: AUG-CC-PVTZ
    Number of shells: 64
    Number of basis functions: 192
    Number of Cartesian functions: 223
    Spherical Harmonics?: true
    Max angular momentum: 3

   => Loading Basis Set <=

    Name: (AUG-CC-PVTZ AUX)
    Role: JKFIT
    Keyword: DF_BASIS_SCF
    atoms 1   entry O          line   286 file /ddmfs1b/softs/psi4conda/share/psi4/basis/aug-cc-pvtz-jkfit.gbs 
    atoms 2-3 entry H          line    70 file /ddmfs1b/softs/psi4conda/share/psi4/basis/aug-cc-pvtz-jkfit.gbs 
    atoms 4-5 entry CL         line   816 file /ddmfs1b/softs/psi4conda/share/psi4/basis/aug-cc-pvtz-jkfit.gbs 

  ==> Integral Setup <==

  DFHelper Memory: AOs need 0.136 GiB; user supplied 41.910 GiB. 
  Using in-core AOs.

  ==> MemDFJK: Density-Fitted J/K Matrices <==

    J tasked:                   Yes
    K tasked:                   Yes
    wK tasked:                   No
    OpenMP threads:              20
    Memory [MiB]:             42915
    Algorithm:                 Core
    Schwarz Cutoff:           1E-12
    Mask sparsity (%):       9.4727
    Fitting Condition:        1E-10

   => Auxiliary Basis Set <=

  Basis Set: (AUG-CC-PVTZ AUX)
    Blend: AUG-CC-PVTZ-JKFIT
    Number of shells: 142
    Number of basis functions: 488
    Number of Cartesian functions: 601
    Spherical Harmonics?: true
    Max angular momentum: 4

  Minimum eigenvalue in the overlap matrix is 3.3699394509E-04.
  Reciprocal condition number of the overlap matrix is 4.7545015335E-05.
    Using symmetric orthogonalization.

  ==> Pre-Iterations <==

  SCF Guess: Superposition of Atomic Densities via on-the-fly atomic UHF (no occupation information).

   -------------------------
    Irrep   Nso     Nmo    
   -------------------------
     A        192     192 
   -------------------------
    Total     192     192
   -------------------------

  ==> Iterations <==

                           Total Energy        Delta E     RMS |[F,P]|

   @DF-RHF iter SAD:  -534.59214601875055   -5.34592e+02   0.00000e+00 
   @DF-RHF iter   1:  -535.50608871272937   -9.13943e-01   2.86007e-03 ADIIS/DIIS
   @DF-RHF iter   2:  -535.60620641163337   -1.00118e-01   1.80502e-03 ADIIS/DIIS
   @DF-RHF iter   3:  -535.64446618735644   -3.82598e-02   1.58641e-04 ADIIS/DIIS
   @DF-RHF iter   4:  -535.64494664665540   -4.80459e-04   6.39810e-05 DIIS
   @DF-RHF iter   5:  -535.64502694112321   -8.02945e-05   1.07328e-05 DIIS
   @DF-RHF iter   6:  -535.64503170954674   -4.76842e-06   2.47443e-06 DIIS
   @DF-RHF iter   7:  -535.64503201946013   -3.09913e-07   6.17349e-07 DIIS
   @DF-RHF iter   8:  -535.64503203981724   -2.03571e-08   1.31353e-07 DIIS
   @DF-RHF iter   9:  -535.64503204068376   -8.66521e-10   2.00275e-08 DIIS
   @DF-RHF iter  10:  -535.64503204070206   -1.83036e-11   4.98591e-09 DIIS
  Energy and wave function converged.


  ==> Post-Iterations <==

    Orbital Energies [Eh]
    ---------------------

    Doubly Occupied:                                                      

       1A   -104.517707     2A    -20.443424     3A    -10.241466  
       4A     -7.707516     5A     -7.707492     6A     -7.707490  
       7A     -1.229306     8A     -0.745372     9A     -0.592756  
      10A     -0.464051    11A     -0.387933    12A     -0.162976  
      13A     -0.161896    14A     -0.161846  

    Virtual:                                                              

      15A      0.113938    16A      0.156256    17A      0.168014  
      18A      0.168180    19A      0.187435    20A      0.197400  
      21A      0.257956    22A      0.274179    23A      0.278810  
      24A      0.286349    25A      0.292314    26A      0.295474  
      27A      0.317168    28A      0.365558    29A      0.378023  
      30A      0.384540    31A      0.400054    32A      0.434172  
      33A      0.460913    34A      0.472200    35A      0.474584  
      36A      0.483440    37A      0.489544    38A      0.501761  
      39A      0.506463    40A      0.515101    41A      0.545323  
      42A      0.572490    43A      0.585866    44A      0.588727  
      45A      0.601553    46A      0.611023    47A      0.624405  
      48A      0.657892    49A      0.676032    50A      0.720182  
      51A      0.819650    52A      0.822784    53A      0.832865  
      54A      0.848199    55A      0.872892    56A      0.887759  
      57A      0.896335    58A      0.937540    59A      0.982913  
      60A      0.987096    61A      1.037330    62A      1.041414  
      63A      1.064273    64A      1.065316    65A      1.090903  
      66A      1.116049    67A      1.150771    68A      1.186613  
      69A      1.193667    70A      1.210336    71A      1.212687  
      72A      1.217940    73A      1.251947    74A      1.263519  
      75A      1.268582    76A      1.304085    77A      1.311158  
      78A      1.337097    79A      1.369398    80A      1.370000  
      81A      1.371135    82A      1.373647    83A      1.375225  
      84A      1.382218    85A      1.390820    86A      1.393220  
      87A      1.396582    88A      1.436907    89A      1.457589  
      90A      1.457669    91A      1.458523    92A      1.459835  
      93A      1.477767    94A      1.481882    95A      1.509012  
      96A      1.532708    97A      1.544659    98A      1.547050  
      99A      1.571882   100A      1.583243   101A      1.596466  
     102A      1.646944   103A      1.680328   104A      1.716541  
     105A      1.719472   106A      1.948730   107A      1.973867  
     108A      2.248558   109A      2.337267   110A      2.389605  
     111A      2.457090   112A      2.459384   113A      2.545305  
     114A      2.572620   115A      2.618864   116A      2.634770  
     117A      2.817389   118A      2.817697   119A      2.820236  
     120A      2.828070   121A      2.846841   122A      2.846968  
     123A      2.878872   124A      2.919439   125A      2.946657  
     126A      2.973683   127A      2.992852   128A      3.018337  
     129A      3.069503   130A      3.362247   131A      3.362453  
     132A      3.362463   133A      3.362716   134A      3.374593  
     135A      3.389563   136A      3.470675   137A      3.799868  
     138A      3.890132   139A      3.997916   140A      3.998226  
     141A      3.998716   142A      3.999195   143A      4.006067  
     144A      4.014484   145A      4.016381   146A      4.017278  
     147A      4.027894   148A      4.083608   149A      4.119253  
     150A      4.149307   151A      4.231445   152A      4.302607  
     153A      4.401357   154A      4.417076   155A      4.508385  
     156A      4.524298   157A      4.537713   158A      4.687795  
     159A      4.735050   160A      4.735957   161A      4.750294  
     162A      4.760210   163A      4.809886   164A      4.899054  
     165A      5.025899   166A      5.283710   167A      5.297421  
     168A      5.414563   169A      5.471860   170A      5.511644  
     171A      5.654558   172A      5.805104   173A      6.314081  
     174A      6.653151   175A      6.838706   176A      7.043335  
     177A      7.263114   178A      7.386071   179A      7.440627  
     180A      7.450948   181A      7.467215   182A      7.491292  
     183A      7.739163   184A      8.033657   185A      8.107840  
     186A      8.957526   187A     13.828607   188A     16.091785  
     189A     27.785132   190A     27.792776   191A     27.861501  
     192A    160.792121  

    Final Occupation by Irrep:
              A 
    DOCC [    14 ]
    NA   [    14 ]
    NB   [    14 ]

  @DF-RHF Final Energy:  -535.64503204070206

   => Energetics <=

    Nuclear Repulsion Energy =             29.6423178575476811
    One-Electron Energy =                -806.1122367549386354
    Two-Electron Energy =                 240.8248868566889200
    Total Energy =                       -535.6450320407020627

Computation Completed


Properties will be evaluated at   0.000000,   0.000000,   0.000000 [a0]

Properties computed using the SCF density matrix


 Multipole Moments:

 ------------------------------------------------------------------------------------
     Multipole            Electronic (a.u.)      Nuclear  (a.u.)        Total (a.u.)
 ------------------------------------------------------------------------------------

 L = 1.  Multiply by 2.5417464519 to convert [e a0] to [Debye]
 Dipole X            :       -109.3908068          104.3102781           -5.0805288
 Dipole Y            :        107.9159412         -102.0859268            5.8300144
 Dipole Z            :         -0.0000000            0.0000000           -0.0000000
 Magnitude           :                                                    7.7331003

 ------------------------------------------------------------------------------------

*** tstop() called on ddmfs1 at Mon Jan 22 05:28:32 2024
Module time:
	user time   =      24.38 seconds =       0.41 minutes
	system time =       2.19 seconds =       0.04 minutes
	total time  =          1 seconds =       0.02 minutes
Total time:
	user time   =     122.24 seconds =       2.04 minutes
	system time =      10.01 seconds =       0.17 minutes
	total time  =         12 seconds =       0.20 minutes

*** tstart() called on ddmfs1
*** at Mon Jan 22 05:28:32 2024


  //>>>>>>>>>>>>>>>>>>>>>>>>>>>>>>>>>>>//
  //               DFMP2               //
  //<<<<<<<<<<<<<<<<<<<<<<<<<<<<<<<<<<<//

   => Loading Basis Set <=

    Name: (AUG-CC-PVTZ AUX)
    Role: RIFIT
    Keyword: DF_BASIS_MP2
    atoms 1   entry O          line   264 file /ddmfs1b/softs/psi4conda/share/psi4/basis/aug-cc-pvtz-ri.gbs 
    atoms 2-3 entry H          line    30 file /ddmfs1b/softs/psi4conda/share/psi4/basis/aug-cc-pvtz-ri.gbs 
    atoms 4-5 entry CL         line   742 file /ddmfs1b/softs/psi4conda/share/psi4/basis/aug-cc-pvtz-ri.gbs 

	 --------------------------------------------------------
	                          DF-MP2                         
	      2nd-Order Density-Fitted Moller-Plesset Theory     
	              RMP2 Wavefunction,  20 Threads             
	                                                         
	        Rob Parrish, Justin Turney, Andy Simmonett,      
	           Ed Hohenstein, and C. David Sherrill          
	 --------------------------------------------------------

   => Auxiliary Basis Set <=

  Basis Set: (AUG-CC-PVTZ AUX)
    Blend: AUG-CC-PVTZ-RI
    Number of shells: 130
    Number of basis functions: 492
    Number of Cartesian functions: 628
    Spherical Harmonics?: true
    Max angular momentum: 4

	 --------------------------------------------------------
	                 NBF =   192, NAUX =   492
	 --------------------------------------------------------
	   CLASS    FOCC     OCC    AOCC    AVIR     VIR    FVIR
	   PAIRS       0      14      14     178     178       0
	 --------------------------------------------------------

	-----------------------------------------------------------
	 ==================> DF-MP2 Energies <==================== 
	-----------------------------------------------------------
	 Reference Energy          =    -535.6450320407020627 [Eh]
	 Singles Energy            =      -0.0000000000000000 [Eh]
	 Same-Spin Energy          =      -0.1309384235327180 [Eh]
	 Opposite-Spin Energy      =      -0.3941653445384353 [Eh]
	 Correlation Energy        =      -0.5251037680711532 [Eh]
	 Total Energy              =    -536.1701358087732388 [Eh]
	-----------------------------------------------------------
	 ================> DF-SCS-MP2 Energies <================== 
	-----------------------------------------------------------
	 SCS Same-Spin Scale       =       0.3333333333333333 [-]
	 SCS Opposite-Spin Scale   =       1.2000000000000000 [-]
	 SCS Same-Spin Energy      =      -0.0436461411775727 [Eh]
	 SCS Opposite-Spin Energy  =      -0.4729984134461224 [Eh]
	 SCS Correlation Energy    =      -0.5166445546236951 [Eh]
	 SCS Total Energy          =    -536.1616765953257300 [Eh]
	-----------------------------------------------------------


*** tstop() called on ddmfs1 at Mon Jan 22 05:28:34 2024
Module time:
	user time   =       9.27 seconds =       0.15 minutes
	system time =       0.57 seconds =       0.01 minutes
	total time  =          2 seconds =       0.03 minutes
Total time:
	user time   =     131.52 seconds =       2.19 minutes
	system time =      10.58 seconds =       0.18 minutes
	total time  =         14 seconds =       0.23 minutes

    Psi4 stopped on: Monday, 22 January 2024 05:28AM
    Psi4 wall time for execution: 0:00:03.68


    -----------------------------------------------------------------------
          Psi4: An Open-Source Ab Initio Electronic Structure Package
                               Psi4 1.8.2 release

                         Git: Rev {} zzzzzzz 


    D. G. A. Smith, L. A. Burns, A. C. Simmonett, R. M. Parrish,
    M. C. Schieber, R. Galvelis, P. Kraus, H. Kruse, R. Di Remigio,
    A. Alenaizan, A. M. James, S. Lehtola, J. P. Misiewicz, M. Scheurer,
    R. A. Shaw, J. B. Schriber, Y. Xie, Z. L. Glick, D. A. Sirianni,
    J. S. O'Brien, J. M. Waldrop, A. Kumar, E. G. Hohenstein,
    B. P. Pritchard, B. R. Brooks, H. F. Schaefer III, A. Yu. Sokolov,
    K. Patkowski, A. E. DePrince III, U. Bozkaya, R. A. King,
    F. A. Evangelista, J. M. Turney, T. D. Crawford, C. D. Sherrill,
    J. Chem. Phys. 152(18) 184108 (2020). https://doi.org/10.1063/5.0006002

                            Additional Code Authors
    E. T. Seidl, C. L. Janssen, E. F. Valeev, M. L. Leininger,
    J. F. Gonthier, R. M. Richard, H. R. McAlexander, M. Saitow, X. Wang,
    P. Verma, M. H. Lechner, A. Jiang, S. Behnle, A. G. Heide,
    M. F. Herbst, and D. L. Poole

             Previous Authors, Complete List of Code Contributors,
                       and Citations for Specific Modules
    https://github.com/psi4/psi4/blob/master/codemeta.json
    https://github.com/psi4/psi4/graphs/contributors
    http://psicode.org/psi4manual/master/introduction.html#citing-psifour

    -----------------------------------------------------------------------


    Psi4 started on: Monday, 22 January 2024 05:28AM

    Process ID: 34013
    Host:       ddmfs1
    PSIDATADIR: /ddmfs1b/softs/psi4conda/share/psi4
    Memory:     55.9 GiB
    Threads:    20
    
  ==> Input QCSchema <==

--------------------------------------------------------------------------
{'driver': 'energy',
 'extras': {'psiapi': True, 'wfn_qcvars_only': True},
 'id': None,
 'keywords': {'SCF_TYPE': 'DF', 'function_kwargs': {}},
 'model': {'basis': 'aug-cc-pvtz', 'method': 'mp2'},
 'molecule': {'atom_labels': ['', '', '', '', ''],
              'atomic_numbers': [8, 1, 1, 17, 17],
              'extras': {},
              'fix_com': True,
              'fix_orientation': True,
              'fix_symmetry': 'c1',
              'fragment_charges': [0.0, -1.0, 0.0],
              'fragment_multiplicities': [1, 1, 1],
              'fragments': [[0, 1, 2], [3], [4]],
              'geometry': [0.0, 0.0, 0.0, 1.1121756344246994, 1.4303677194292883, 0.0, 1.1121756344246994,
                           -1.4303677194292883, 0.0, 6.005054518460108, 6.005054518460108, 0.0, 6.005054518460108,
                           -6.005054518460108, 0.0],
              'mass_numbers': [16, 1, 1, 35, 35],
              'masses': [15.99491461957, 1.00782503223, 1.00782503223, 34.968852682, 34.968852682],
              'molecular_charge': -1.0,
              'molecular_multiplicity': 1,
              'name': 'dimer',
[...]
	total time  =          2 seconds =       0.03 minutes
Total time:
	user time   =     197.28 seconds =       3.29 minutes
	system time =      15.78 seconds =       0.26 minutes
	total time  =         21 seconds =       0.35 minutes

    Psi4 stopped on: Monday, 22 January 2024 05:28AM
    Psi4 wall time for execution: 0:00:03.43


    -----------------------------------------------------------------------
          Psi4: An Open-Source Ab Initio Electronic Structure Package
                               Psi4 1.8.2 release

                         Git: Rev {} zzzzzzz 


    D. G. A. Smith, L. A. Burns, A. C. Simmonett, R. M. Parrish,
    M. C. Schieber, R. Galvelis, P. Kraus, H. Kruse, R. Di Remigio,
    A. Alenaizan, A. M. James, S. Lehtola, J. P. Misiewicz, M. Scheurer,
    R. A. Shaw, J. B. Schriber, Y. Xie, Z. L. Glick, D. A. Sirianni,
    J. S. O'Brien, J. M. Waldrop, A. Kumar, E. G. Hohenstein,
    B. P. Pritchard, B. R. Brooks, H. F. Schaefer III, A. Yu. Sokolov,
    K. Patkowski, A. E. DePrince III, U. Bozkaya, R. A. King,
    F. A. Evangelista, J. M. Turney, T. D. Crawford, C. D. Sherrill,
    J. Chem. Phys. 152(18) 184108 (2020). https://doi.org/10.1063/5.0006002

                            Additional Code Authors
    E. T. Seidl, C. L. Janssen, E. F. Valeev, M. L. Leininger,
    J. F. Gonthier, R. M. Richard, H. R. McAlexander, M. Saitow, X. Wang,
    P. Verma, M. H. Lechner, A. Jiang, S. Behnle, A. G. Heide,
    M. F. Herbst, and D. L. Poole

             Previous Authors, Complete List of Code Contributors,
                       and Citations for Specific Modules
    https://github.com/psi4/psi4/blob/master/codemeta.json
    https://github.com/psi4/psi4/graphs/contributors
    http://psicode.org/psi4manual/master/introduction.html#citing-psifour

    -----------------------------------------------------------------------


    Psi4 started on: Monday, 22 January 2024 05:28AM

    Process ID: 34013
    Host:       ddmfs1
    PSIDATADIR: /ddmfs1b/softs/psi4conda/share/psi4
    Memory:     55.9 GiB
    Threads:    20
    
  ==> Input QCSchema <==

--------------------------------------------------------------------------
{'driver': 'energy',
 'extras': {'psiapi': True, 'wfn_qcvars_only': True},
 'id': None,
 'keywords': {'SCF_TYPE': 'DF', 'function_kwargs': {}},
 'model': {'basis': 'aug-cc-pvtz', 'method': 'mp2'},
 'molecule': {'atom_labels': ['', '', '', '', ''],
              'atomic_numbers': [8, 1, 1, 17, 17],
              'extras': {},
              'fix_com': True,
              'fix_orientation': True,
              'fix_symmetry': 'c1',
              'fragment_charges': [0.0, -1.0, -1.0],
              'fragment_multiplicities': [1, 1, 1],
              'fragments': [[0, 1, 2], [3], [4]],
              'geometry': [0.0, 0.0, 0.0, 1.1121756344246994, 1.4303677194292883, 0.0, 1.1121756344246994,
                           -1.4303677194292883, 0.0, 6.005054518460108, 6.005054518460108, 0.0, 6.005054518460108,
                           -6.005054518460108, 0.0],
              'mass_numbers': [16, 1, 1, 35, 35],
              'masses': [15.99491461957, 1.00782503223, 1.00782503223, 34.968852682, 34.968852682],
              'molecular_charge': -2.0,
              'molecular_multiplicity': 1,
              'name': 'dimer',
              'provenance': {'creator': 'QCElemental',
                             'routine': 'qcelemental.molparse.from_string',
                             'version': '0.26.0'},
              'real': [True, True, True, True, True],
              'schema_name': 'qcschema_molecule',
              'schema_version': 2,
              'symbols': ['O', 'H', 'H', 'Cl', 'Cl'],
              'validated': True},
 'protocols': {'stdout': True},
 'provenance': {'creator': 'QCElemental', 'routine': 'qcelemental.models.results', 'version': '0.26.0'},
 'schema_name': 'qcschema_input',
 'schema_version': 1}
--------------------------------------------------------------------------

Scratch directory: /ddmfs1a/scratch/
   => Libint2 <=

    Primary   basis highest AM E, G, H:  5, 4, 3
    Auxiliary basis highest AM E, G, H:  6, 5, 4
    Onebody   basis highest AM E, G, H:  6, 5, 4
    Solid Harmonics ordering:            gaussian

*** tstart() called on ddmfs1
*** at Mon Jan 22 05:28:41 2024

   => Loading Basis Set <=

    Name: AUG-CC-PVTZ
    Role: ORBITAL
    Keyword: BASIS
    atoms 1   entry O          line   331 file /ddmfs1b/softs/psi4conda/share/psi4/basis/aug-cc-pvtz.gbs 
    atoms 2-3 entry H          line    40 file /ddmfs1b/softs/psi4conda/share/psi4/basis/aug-cc-pvtz.gbs 
    atoms 4-5 entry CL         line   988 file /ddmfs1b/softs/psi4conda/share/psi4/basis/aug-cc-pvtz.gbs 


         ---------------------------------------------------------
                                   SCF
               by Justin Turney, Rob Parrish, Andy Simmonett
                          and Daniel G. A. Smith
                              RHF Reference
                       20 Threads,  57220 MiB Core
         ---------------------------------------------------------

  ==> Geometry <==

    Molecular point group: c1
    Full point group: C2v

    Geometry (in Bohr), charge = -2, multiplicity = 1:

       Center              X                  Y                   Z               Mass       
    ------------   -----------------  -----------------  -----------------  -----------------
         O            0.000000000000     0.000000000000     0.000000000000    15.994914619570
         H            1.112175634425     1.430367719429     0.000000000000     1.007825032230
         H            1.112175634425    -1.430367719429     0.000000000000     1.007825032230
         CL           6.005054518460     6.005054518460     0.000000000000    34.968852682000
         CL           6.005054518460    -6.005054518460     0.000000000000    34.968852682000

  Running in c1 symmetry.

  Rotational constants: A =      0.02385  B =      0.02383  C =      0.01192 [cm^-1]
  Rotational constants: A =    714.89213  B =    714.43065  C =    357.33066 [MHz]
  Nuclear repulsion =   74.167500001873861

  Charge       = -2
  Multiplicity = 1
  Electrons    = 46
  Nalpha       = 23
  Nbeta        = 23

  ==> Algorithm <==

  SCF Algorithm Type is DF.
  DIIS enabled.
  MOM disabled.
  Fractional occupation disabled.
  Guess Type is SAD.
  Energy threshold   = 1.00e-08
  Density threshold  = 1.00e-08
  Integral threshold = 1.00e-12

  ==> Primary Basis <==

  Basis Set: AUG-CC-PVTZ
    Blend: AUG-CC-PVTZ
    Number of shells: 64
    Number of basis functions: 192
    Number of Cartesian functions: 223
    Spherical Harmonics?: true
    Max angular momentum: 3

   => Loading Basis Set <=

    Name: (AUG-CC-PVTZ AUX)
    Role: JKFIT
    Keyword: DF_BASIS_SCF
    atoms 1   entry O          line   286 file /ddmfs1b/softs/psi4conda/share/psi4/basis/aug-cc-pvtz-jkfit.gbs 
    atoms 2-3 entry H          line    70 file /ddmfs1b/softs/psi4conda/share/psi4/basis/aug-cc-pvtz-jkfit.gbs 
    atoms 4-5 entry CL         line   816 file /ddmfs1b/softs/psi4conda/share/psi4/basis/aug-cc-pvtz-jkfit.gbs 

  ==> Integral Setup <==

  DFHelper Memory: AOs need 0.136 GiB; user supplied 41.910 GiB. 
  Using in-core AOs.

  ==> MemDFJK: Density-Fitted J/K Matrices <==

    J tasked:                   Yes
    K tasked:                   Yes
    wK tasked:                   No
    OpenMP threads:              20
    Memory [MiB]:             42915
    Algorithm:                 Core
    Schwarz Cutoff:           1E-12
    Mask sparsity (%):       9.4727
    Fitting Condition:        1E-10

   => Auxiliary Basis Set <=

  Basis Set: (AUG-CC-PVTZ AUX)
    Blend: AUG-CC-PVTZ-JKFIT
    Number of shells: 142
    Number of basis functions: 488
    Number of Cartesian functions: 601
    Spherical Harmonics?: true
    Max angular momentum: 4

  Minimum eigenvalue in the overlap matrix is 3.3699394509E-04.
  Reciprocal condition number of the overlap matrix is 4.7545015335E-05.
    Using symmetric orthogonalization.

  ==> Pre-Iterations <==

  SCF Guess: Superposition of Atomic Densities via on-the-fly atomic UHF (no occupation information).

   -------------------------
    Irrep   Nso     Nmo    
   -------------------------
     A        192     192 
   -------------------------
    Total     192     192
   -------------------------

  ==> Iterations <==

                           Total Energy        Delta E     RMS |[F,P]|

   @DF-RHF iter SAD:  -993.70778126987409   -9.93708e+02   0.00000e+00 
   @DF-RHF iter   1:  -994.95246444655299   -1.24468e+00   3.22502e-03 ADIIS/DIIS
   @DF-RHF iter   2:  -995.10059279470988   -1.48128e-01   1.93535e-03 ADIIS/DIIS
   @DF-RHF iter   3:  -995.14564992712474   -4.50571e-02   1.81901e-04 ADIIS/DIIS
   @DF-RHF iter   4:  -995.14621946788270   -5.69541e-04   7.33583e-05 DIIS
   @DF-RHF iter   5:  -995.14632158136465   -1.02113e-04   1.11159e-05 DIIS
   @DF-RHF iter   6:  -995.14632708585884   -5.50449e-06   2.35271e-06 DIIS
   @DF-RHF iter   7:  -995.14632739757940   -3.11721e-07   5.77892e-07 DIIS
   @DF-RHF iter   8:  -995.14632741765217   -2.00728e-08   1.39180e-07 DIIS
   @DF-RHF iter   9:  -995.14632741881871   -1.16654e-09   2.05898e-08 DIIS
   @DF-RHF iter  10:  -995.14632741883736   -1.86446e-11   5.31930e-09 DIIS
  Energy and wave function converged.


  ==> Post-Iterations <==

    Orbital Energies [Eh]
    ---------------------

    Doubly Occupied:                                                      

       1A   -104.435219     2A   -104.435219     3A    -20.323713  
       4A    -10.158945     5A    -10.158945     6A     -7.624993  
       7A     -7.624992     8A     -7.624979     9A     -7.624979  
      10A     -7.624960    11A     -7.624960    12A     -1.110035  
      13A     -0.662766    14A     -0.662752    15A     -0.473449  
      16A     -0.347066    17A     -0.269850    18A     -0.080530  
      19A     -0.080126    20A     -0.079558    21A     -0.079422  
      22A     -0.079394    23A     -0.078568  

    Virtual:                                                              

      24A      0.239349    25A      0.254208    26A      0.339611  
      27A      0.350991    28A      0.355016    29A      0.362600  
      30A      0.367415    31A      0.368363    32A      0.378569  
      33A      0.387224    34A      0.402882    35A      0.410363  
      36A      0.464743    37A      0.476606    38A      0.507068  
      39A      0.518751    40A      0.544427    41A      0.551106  
      42A      0.563696    43A      0.613179    44A      0.666608  
      45A      0.666648    46A      0.668985    47A      0.674357  
      48A      0.694308    49A      0.695605    50A      0.697045  
      51A      0.719754    52A      0.721324    53A      0.759317  
      54A      0.778700    55A      0.809152    56A      0.899043  
      57A      0.934447    58A      0.944391    59A      0.950810  
      60A      0.969270    61A      0.971872    62A      0.976090  
      63A      0.987829    64A      0.991442    65A      0.996024  
      66A      1.070872    67A      1.106863    68A      1.108484  
      69A      1.165414    70A      1.179009    71A      1.180675  
      72A      1.196823    73A      1.216106    74A      1.218867  
      75A      1.274416    76A      1.275004    77A      1.292850  
      78A      1.294271    79A      1.296244    80A      1.297204  
      81A      1.301105    82A      1.314328    83A      1.320771  
      84A      1.324947    85A      1.331368    86A      1.352939  
      87A      1.377616    88A      1.391150    89A      1.391725  
      90A      1.407325    91A      1.428752    92A      1.468900  
      93A      1.517428    94A      1.539095    95A      1.539792  
      96A      1.539908    97A      1.539943    98A      1.540451  
      99A      1.541858   100A      1.543636   101A      1.546782  
     102A      1.558560   103A      1.566774   104A      1.575227  
     105A      1.634137   106A      1.674679   107A      1.676246  
     108A      1.769427   109A      1.819550   110A      1.839111  
     111A      2.063053   112A      2.097830   113A      2.359578  
     114A      2.446218   115A      2.504755   116A      2.571045  
     117A      2.571116   118A      2.660417   119A      2.686035  
     120A      2.729036   121A      2.749494   122A      2.899274  
     123A      2.900314   124A      2.901223   125A      2.902299  
     126A      2.905378   127A      2.921111   128A      2.923560  
     129A      2.924480   130A      2.944234   131A      2.954997  
     132A      2.956158   133A      2.976006   134A      3.034318  
     135A      3.051495   136A      3.057548   137A      3.058123  
     138A      3.063291   139A      3.093689   140A      3.136585  
     141A      3.146746   142A      3.162478   143A      3.444546  
     144A      3.444554   145A      3.444638   146A      3.444715  
     147A      3.445181   148A      3.445215   149A      3.445444  
     150A      3.445846   151A      3.453310   152A      3.461410  
     153A      3.461716   154A      3.485513   155A      3.553215  
     156A      3.557393   157A      3.923475   158A      4.011352  
     159A      4.272348   160A      4.351397   161A      4.423829  
     162A      4.521928   163A      4.538750   164A      4.631172  
     165A      4.649252   166A      4.658717   167A      4.806464  
     168A      5.014271   169A      5.140658   170A      5.404734  
     171A      5.419770   172A      5.529295   173A      5.543651  
     174A      5.597896   175A      5.636072   176A      5.775089  
     177A      5.925434   178A      6.433679   179A      6.771135  
     180A      6.956797   181A      7.162215   182A      7.380916  
     183A      7.504597   184A      7.559925   185A      7.569229  
     186A      7.585745   187A      7.610106   188A      7.859011  
     189A      8.152473   190A      8.226627   191A      9.077954  
     192A     16.211687  

    Final Occupation by Irrep:
              A 
    DOCC [    23 ]
    NA   [    23 ]
    NB   [    23 ]

  @DF-RHF Final Energy:  -995.14632741883736

   => Energetics <=

    Nuclear Repulsion Energy =             74.1675000018738615
    One-Electron Energy =               -1540.0968137050897440
    Two-Electron Energy =                 470.7829862843785236
    Total Energy =                       -995.1463274188374726

Computation Completed


Properties will be evaluated at   0.000000,   0.000000,   0.000000 [a0]

Properties computed using the SCF density matrix


 Multipole Moments:

 ------------------------------------------------------------------------------------
     Multipole            Electronic (a.u.)      Nuclear  (a.u.)        Total (a.u.)
 ------------------------------------------------------------------------------------

 L = 1.  Multiply by 2.5417464519 to convert [e a0] to [Debye]
 Dipole X            :       -217.3713346          206.3962049          -10.9751297
 Dipole Y            :          0.0000000            0.0000000            0.0000000
 Dipole Z            :          0.0000000            0.0000000            0.0000000
 Magnitude           :                                                   10.9751297

 ------------------------------------------------------------------------------------

*** tstop() called on ddmfs1 at Mon Jan 22 05:28:43 2024
Module time:
	user time   =      24.67 seconds =       0.41 minutes
	system time =       1.97 seconds =       0.03 minutes
	total time  =          2 seconds =       0.03 minutes
Total time:
	user time   =     223.11 seconds =       3.72 minutes
	system time =      17.80 seconds =       0.30 minutes
	total time  =         23 seconds =       0.38 minutes

*** tstart() called on ddmfs1
*** at Mon Jan 22 05:28:43 2024


  //>>>>>>>>>>>>>>>>>>>>>>>>>>>>>>>>>>>//
  //               DFMP2               //
  //<<<<<<<<<<<<<<<<<<<<<<<<<<<<<<<<<<<//

   => Loading Basis Set <=

    Name: (AUG-CC-PVTZ AUX)
    Role: RIFIT
    Keyword: DF_BASIS_MP2
    atoms 1   entry O          line   264 file /ddmfs1b/softs/psi4conda/share/psi4/basis/aug-cc-pvtz-ri.gbs 
    atoms 2-3 entry H          line    30 file /ddmfs1b/softs/psi4conda/share/psi4/basis/aug-cc-pvtz-ri.gbs 
    atoms 4-5 entry CL         line   742 file /ddmfs1b/softs/psi4conda/share/psi4/basis/aug-cc-pvtz-ri.gbs 

	 --------------------------------------------------------
	                          DF-MP2                         
	      2nd-Order Density-Fitted Moller-Plesset Theory     
	              RMP2 Wavefunction,  20 Threads             
	                                                         
	        Rob Parrish, Justin Turney, Andy Simmonett,      
	           Ed Hohenstein, and C. David Sherrill          
	 --------------------------------------------------------

   => Auxiliary Basis Set <=

  Basis Set: (AUG-CC-PVTZ AUX)
    Blend: AUG-CC-PVTZ-RI
    Number of shells: 130
    Number of basis functions: 492
    Number of Cartesian functions: 628
    Spherical Harmonics?: true
    Max angular momentum: 4

	 --------------------------------------------------------
	                 NBF =   192, NAUX =   492
	 --------------------------------------------------------
	   CLASS    FOCC     OCC    AOCC    AVIR     VIR    FVIR
	   PAIRS       0      23      23     169     169       0
	 --------------------------------------------------------

	-----------------------------------------------------------
	 ==================> DF-MP2 Energies <==================== 
	-----------------------------------------------------------
	 Reference Energy          =    -995.1463274188373589 [Eh]
	 Singles Energy            =      -0.0000000000000000 [Eh]
	 Same-Spin Energy          =      -0.1935414567012536 [Eh]
	 Opposite-Spin Energy      =      -0.5730382117418501 [Eh]
	 Correlation Energy        =      -0.7665796684431037 [Eh]
	 Total Energy              =    -995.9129070872804732 [Eh]
	-----------------------------------------------------------
	 ================> DF-SCS-MP2 Energies <================== 
	-----------------------------------------------------------
	 SCS Same-Spin Scale       =       0.3333333333333333 [-]
	 SCS Opposite-Spin Scale   =       1.2000000000000000 [-]
	 SCS Same-Spin Energy      =      -0.0645138189004179 [Eh]
	 SCS Opposite-Spin Energy  =      -0.6876458540902201 [Eh]
	 SCS Correlation Energy    =      -0.7521596729906379 [Eh]
	 SCS Total Energy          =    -995.8984870918279739 [Eh]
	-----------------------------------------------------------


*** tstop() called on ddmfs1 at Mon Jan 22 05:28:45 2024
Module time:
	user time   =       9.46 seconds =       0.16 minutes
	system time =       0.49 seconds =       0.01 minutes
	total time  =          2 seconds =       0.03 minutes
Total time:
	user time   =     232.59 seconds =       3.88 minutes
	system time =      18.29 seconds =       0.30 minutes
	total time  =         25 seconds =       0.42 minutes

    Psi4 stopped on: Monday, 22 January 2024 05:28AM
    Psi4 wall time for execution: 0:00:03.62


  //>>>>>>>>>>>>>>>>>>>>>>>>>>>>>>>>>>>//
  //          ManyBody Results         //
  //<<<<<<<<<<<<<<<<<<<<<<<<<<<<<<<<<<<//


   ==> N-Body: Counterpoise Corrected (CP) energies <==

        n-Body     Total Energy            Interaction Energy                          N-body Contribution to Interaction Energy
                   [Eh]                    [Eh]                  [kcal/mol]            [Eh]                  [kcal/mol]
             1  N/A                         0.000000000000        0.000000000000        0.000000000000        0.000000000000
             2  N/A                         0.059205052451       37.151731308663        0.059205052451       37.151731308663
  FULL/RTN   3  N/A                         0.060651089242       38.059133094220        0.001446036791        0.907401785557


    Psi4 stopped on: Monday, 22 January 2024 05:28AM
    Psi4 wall time for execution: 0:00:28.11

*** Psi4 exiting successfully. Buy a developer a beer!
