
    -----------------------------------------------------------------------
          Psi4: An Open-Source Ab Initio Electronic Structure Package
                               Psi4 1.8.2 release

                         Git: Rev {} zzzzzzz 


    D. G. A. Smith, L. A. Burns, A. C. Simmonett, R. M. Parrish,
    M. C. Schieber, R. Galvelis, P. Kraus, H. Kruse, R. Di Remigio,
    A. Alenaizan, A. M. James, S. Lehtola, J. P. Misiewicz, M. Scheurer,
    R. A. Shaw, J. B. Schriber, Y. Xie, Z. L. Glick, D. A. Sirianni,
    J. S. O'Brien, J. M. Waldrop, A. Kumar, E. G. Hohenstein,
    B. P. Pritchard, B. R. Brooks, H. F. Schaefer III, A. Yu. Sokolov,
    K. Patkowski, A. E. DePrince III, U. Bozkaya, R. A. King,
    F. A. Evangelista, J. M. Turney, T. D. Crawford, C. D. Sherrill,
    J. Chem. Phys. 152(18) 184108 (2020). https://doi.org/10.1063/5.0006002

                            Additional Code Authors
    E. T. Seidl, C. L. Janssen, E. F. Valeev, M. L. Leininger,
    J. F. Gonthier, R. M. Richard, H. R. McAlexander, M. Saitow, X. Wang,
    P. Verma, M. H. Lechner, A. Jiang, S. Behnle, A. G. Heide,
    M. F. Herbst, and D. L. Poole

             Previous Authors, Complete List of Code Contributors,
                       and Citations for Specific Modules
    https://github.com/psi4/psi4/blob/master/codemeta.json
    https://github.com/psi4/psi4/graphs/contributors
    http://psicode.org/psi4manual/master/introduction.html#citing-psifour

    -----------------------------------------------------------------------


    Psi4 started on: Monday, 22 January 2024 05:37AM

    Process ID: 34236
    Host:       ddmfs1
    PSIDATADIR: /ddmfs1b/softs/psi4conda/share/psi4
    Memory:     500.0 MiB
    Threads:    20
    
  ==> Input File <==

--------------------------------------------------------------------------
MEMORY 60 GB

molecule dimer {
0 1
O      0.000000     0.000000     0.000000
H      0.588538     0.756918     0.000000
H      0.588538    -0.756918     0.000000
--
-1 1
Br     3.088642     3.088642     0.000000
--
-1 1
Br     3.088642    -3.088642     0.000000

units ang
no_reorient
no_com
symmetry c1
}

set {
basis        aug-cc-pVTZ
scf_type     df
}

energy("mp2", bsse_type="cp")
--------------------------------------------------------------------------

  Memory set to  55.879 GiB by Python driver.

Scratch directory: /ddmfs1a/scratch/

  //>>>>>>>>>>>>>>>>>>>>>>>>>>>>>>>>>>>>>>>>//
  // ManyBody Setup: N-Body Levels [1, 2, 3]//
  //<<<<<<<<<<<<<<<<<<<<<<<<<<<<<<<<<<<<<<<<//

        Number of 1-body computations:     3
        Number of 2-body computations:     3
        Number of 3-body computations:     1

    -----------------------------------------------------------------------
          Psi4: An Open-Source Ab Initio Electronic Structure Package
                               Psi4 1.8.2 release

                         Git: Rev {} zzzzzzz 


    D. G. A. Smith, L. A. Burns, A. C. Simmonett, R. M. Parrish,
    M. C. Schieber, R. Galvelis, P. Kraus, H. Kruse, R. Di Remigio,
    A. Alenaizan, A. M. James, S. Lehtola, J. P. Misiewicz, M. Scheurer,
    R. A. Shaw, J. B. Schriber, Y. Xie, Z. L. Glick, D. A. Sirianni,
    J. S. O'Brien, J. M. Waldrop, A. Kumar, E. G. Hohenstein,
    B. P. Pritchard, B. R. Brooks, H. F. Schaefer III, A. Yu. Sokolov,
    K. Patkowski, A. E. DePrince III, U. Bozkaya, R. A. King,
    F. A. Evangelista, J. M. Turney, T. D. Crawford, C. D. Sherrill,
    J. Chem. Phys. 152(18) 184108 (2020). https://doi.org/10.1063/5.0006002

                            Additional Code Authors
    E. T. Seidl, C. L. Janssen, E. F. Valeev, M. L. Leininger,
    J. F. Gonthier, R. M. Richard, H. R. McAlexander, M. Saitow, X. Wang,
    P. Verma, M. H. Lechner, A. Jiang, S. Behnle, A. G. Heide,
    M. F. Herbst, and D. L. Poole

             Previous Authors, Complete List of Code Contributors,
                       and Citations for Specific Modules
    https://github.com/psi4/psi4/blob/master/codemeta.json
    https://github.com/psi4/psi4/graphs/contributors
    http://psicode.org/psi4manual/master/introduction.html#citing-psifour

    -----------------------------------------------------------------------


    Psi4 started on: Monday, 22 January 2024 05:37AM

    Process ID: 34236
    Host:       ddmfs1
    PSIDATADIR: /ddmfs1b/softs/psi4conda/share/psi4
    Memory:     55.9 GiB
    Threads:    20
    
  ==> Input QCSchema <==

--------------------------------------------------------------------------
{'driver': 'energy',
 'extras': {'psiapi': True, 'wfn_qcvars_only': True},
 'id': None,
 'keywords': {'SCF_TYPE': 'DF', 'function_kwargs': {}},
 'model': {'basis': 'aug-cc-pvtz', 'method': 'mp2'},
 'molecule': {'atom_labels': ['', '', '', '', ''],
              'atomic_numbers': [8, 1, 1, 35, 35],
              'extras': {},
              'fix_com': True,
              'fix_orientation': True,
              'fix_symmetry': 'c1',
              'fragment_charges': [0.0, 0.0, 0.0],
              'fragment_multiplicities': [1, 1, 1],
              'fragments': [[0, 1, 2], [3], [4]],
              'geometry': [0.0, 0.0, 0.0, 1.1121756344246994, 1.4303677194292883, 0.0, 1.1121756344246994,
                           -1.4303677194292883, 0.0, 5.836687479586318, 5.836687479586318, 0.0, 5.836687479586318,
                           -5.836687479586318, 0.0],
              'mass_numbers': [16, 1, 1, 79, 79],
              'masses': [15.99491461957, 1.00782503223, 1.00782503223, 78.9183376, 78.9183376],
              'molecular_charge': 0.0,
              'molecular_multiplicity': 1,
              'name': 'dimer',
              'provenance': {'creator': 'QCElemental',
                             'routine': 'qcelemental.molparse.from_string',
                             'version': '0.26.0'},
              'real': [True, True, True, False, False],
              'schema_name': 'qcschema_molecule',
              'schema_version': 2,
              'symbols': ['O', 'H', 'H', 'Br', 'Br'],
              'validated': True},
 'protocols': {'stdout': True},
 'provenance': {'creator': 'QCElemental', 'routine': 'qcelemental.models.results', 'version': '0.26.0'},
 'schema_name': 'qcschema_input',
 'schema_version': 1}
--------------------------------------------------------------------------

Scratch directory: /ddmfs1a/scratch/
   => Libint2 <=

    Primary   basis highest AM E, G, H:  5, 4, 3
    Auxiliary basis highest AM E, G, H:  6, 5, 4
    Onebody   basis highest AM E, G, H:  6, 5, 4
    Solid Harmonics ordering:            gaussian

*** tstart() called on ddmfs1
*** at Mon Jan 22 05:37:47 2024

   => Loading Basis Set <=

    Name: AUG-CC-PVTZ
    Role: ORBITAL
    Keyword: BASIS
    atoms 1   entry O          line   331 file /ddmfs1b/softs/psi4conda/share/psi4/basis/aug-cc-pvtz.gbs 
    atoms 2-3 entry H          line    40 file /ddmfs1b/softs/psi4conda/share/psi4/basis/aug-cc-pvtz.gbs 
    atoms 4-5 entry BR         line  4208 file /ddmfs1b/softs/psi4conda/share/psi4/basis/aug-cc-pvtz.gbs 


         ---------------------------------------------------------
                                   SCF
               by Justin Turney, Rob Parrish, Andy Simmonett
                          and Daniel G. A. Smith
                              RHF Reference
                       20 Threads,  57220 MiB Core
         ---------------------------------------------------------

  ==> Geometry <==

    Molecular point group: c1
    Full point group: C2v

    Geometry (in Bohr), charge = 0, multiplicity = 1:

       Center              X                  Y                   Z               Mass       
    ------------   -----------------  -----------------  -----------------  -----------------
         O            0.000000000000     0.000000000000     0.000000000000    15.994914619570
         H            1.112175634425     1.430367719429     0.000000000000     1.007825032230
         H            1.112175634425    -1.430367719429     0.000000000000     1.007825032230
      Gh(BR)          5.836687479586     5.836687479586     0.000000000000    78.918337600000
      Gh(BR)          5.836687479586    -5.836687479586     0.000000000000    78.918337600000

  Running in c1 symmetry.

  Rotational constants: A =      0.01119  B =      0.01119  C =      0.00559 [cm^-1]
  Rotational constants: A =    335.48476  B =    335.38310  C =    167.71696 [MHz]
  Nuclear repulsion =    9.180197847927069

  Charge       = 0
  Multiplicity = 1
  Electrons    = 10
  Nalpha       = 5
  Nbeta        = 5

  ==> Algorithm <==

  SCF Algorithm Type is DF.
  DIIS enabled.
  MOM disabled.
  Fractional occupation disabled.
  Guess Type is SAD.
  Energy threshold   = 1.00e-08
  Density threshold  = 1.00e-08
  Integral threshold = 1.00e-12

  ==> Primary Basis <==

  Basis Set: AUG-CC-PVTZ
    Blend: AUG-CC-PVTZ
    Number of shells: 70
    Number of basis functions: 210
    Number of Cartesian functions: 243
    Spherical Harmonics?: true
    Max angular momentum: 3

   => Loading Basis Set <=

    Name: (AUG-CC-PVTZ AUX)
    Role: JKFIT
    Keyword: DF_BASIS_SCF
    atoms 1   entry O          line   286 file /ddmfs1b/softs/psi4conda/share/psi4/basis/aug-cc-pvtz-jkfit.gbs 
    atoms 2-3 entry H          line    70 file /ddmfs1b/softs/psi4conda/share/psi4/basis/aug-cc-pvtz-jkfit.gbs 
    atoms 4-5 entry BR         line  1492 file /ddmfs1b/softs/psi4conda/share/psi4/basis/aug-cc-pvtz-jkfit.gbs 

  ==> Integral Setup <==

  DFHelper Memory: AOs need 0.229 GiB; user supplied 41.910 GiB. 
  Using in-core AOs.

  ==> MemDFJK: Density-Fitted J/K Matrices <==

    J tasked:                   Yes
    K tasked:                   Yes
    wK tasked:                   No
    OpenMP threads:              20
    Memory [MiB]:             42915
    Algorithm:                 Core
    Schwarz Cutoff:           1E-12
    Mask sparsity (%):       7.6054
    Fitting Condition:        1E-10

   => Auxiliary Basis Set <=

  Basis Set: (AUG-CC-PVTZ AUX)
    Blend: AUG-CC-PVTZ-JKFIT
    Number of shells: 174
    Number of basis functions: 692
    Number of Cartesian functions: 899
    Spherical Harmonics?: true
    Max angular momentum: 4

  Minimum eigenvalue in the overlap matrix is 3.1345471307E-04.
  Reciprocal condition number of the overlap matrix is 4.3074919245E-05.
    Using symmetric orthogonalization.

  ==> Pre-Iterations <==

  SCF Guess: Superposition of Atomic Densities via on-the-fly atomic UHF (no occupation information).

   -------------------------
    Irrep   Nso     Nmo    
   -------------------------
     A        210     210 
   -------------------------
    Total     210     210
   -------------------------

  ==> Iterations <==

                           Total Energy        Delta E     RMS |[F,P]|

   @DF-RHF iter SAD:   -75.47651208176866   -7.54765e+01   0.00000e+00 
   @DF-RHF iter   1:   -75.97615413482086   -4.99642e-01   2.23127e-03 DIIS/ADIIS
   @DF-RHF iter   2:   -76.02868095773911   -5.25268e-02   1.52005e-03 DIIS/ADIIS
   @DF-RHF iter   3:   -76.06008089345553   -3.13999e-02   1.03620e-04 DIIS/ADIIS
   @DF-RHF iter   4:   -76.06047077945416   -3.89886e-04   2.46034e-05 DIIS
   @DF-RHF iter   5:   -76.06049487990904   -2.41005e-05   5.59725e-06 DIIS
   @DF-RHF iter   6:   -76.06049685334688   -1.97344e-06   1.22576e-06 DIIS
   @DF-RHF iter   7:   -76.06049695754943   -1.04203e-07   2.21308e-07 DIIS
   @DF-RHF iter   8:   -76.06049696053211   -2.98267e-09   3.68260e-08 DIIS
   @DF-RHF iter   9:   -76.06049696059681   -6.47020e-11   9.07132e-09 DIIS
  Energy and wave function converged.


  ==> Post-Iterations <==

    Orbital Energies [Eh]
    ---------------------

    Doubly Occupied:                                                      

       1A    -20.567611     2A     -1.352983     3A     -0.716516  
       4A     -0.585131     5A     -0.510303  

    Virtual:                                                              

       6A      0.024363     7A      0.038329     8A      0.060941  
       9A      0.065789    10A      0.072067    11A      0.077062  
      12A      0.082193    13A      0.096300    14A      0.104312  
      15A      0.110943    16A      0.166672    17A      0.167556  
      18A      0.193603    19A      0.197426    20A      0.237763  
      21A      0.254471    22A      0.258998    23A      0.272020  
      24A      0.287473    25A      0.301041    26A      0.302122  
      27A      0.308202    28A      0.312981    29A      0.318290  
      30A      0.319648    31A      0.323825    32A      0.325030  
      33A      0.325237    34A      0.335631    35A      0.348284  
      36A      0.356289    37A      0.389879    38A      0.394601  
      39A      0.395131    40A      0.395358    41A      0.451426  
      42A      0.465119    43A      0.487995    44A      0.554247  
      45A      0.595762    46A      0.701549    47A      0.715602  
      48A      0.735105    49A      0.743917    50A      0.758529  
      51A      0.830923    52A      0.850539    53A      0.870847  
      54A      0.890699    55A      0.906060    56A      0.920179  
      57A      0.932761    58A      0.942766    59A      0.974132  
      60A      0.979241    61A      0.980483    62A      0.992544  
      63A      0.994064    64A      0.995138    65A      1.006209  
      66A      1.017717    67A      1.028026    68A      1.033542  
      69A      1.039431    70A      1.049593    71A      1.050400  
      72A      1.050406    73A      1.050526    74A      1.054040  
      75A      1.054762    76A      1.056252    77A      1.066056  
      78A      1.091039    79A      1.093156    80A      1.103430  
      81A      1.108708    82A      1.110685    83A      1.110808  
      84A      1.112920    85A      1.138302    86A      1.151778  
      87A      1.163072    88A      1.171589    89A      1.197806  
      90A      1.214252    91A      1.218613    92A      1.229285  
      93A      1.259489    94A      1.274750    95A      1.328558  
      96A      1.365731    97A      1.383219    98A      1.529664  
      99A      1.587676   100A      1.594229   101A      1.833734  
     102A      1.849091   103A      2.142365   104A      2.233325  
     105A      2.273210   106A      2.343551   107A      2.354839  
     108A      2.428439   109A      2.464819   110A      2.509062  
     111A      2.519110   112A      2.713019   113A      2.714466  
     114A      2.775808   115A      2.824144   116A      2.852230  
     117A      2.854973   118A      2.858214   119A      2.864027  
     120A      2.873079   121A      2.885882   122A      2.889721  
     123A      2.945474   124A      2.979235   125A      3.114664  
     126A      3.114689   127A      3.114715   128A      3.114826  
     129A      3.115595   130A      3.115941   131A      3.117129  
     132A      3.118264   133A      3.137831   134A      3.153738  
     135A      3.157040   136A      3.194515   137A      3.278185  
     138A      3.279598   139A      3.285142   140A      3.288847  
     141A      3.294291   142A      3.297146   143A      3.304778  
     144A      3.305819   145A      3.306577   146A      3.326551  
     147A      3.360764   148A      3.367879   149A      3.683609  
     150A      3.772189   151A      4.023461   152A      4.121634  
     153A      4.179165   154A      4.279064   155A      4.292818  
     156A      4.383827   157A      4.406483   158A      4.411059  
     159A      4.570666   160A      4.784978   161A      4.923109  
     162A      5.159458   163A      5.175085   164A      5.309446  
     165A      5.353962   166A      5.529487   167A      5.683833  
     168A      6.193116   169A      6.535419   170A      6.717622  
     171A      6.924745   172A      7.142180   173A      7.266096  
     174A      7.322114   175A      7.331004   176A      7.347810  
     177A      7.375451   178A      7.643967   179A      7.913078  
     180A      7.994597   181A      8.837483   182A      9.229512  
     183A      9.322391   184A     13.439460   185A     13.443395  
     186A     13.445996   187A     13.450733   188A     13.512667  
     189A     13.521169   190A     16.086321   191A     26.120861  
     192A     26.122477   193A     26.127338   194A     26.130127  
     195A     26.137546   196A     26.140422   197A     26.144258  
     198A     26.162650   199A     26.190263   200A     26.192353  
     201A     45.222633   202A     45.297544   203A    138.385230  
     204A    138.391513   205A    138.395324   206A    138.403230  
     207A    138.499575   208A    138.512174   209A    707.951120  
     210A    708.152489  

    Final Occupation by Irrep:
              A 
    DOCC [     5 ]
    NA   [     5 ]
    NB   [     5 ]

  @DF-RHF Final Energy:   -76.06049696059681

   => Energetics <=

    Nuclear Repulsion Energy =              9.1801978479270687
    One-Electron Energy =                -123.0162982626105048
    Two-Electron Energy =                  37.7756034540866423
    Total Energy =                        -76.0604969605967938

Computation Completed


Properties will be evaluated at   0.000000,   0.000000,   0.000000 [a0]

Properties computed using the SCF density matrix


 Multipole Moments:

 ------------------------------------------------------------------------------------
     Multipole            Electronic (a.u.)      Nuclear  (a.u.)        Total (a.u.)
 ------------------------------------------------------------------------------------

 L = 1.  Multiply by 2.5417464519 to convert [e a0] to [Debye]
 Dipole X            :         -1.4419584            2.2243513            0.7823929
 Dipole Y            :         -0.0000000            0.0000000           -0.0000000
 Dipole Z            :          0.0000000            0.0000000            0.0000000
 Magnitude           :                                                    0.7823929

 ------------------------------------------------------------------------------------

*** tstop() called on ddmfs1 at Mon Jan 22 05:37:52 2024
Module time:
	user time   =      32.33 seconds =       0.54 minutes
	system time =       3.74 seconds =       0.06 minutes
	total time  =          5 seconds =       0.08 minutes
Total time:
	user time   =      32.33 seconds =       0.54 minutes
	system time =       3.74 seconds =       0.06 minutes
	total time  =          5 seconds =       0.08 minutes

*** tstart() called on ddmfs1
*** at Mon Jan 22 05:37:52 2024


  //>>>>>>>>>>>>>>>>>>>>>>>>>>>>>>>>>>>//
  //               DFMP2               //
  //<<<<<<<<<<<<<<<<<<<<<<<<<<<<<<<<<<<//

   => Loading Basis Set <=

    Name: (AUG-CC-PVTZ AUX)
    Role: RIFIT
    Keyword: DF_BASIS_MP2
    atoms 1   entry O          line   264 file /ddmfs1b/softs/psi4conda/share/psi4/basis/aug-cc-pvtz-ri.gbs 
    atoms 2-3 entry H          line    30 file /ddmfs1b/softs/psi4conda/share/psi4/basis/aug-cc-pvtz-ri.gbs 
    atoms 4-5 entry BR         line  1248 file /ddmfs1b/softs/psi4conda/share/psi4/basis/aug-cc-pvtz-ri.gbs 

	 --------------------------------------------------------
	                          DF-MP2                         
	      2nd-Order Density-Fitted Moller-Plesset Theory     
	              RMP2 Wavefunction,  20 Threads             
	                                                         
	        Rob Parrish, Justin Turney, Andy Simmonett,      
	           Ed Hohenstein, and C. David Sherrill          
	 --------------------------------------------------------

   => Auxiliary Basis Set <=

  Basis Set: (AUG-CC-PVTZ AUX)
    Blend: AUG-CC-PVTZ-RI
    Number of shells: 142
    Number of basis functions: 580
    Number of Cartesian functions: 768
    Spherical Harmonics?: true
    Max angular momentum: 5

	 --------------------------------------------------------
	                 NBF =   210, NAUX =   580
	 --------------------------------------------------------
	   CLASS    FOCC     OCC    AOCC    AVIR     VIR    FVIR
	   PAIRS       0       5       5     205     205       0
	 --------------------------------------------------------

	-----------------------------------------------------------
	 ==================> DF-MP2 Energies <==================== 
	-----------------------------------------------------------
	 Reference Energy          =     -76.0604969605968080 [Eh]
	 Singles Energy            =      -0.0000000000000000 [Eh]
	 Same-Spin Energy          =      -0.0683826337226410 [Eh]
	 Opposite-Spin Energy      =      -0.2154564888275533 [Eh]
	 Correlation Energy        =      -0.2838391225501943 [Eh]
	 Total Energy              =     -76.3443360831469988 [Eh]
	-----------------------------------------------------------
	 ================> DF-SCS-MP2 Energies <================== 
	-----------------------------------------------------------
	 SCS Same-Spin Scale       =       0.3333333333333333 [-]
	 SCS Opposite-Spin Scale   =       1.2000000000000000 [-]
	 SCS Same-Spin Energy      =      -0.0227942112408803 [Eh]
	 SCS Opposite-Spin Energy  =      -0.2585477865930639 [Eh]
	 SCS Correlation Energy    =      -0.2813419978339443 [Eh]
	 SCS Total Energy          =     -76.3418389584307562 [Eh]
	-----------------------------------------------------------


*** tstop() called on ddmfs1 at Mon Jan 22 05:38:08 2024
Module time:
	user time   =      25.28 seconds =       0.42 minutes
	system time =       1.45 seconds =       0.02 minutes
	total time  =         16 seconds =       0.27 minutes
Total time:
	user time   =      57.63 seconds =       0.96 minutes
	system time =       5.19 seconds =       0.09 minutes
	total time  =         21 seconds =       0.35 minutes

    Psi4 stopped on: Monday, 22 January 2024 05:38AM
    Psi4 wall time for execution: 0:00:21.62


    -----------------------------------------------------------------------
          Psi4: An Open-Source Ab Initio Electronic Structure Package
                               Psi4 1.8.2 release

                         Git: Rev {} zzzzzzz 


    D. G. A. Smith, L. A. Burns, A. C. Simmonett, R. M. Parrish,
    M. C. Schieber, R. Galvelis, P. Kraus, H. Kruse, R. Di Remigio,
    A. Alenaizan, A. M. James, S. Lehtola, J. P. Misiewicz, M. Scheurer,
    R. A. Shaw, J. B. Schriber, Y. Xie, Z. L. Glick, D. A. Sirianni,
    J. S. O'Brien, J. M. Waldrop, A. Kumar, E. G. Hohenstein,
    B. P. Pritchard, B. R. Brooks, H. F. Schaefer III, A. Yu. Sokolov,
    K. Patkowski, A. E. DePrince III, U. Bozkaya, R. A. King,
    F. A. Evangelista, J. M. Turney, T. D. Crawford, C. D. Sherrill,
    J. Chem. Phys. 152(18) 184108 (2020). https://doi.org/10.1063/5.0006002

                            Additional Code Authors
    E. T. Seidl, C. L. Janssen, E. F. Valeev, M. L. Leininger,
    J. F. Gonthier, R. M. Richard, H. R. McAlexander, M. Saitow, X. Wang,
    P. Verma, M. H. Lechner, A. Jiang, S. Behnle, A. G. Heide,
    M. F. Herbst, and D. L. Poole

             Previous Authors, Complete List of Code Contributors,
                       and Citations for Specific Modules
    https://github.com/psi4/psi4/blob/master/codemeta.json
    https://github.com/psi4/psi4/graphs/contributors
    http://psicode.org/psi4manual/master/introduction.html#citing-psifour

    -----------------------------------------------------------------------


    Psi4 started on: Monday, 22 January 2024 05:37AM

    Process ID: 34236
    Host:       ddmfs1
    PSIDATADIR: /ddmfs1b/softs/psi4conda/share/psi4
    Memory:     55.9 GiB
    Threads:    20
    
  ==> Input QCSchema <==

--------------------------------------------------------------------------
{'driver': 'energy',
 'extras': {'psiapi': True, 'wfn_qcvars_only': True},
 'id': None,
 'keywords': {'SCF_TYPE': 'DF', 'function_kwargs': {}},
 'model': {'basis': 'aug-cc-pvtz', 'method': 'mp2'},
 'molecule': {'atom_labels': ['', '', '', '', ''],
              'atomic_numbers': [8, 1, 1, 35, 35],
              'extras': {},
              'fix_com': True,
              'fix_orientation': True,
              'fix_symmetry': 'c1',
              'fragment_charges': [0.0, -1.0, 0.0],
              'fragment_multiplicities': [1, 1, 1],
              'fragments': [[0, 1, 2], [3], [4]],
              'geometry': [0.0, 0.0, 0.0, 1.1121756344246994, 1.4303677194292883, 0.0, 1.1121756344246994,
                           -1.4303677194292883, 0.0, 5.836687479586318, 5.836687479586318, 0.0, 5.836687479586318,
                           -5.836687479586318, 0.0],
              'mass_numbers': [16, 1, 1, 79, 79],
              'masses': [15.99491461957, 1.00782503223, 1.00782503223, 78.9183376, 78.9183376],
              'molecular_charge': -1.0,
              'molecular_multiplicity': 1,
              'name': 'dimer',
              'provenance': {'creator': 'QCElemental',
                             'routine': 'qcelemental.molparse.from_string',
                             'version': '0.26.0'},
              'real': [False, False, False, True, False],
              'schema_name': 'qcschema_molecule',
              'schema_version': 2,
              'symbols': ['O', 'H', 'H', 'Br', 'Br'],
              'validated': True},
 'protocols': {'stdout': True},
 'provenance': {'creator': 'QCElemental', 'routine': 'qcelemental.models.results', 'version': '0.26.0'},
 'schema_name': 'qcschema_input',
 'schema_version': 1}
--------------------------------------------------------------------------

Scratch directory: /ddmfs1a/scratch/
   => Libint2 <=

    Primary   basis highest AM E, G, H:  5, 4, 3
    Auxiliary basis highest AM E, G, H:  6, 5, 4
    Onebody   basis highest AM E, G, H:  6, 5, 4
    Solid Harmonics ordering:            gaussian

*** tstart() called on ddmfs1
*** at Mon Jan 22 05:38:09 2024

   => Loading Basis Set <=

    Name: AUG-CC-PVTZ
    Role: ORBITAL
    Keyword: BASIS
    atoms 1   entry O          line   331 file /ddmfs1b/softs/psi4conda/share/psi4/basis/aug-cc-pvtz.gbs 
    atoms 2-3 entry H          line    40 file /ddmfs1b/softs/psi4conda/share/psi4/basis/aug-cc-pvtz.gbs 
    atoms 4-5 entry BR         line  4208 file /ddmfs1b/softs/psi4conda/share/psi4/basis/aug-cc-pvtz.gbs 


         ---------------------------------------------------------
                                   SCF
               by Justin Turney, Rob Parrish, Andy Simmonett
                          and Daniel G. A. Smith
                              RHF Reference
                       20 Threads,  57220 MiB Core
         ---------------------------------------------------------

  ==> Geometry <==

    Molecular point group: c1
    Full point group: Cs

    Geometry (in Bohr), charge = -1, multiplicity = 1:

       Center              X                  Y                   Z               Mass       
    ------------   -----------------  -----------------  -----------------  -----------------
      Gh(O)           0.000000000000     0.000000000000     0.000000000000    15.994914619570
      Gh(H)           1.112175634425     1.430367719429     0.000000000000     1.007825032230
      Gh(H)           1.112175634425    -1.430367719429     0.000000000000     1.007825032230
         BR           5.836687479586     5.836687479586     0.000000000000    78.918337600000
      Gh(BR)          5.836687479586    -5.836687479586     0.000000000000    78.918337600000

  Running in c1 symmetry.

  Rotational constants: A =      0.01119  B =      0.01119  C =      0.00559 [cm^-1]
  Rotational constants: A =    335.48476  B =    335.38310  C =    167.71696 [MHz]
  Nuclear repulsion =    0.000000000000000

  Charge       = -1
  Multiplicity = 1
  Electrons    = 36
  Nalpha       = 18
  Nbeta        = 18

  ==> Algorithm <==

  SCF Algorithm Type is DF.
  DIIS enabled.
  MOM disabled.
  Fractional occupation disabled.
  Guess Type is SAD.
  Energy threshold   = 1.00e-08
  Density threshold  = 1.00e-08
  Integral threshold = 1.00e-12

  ==> Primary Basis <==

  Basis Set: AUG-CC-PVTZ
    Blend: AUG-CC-PVTZ
    Number of shells: 70
    Number of basis functions: 210
    Number of Cartesian functions: 243
    Spherical Harmonics?: true
    Max angular momentum: 3

   => Loading Basis Set <=

    Name: (AUG-CC-PVTZ AUX)
    Role: JKFIT
    Keyword: DF_BASIS_SCF
    atoms 1   entry O          line   286 file /ddmfs1b/softs/psi4conda/share/psi4/basis/aug-cc-pvtz-jkfit.gbs 
    atoms 2-3 entry H          line    70 file /ddmfs1b/softs/psi4conda/share/psi4/basis/aug-cc-pvtz-jkfit.gbs 
    atoms 4-5 entry BR         line  1492 file /ddmfs1b/softs/psi4conda/share/psi4/basis/aug-cc-pvtz-jkfit.gbs 

  ==> Integral Setup <==

  DFHelper Memory: AOs need 0.229 GiB; user supplied 41.910 GiB. 
  Using in-core AOs.

  ==> MemDFJK: Density-Fitted J/K Matrices <==

    J tasked:                   Yes
    K tasked:                   Yes
    wK tasked:                   No
    OpenMP threads:              20
    Memory [MiB]:             42915
    Algorithm:                 Core
    Schwarz Cutoff:           1E-12
    Mask sparsity (%):       7.6054
    Fitting Condition:        1E-10

   => Auxiliary Basis Set <=

  Basis Set: (AUG-CC-PVTZ AUX)
    Blend: AUG-CC-PVTZ-JKFIT
    Number of shells: 174
    Number of basis functions: 692
    Number of Cartesian functions: 899
    Spherical Harmonics?: true
    Max angular momentum: 4

  Minimum eigenvalue in the overlap matrix is 3.1345471307E-04.
  Reciprocal condition number of the overlap matrix is 4.3074919245E-05.
    Using symmetric orthogonalization.

  ==> Pre-Iterations <==

  SCF Guess: Superposition of Atomic Densities via on-the-fly atomic UHF (no occupation information).

   -------------------------
    Irrep   Nso     Nmo    
   -------------------------
     A        210     210 
   -------------------------
    Total     210     210
   -------------------------

  ==> Iterations <==

                           Total Energy        Delta E     RMS |[F,P]|

   @DF-RHF iter SAD: -2570.41423522249397   -2.57041e+03   0.00000e+00 
   @DF-RHF iter   1: -2572.25574402326311   -1.84151e+00   4.99338e-03 DIIS/ADIIS
   @DF-RHF iter   2: -2572.46469549209723   -2.08951e-01   2.77029e-03 DIIS/ADIIS
   @DF-RHF iter   3: -2572.53364342689838   -6.89479e-02   3.77242e-05 DIIS
   @DF-RHF iter   4: -2572.53367060412438   -2.71772e-05   5.13379e-06 DIIS
   @DF-RHF iter   5: -2572.53367166052021   -1.05640e-06   1.38554e-06 DIIS
   @DF-RHF iter   6: -2572.53367173338029   -7.28601e-08   2.53580e-07 DIIS
   @DF-RHF iter   7: -2572.53367174247660   -9.09631e-09   2.18974e-08 DIIS
   @DF-RHF iter   8: -2572.53367174255573   -7.91260e-11   6.72645e-09 DIIS
  Energy and wave function converged.


  ==> Post-Iterations <==

    Orbital Energies [Eh]
    ---------------------

    Doubly Occupied:                                                      

       1A   -489.720450     2A    -64.860512     3A    -58.214984  
       4A    -58.214984     5A    -58.214984     6A     -9.532869  
       7A     -7.140212     8A     -7.140211     9A     -7.140207  
      10A     -2.881880    11A     -2.881879    12A     -2.881879  
      13A     -2.881879    14A     -2.881873    15A     -0.685999  
      16A     -0.139339    17A     -0.139336    18A     -0.139335  

    Virtual:                                                              

      19A      0.110479    20A      0.141258    21A      0.157178  
      22A      0.158791    23A      0.179332    24A      0.188640  
      25A      0.229585    26A      0.240385    27A      0.255747  
      28A      0.261133    29A      0.263934    30A      0.266248  
      31A      0.292157    32A      0.335557    33A      0.376900  
      34A      0.377084    35A      0.380942    36A      0.400137  
      37A      0.403106    38A      0.413149    39A      0.413845  
      40A      0.420558    41A      0.434654    42A      0.447512  
      43A      0.465632    44A      0.477125    45A      0.483814  
      46A      0.493710    47A      0.498836    48A      0.512393  
      49A      0.534360    50A      0.540716    51A      0.560259  
      52A      0.597289    53A      0.619366    54A      0.649782  
      55A      0.743999    56A      0.756092    57A      0.788916  
      58A      0.789687    59A      0.870987    60A      0.914426  
      61A      0.932674    62A      0.941096    63A      0.943925  
      64A      0.960346    65A      0.993808    66A      1.011702  
      67A      1.019037    68A      1.026031    69A      1.041010  
      70A      1.042067    71A      1.049154    72A      1.054222  
      73A      1.061819    74A      1.063073    75A      1.072664  
      76A      1.087938    77A      1.090950    78A      1.101668  
      79A      1.109399    80A      1.126656    81A      1.127646  
      82A      1.143608    83A      1.143853    84A      1.148947  
      85A      1.151659    86A      1.179400    87A      1.187893  
      88A      1.201560    89A      1.201818    90A      1.206453  
      91A      1.208421    92A      1.210063    93A      1.210194  
      94A      1.212311    95A      1.214913    96A      1.236220  
      97A      1.249404    98A      1.270671    99A      1.279902  
     100A      1.318273   101A      1.346480   102A      1.362414  
     103A      1.415868   104A      1.463243   105A      1.495884  
     106A      1.636112   107A      1.713266   108A      1.833981  
     109A      1.863684   110A      1.876241   111A      1.960296  
     112A      2.031131   113A      2.208291   114A      2.411297  
     115A      2.421190   116A      2.461248   117A      2.519240  
     118A      2.566760   119A      2.568787   120A      2.570194  
     121A      2.577935   122A      2.580865   123A      2.584984  
     124A      2.585792   125A      2.585876   126A      2.589141  
     127A      2.615845   128A      2.616099   129A      2.631851  
     130A      2.655749   131A      2.675705   132A      2.687084  
     133A      2.715262   134A      2.724662   135A      2.760577  
     136A      2.837367   137A      2.949591   138A      2.954979  
     139A      2.956565   140A      3.029599   141A      3.076179  
     142A      3.209324   143A      3.209726   144A      3.210470  
     145A      3.212762   146A      3.217037   147A      3.246379  
     148A      3.273391   149A      3.310691   150A      3.344632  
     151A      3.378009   152A      3.380219   153A      3.397249  
     154A      3.404458   155A      3.447833   156A      3.457245  
     157A      3.460074   158A      3.469772   159A      3.718687  
     160A      3.853860   161A      3.977779   162A      4.489218  
     163A      4.560414   164A      4.612959   165A      4.737447  
     166A      4.785317   167A      4.832265   168A      4.987144  
     169A      5.026687   170A      5.031520   171A      5.336525  
     172A      5.689558   173A      5.743722   174A      5.789854  
     175A      5.994670   176A      6.288135   177A      6.538339  
     178A      6.766267   179A      7.216127   180A      7.786713  
     181A      7.957528   182A      8.168965   183A      8.314648  
     184A      8.415054   185A      8.955177   186A      9.008615  
     187A      9.388932   188A      9.765608   189A      9.950004  
     190A     10.121978   191A     10.351362   192A     11.373368  
     193A     11.747115   194A     12.252116   195A     13.537620  
     196A     13.544874   197A     13.612600   198A     13.670693  
     199A     13.953024   200A     26.221227   201A     26.223592  
     202A     26.237199   203A     26.246948   204A     26.286544  
     205A     45.354898   206A     65.373731   207A    138.484718  
     208A    138.496314   209A    138.601712   210A    708.148270  

    Final Occupation by Irrep:
              A 
    DOCC [    18 ]
    NA   [    18 ]
    NB   [    18 ]

  @DF-RHF Final Energy: -2572.53367174255573

   => Energetics <=

    Nuclear Repulsion Energy =              0.0000000000000000
    One-Electron Energy =               -3593.6817168634142945
    Two-Electron Energy =                1021.1480451208585691
    Total Energy =                      -2572.5336717425557254

Computation Completed


Properties will be evaluated at   0.000000,   0.000000,   0.000000 [a0]

Properties computed using the SCF density matrix


 Multipole Moments:

 ------------------------------------------------------------------------------------
     Multipole            Electronic (a.u.)      Nuclear  (a.u.)        Total (a.u.)
 ------------------------------------------------------------------------------------

 L = 1.  Multiply by 2.5417464519 to convert [e a0] to [Debye]
 Dipole X            :       -210.1207945          204.2840618           -5.8367327
 Dipole Y            :       -210.1208126          204.2840618           -5.8367508
 Dipole Z            :         -0.0000000            0.0000000           -0.0000000
 Magnitude           :                                                    8.2543993

 ------------------------------------------------------------------------------------

*** tstop() called on ddmfs1 at Mon Jan 22 05:38:15 2024
Module time:
	user time   =      42.76 seconds =       0.71 minutes
	system time =       6.18 seconds =       0.10 minutes
	total time  =          6 seconds =       0.10 minutes
Total time:
	user time   =     101.55 seconds =       1.69 minutes
	system time =      11.45 seconds =       0.19 minutes
	total time  =         28 seconds =       0.47 minutes

*** tstart() called on ddmfs1
*** at Mon Jan 22 05:38:15 2024


  //>>>>>>>>>>>>>>>>>>>>>>>>>>>>>>>>>>>//
  //               DFMP2               //
  //<<<<<<<<<<<<<<<<<<<<<<<<<<<<<<<<<<<//

   => Loading Basis Set <=

    Name: (AUG-CC-PVTZ AUX)
    Role: RIFIT
    Keyword: DF_BASIS_MP2
    atoms 1   entry O          line   264 file /ddmfs1b/softs/psi4conda/share/psi4/basis/aug-cc-pvtz-ri.gbs 
    atoms 2-3 entry H          line    30 file /ddmfs1b/softs/psi4conda/share/psi4/basis/aug-cc-pvtz-ri.gbs 
    atoms 4-5 entry BR         line  1248 file /ddmfs1b/softs/psi4conda/share/psi4/basis/aug-cc-pvtz-ri.gbs 

	 --------------------------------------------------------
	                          DF-MP2                         
	      2nd-Order Density-Fitted Moller-Plesset Theory     
	              RMP2 Wavefunction,  20 Threads             
	                                                         
	        Rob Parrish, Justin Turney, Andy Simmonett,      
	           Ed Hohenstein, and C. David Sherrill          
	 --------------------------------------------------------

   => Auxiliary Basis Set <=

  Basis Set: (AUG-CC-PVTZ AUX)
    Blend: AUG-CC-PVTZ-RI
    Number of shells: 142
    Number of basis functions: 580
    Number of Cartesian functions: 768
    Spherical Harmonics?: true
    Max angular momentum: 5

	 --------------------------------------------------------
	                 NBF =   210, NAUX =   580
	 --------------------------------------------------------
	   CLASS    FOCC     OCC    AOCC    AVIR     VIR    FVIR
	   PAIRS       0      18      18     192     192       0
	 --------------------------------------------------------

	-----------------------------------------------------------
	 ==================> DF-MP2 Energies <==================== 
	-----------------------------------------------------------
	 Reference Energy          =   -2572.5336717425557254 [Eh]
	 Singles Energy            =      -0.0000000000000000 [Eh]
	 Same-Spin Energy          =      -0.0869789702193105 [Eh]
	 Opposite-Spin Energy      =      -0.2016753119098768 [Eh]
	 Correlation Energy        =      -0.2886542821291873 [Eh]
	 Total Energy              =   -2572.8223260246850259 [Eh]
	-----------------------------------------------------------
	 ================> DF-SCS-MP2 Energies <================== 
	-----------------------------------------------------------
	 SCS Same-Spin Scale       =       0.3333333333333333 [-]
	 SCS Opposite-Spin Scale   =       1.2000000000000000 [-]
	 SCS Same-Spin Energy      =      -0.0289929900731035 [Eh]
	 SCS Opposite-Spin Energy  =      -0.2420103742918521 [Eh]
	 SCS Correlation Energy    =      -0.2710033643649556 [Eh]
	 SCS Total Energy          =   -2572.8046751069205129 [Eh]
	-----------------------------------------------------------


*** tstop() called on ddmfs1 at Mon Jan 22 05:38:31 2024
Module time:
	user time   =      26.72 seconds =       0.45 minutes
	system time =       1.50 seconds =       0.03 minutes
	total time  =         16 seconds =       0.27 minutes
Total time:
	user time   =     128.29 seconds =       2.14 minutes
	system time =      12.95 seconds =       0.22 minutes
	total time  =         44 seconds =       0.73 minutes

    Psi4 stopped on: Monday, 22 January 2024 05:38AM
    Psi4 wall time for execution: 0:00:22.53


    -----------------------------------------------------------------------
          Psi4: An Open-Source Ab Initio Electronic Structure Package
                               Psi4 1.8.2 release

                         Git: Rev {} zzzzzzz 


    D. G. A. Smith, L. A. Burns, A. C. Simmonett, R. M. Parrish,
    M. C. Schieber, R. Galvelis, P. Kraus, H. Kruse, R. Di Remigio,
    A. Alenaizan, A. M. James, S. Lehtola, J. P. Misiewicz, M. Scheurer,
    R. A. Shaw, J. B. Schriber, Y. Xie, Z. L. Glick, D. A. Sirianni,
    J. S. O'Brien, J. M. Waldrop, A. Kumar, E. G. Hohenstein,
    B. P. Pritchard, B. R. Brooks, H. F. Schaefer III, A. Yu. Sokolov,
    K. Patkowski, A. E. DePrince III, U. Bozkaya, R. A. King,
    F. A. Evangelista, J. M. Turney, T. D. Crawford, C. D. Sherrill,
    J. Chem. Phys. 152(18) 184108 (2020). https://doi.org/10.1063/5.0006002

                            Additional Code Authors
    E. T. Seidl, C. L. Janssen, E. F. Valeev, M. L. Leininger,
    J. F. Gonthier, R. M. Richard, H. R. McAlexander, M. Saitow, X. Wang,
    P. Verma, M. H. Lechner, A. Jiang, S. Behnle, A. G. Heide,
    M. F. Herbst, and D. L. Poole

             Previous Authors, Complete List of Code Contributors,
                       and Citations for Specific Modules
    https://github.com/psi4/psi4/blob/master/codemeta.json
    https://github.com/psi4/psi4/graphs/contributors
    http://psicode.org/psi4manual/master/introduction.html#citing-psifour

    -----------------------------------------------------------------------


    Psi4 started on: Monday, 22 January 2024 05:37AM

    Process ID: 34236
    Host:       ddmfs1
    PSIDATADIR: /ddmfs1b/softs/psi4conda/share/psi4
    Memory:     55.9 GiB
    Threads:    20
    
  ==> Input QCSchema <==

--------------------------------------------------------------------------
{'driver': 'energy',
 'extras': {'psiapi': True, 'wfn_qcvars_only': True},
 'id': None,
 'keywords': {'SCF_TYPE': 'DF', 'function_kwargs': {}},
 'model': {'basis': 'aug-cc-pvtz', 'method': 'mp2'},
 'molecule': {'atom_labels': ['', '', '', '', ''],
              'atomic_numbers': [8, 1, 1, 35, 35],
              'extras': {},
              'fix_com': True,
              'fix_orientation': True,
              'fix_symmetry': 'c1',
              'fragment_charges': [0.0, -1.0, -1.0],
              'fragment_multiplicities': [1, 1, 1],
              'fragments': [[0, 1, 2], [3], [4]],
              'geometry': [0.0, 0.0, 0.0, 1.1121756344246994, 1.4303677194292883, 0.0, 1.1121756344246994,
                           -1.4303677194292883, 0.0, 5.836687479586318, 5.836687479586318, 0.0, 5.836687479586318,
                           -5.836687479586318, 0.0],
              'mass_numbers': [16, 1, 1, 79, 79],
              'masses': [15.99491461957, 1.00782503223, 1.00782503223, 78.9183376, 78.9183376],
              'molecular_charge': -2.0,
              'molecular_multiplicity': 1,
              'name': 'dimer',
              'provenance': {'creator': 'QCElemental',
                             'routine': 'qcelemental.molparse.from_string',
                             'version': '0.26.0'},
              'real': [False, False, False, True, True],
              'schema_name': 'qcschema_molecule',
              'schema_version': 2,
              'symbols': ['O', 'H', 'H', 'Br', 'Br'],
              'validated': True},
 'protocols': {'stdout': True},
 'provenance': {'creator': 'QCElemental', 'routine': 'qcelemental.models.results', 'version': '0.26.0'},
 'schema_name': 'qcschema_input',
 'schema_version': 1}
--------------------------------------------------------------------------

Scratch directory: /ddmfs1a/scratch/
   => Libint2 <=

    Primary   basis highest AM E, G, H:  5, 4, 3
    Auxiliary basis highest AM E, G, H:  6, 5, 4
    Onebody   basis highest AM E, G, H:  6, 5, 4
    Solid Harmonics ordering:            gaussian

*** tstart() called on ddmfs1
*** at Mon Jan 22 05:38:31 2024

   => Loading Basis Set <=

    Name: AUG-CC-PVTZ
    Role: ORBITAL
    Keyword: BASIS
    atoms 1   entry O          line   331 file /ddmfs1b/softs/psi4conda/share/psi4/basis/aug-cc-pvtz.gbs 
    atoms 2-3 entry H          line    40 file /ddmfs1b/softs/psi4conda/share/psi4/basis/aug-cc-pvtz.gbs 
    atoms 4-5 entry BR         line  4208 file /ddmfs1b/softs/psi4conda/share/psi4/basis/aug-cc-pvtz.gbs 


         ---------------------------------------------------------
                                   SCF
               by Justin Turney, Rob Parrish, Andy Simmonett
                          and Daniel G. A. Smith
                              RHF Reference
                       20 Threads,  57220 MiB Core
         ---------------------------------------------------------

  ==> Geometry <==

    Molecular point group: c1
    Full point group: C2v

    Geometry (in Bohr), charge = -2, multiplicity = 1:

       Center              X                  Y                   Z               Mass       
    ------------   -----------------  -----------------  -----------------  -----------------
      Gh(O)           0.000000000000     0.000000000000     0.000000000000    15.994914619570
      Gh(H)           1.112175634425     1.430367719429     0.000000000000     1.007825032230
      Gh(H)           1.112175634425    -1.430367719429     0.000000000000     1.007825032230
         BR           5.836687479586     5.836687479586     0.000000000000    78.918337600000
         BR           5.836687479586    -5.836687479586     0.000000000000    78.918337600000

  Running in c1 symmetry.

  Rotational constants: A =      0.01119  B =      0.01119  C =      0.00559 [cm^-1]
  Rotational constants: A =    335.48476  B =    335.38310  C =    167.71696 [MHz]
  Nuclear repulsion =  104.939660062699076

  Charge       = -2
  Multiplicity = 1
  Electrons    = 72
  Nalpha       = 36
  Nbeta        = 36

  ==> Algorithm <==

  SCF Algorithm Type is DF.
  DIIS enabled.
  MOM disabled.
  Fractional occupation disabled.
  Guess Type is SAD.
  Energy threshold   = 1.00e-08
  Density threshold  = 1.00e-08
  Integral threshold = 1.00e-12

  ==> Primary Basis <==

  Basis Set: AUG-CC-PVTZ
    Blend: AUG-CC-PVTZ
    Number of shells: 70
    Number of basis functions: 210
    Number of Cartesian functions: 243
    Spherical Harmonics?: true
    Max angular momentum: 3

   => Loading Basis Set <=

    Name: (AUG-CC-PVTZ AUX)
    Role: JKFIT
    Keyword: DF_BASIS_SCF
    atoms 1   entry O          line   286 file /ddmfs1b/softs/psi4conda/share/psi4/basis/aug-cc-pvtz-jkfit.gbs 
    atoms 2-3 entry H          line    70 file /ddmfs1b/softs/psi4conda/share/psi4/basis/aug-cc-pvtz-jkfit.gbs 
    atoms 4-5 entry BR         line  1492 file /ddmfs1b/softs/psi4conda/share/psi4/basis/aug-cc-pvtz-jkfit.gbs 

  ==> Integral Setup <==

  DFHelper Memory: AOs need 0.229 GiB; user supplied 41.910 GiB. 
  Using in-core AOs.

  ==> MemDFJK: Density-Fitted J/K Matrices <==

    J tasked:                   Yes
    K tasked:                   Yes
    wK tasked:                   No
    OpenMP threads:              20
    Memory [MiB]:             42915
    Algorithm:                 Core
    Schwarz Cutoff:           1E-12
    Mask sparsity (%):       7.6054
    Fitting Condition:        1E-10

   => Auxiliary Basis Set <=

  Basis Set: (AUG-CC-PVTZ AUX)
    Blend: AUG-CC-PVTZ-JKFIT
    Number of shells: 174
    Number of basis functions: 692
    Number of Cartesian functions: 899
    Spherical Harmonics?: true
    Max angular momentum: 4

  Minimum eigenvalue in the overlap matrix is 3.1345471307E-04.
  Reciprocal condition number of the overlap matrix is 4.3074919245E-05.
    Using symmetric orthogonalization.

  ==> Pre-Iterations <==

  SCF Guess: Superposition of Atomic Densities via on-the-fly atomic UHF (no occupation information).

   -------------------------
    Irrep   Nso     Nmo    
   -------------------------
     A        210     210 
   -------------------------
    Total     210     210
   -------------------------

  ==> Iterations <==

                           Total Energy        Delta E     RMS |[F,P]|

   @DF-RHF iter SAD: -5140.82847333748123   -5.14083e+03   0.00000e+00 
   @DF-RHF iter   1: -5144.42581804457313   -3.59734e+00   7.06302e-03 DIIS/ADIIS
   @DF-RHF iter   2: -5144.84407754448330   -4.18259e-01   3.92882e-03 DIIS/ADIIS
   @DF-RHF iter   3: -5144.98370076340689   -1.39623e-01   6.80371e-05 DIIS
   @DF-RHF iter   4: -5144.98378780174517   -8.70383e-05   8.73907e-06 DIIS
   @DF-RHF iter   5: -5144.98379158851458   -3.78677e-06   2.92124e-06 DIIS
   @DF-RHF iter   6: -5144.98379196132100   -3.72806e-07   7.66085e-07 DIIS
   @DF-RHF iter   7: -5144.98379203527111   -7.39501e-08   1.83376e-07 DIIS
   @DF-RHF iter   8: -5144.98379203806235   -2.79124e-09   4.69286e-08 DIIS
   @DF-RHF iter   9: -5144.98379203844797   -3.85626e-10   7.11621e-09 DIIS
  Energy and wave function converged.


  ==> Post-Iterations <==

    Orbital Energies [Eh]
    ---------------------

    Doubly Occupied:                                                      

       1A   -489.638094     2A   -489.638094     3A    -64.778117  
       4A    -64.778117     5A    -58.132596     6A    -58.132596  
       7A    -58.132596     8A    -58.132596     9A    -58.132576  
      10A    -58.132576    11A     -9.450435    12A     -9.450435  
      13A     -7.057806    14A     -7.057806    15A     -7.057805  
      16A     -7.057805    17A     -7.057680    18A     -7.057680  
      19A     -2.799539    20A     -2.799539    21A     -2.799537  
      22A     -2.799537    23A     -2.799388    24A     -2.799388  
      25A     -2.799387    26A     -2.799387    27A     -2.799339  
      28A     -2.799339    29A     -0.603269    30A     -0.603222  
      31A     -0.057081    32A     -0.057064    33A     -0.056779  
      34A     -0.056771    35A     -0.056619    36A     -0.054614  

    Virtual:                                                              

      37A      0.223799    38A      0.244590    39A      0.312139  
      40A      0.313997    41A      0.320367    42A      0.334395  
      43A      0.336158    44A      0.346270    45A      0.350247  
      46A      0.357003    47A      0.360303    48A      0.389313  
      49A      0.426214    50A      0.431880    51A      0.513454  
      52A      0.522813    53A      0.528023    54A      0.554605  
      55A      0.559044    56A      0.569633    57A      0.574057  
      58A      0.576663    59A      0.580326    60A      0.609469  
      61A      0.613764    62A      0.621345    63A      0.637157  
      64A      0.642101    65A      0.660575    66A      0.684770  
      67A      0.713427    68A      0.734155    69A      0.823958  
      70A      0.827084    71A      0.836580    72A      0.843584  
      73A      0.850481    74A      0.896756    75A      0.919946  
      76A      0.988086    77A      0.995087    78A      1.049737  
      79A      1.055798    80A      1.057533    81A      1.062349  
      82A      1.066320    83A      1.106396    84A      1.107417  
      85A      1.109011    86A      1.122497    87A      1.124504  
      88A      1.138722    89A      1.140234    90A      1.150352  
      91A      1.151573    92A      1.152811    93A      1.166148  
      94A      1.166991    95A      1.174647    96A      1.192735  
      97A      1.196160    98A      1.226986    99A      1.238285  
     100A      1.245465   101A      1.269846   102A      1.284139  
     103A      1.287108   104A      1.292379   105A      1.292635  
     106A      1.293228   107A      1.293243   108A      1.300088  
     109A      1.300242   110A      1.304570   111A      1.344821  
     112A      1.345541   113A      1.396848   114A      1.422256  
     115A      1.427554   116A      1.483729   117A      1.498836  
     118A      1.577583   119A      1.607522   120A      1.754591  
     121A      1.823026   122A      1.962786   123A      1.982893  
     124A      1.990846   125A      2.077670   126A      2.141502  
     127A      2.333972   128A      2.490494   129A      2.496788  
     130A      2.499496   131A      2.506083   132A      2.545146  
     133A      2.547171   134A      2.608349   135A      2.643363  
     136A      2.645430   137A      2.653100   138A      2.653654  
     139A      2.654097   140A      2.656659   141A      2.658877  
     142A      2.663596   143A      2.666496   144A      2.667503  
     145A      2.668204   146A      2.668391   147A      2.668586  
     148A      2.668589   149A      2.669217   150A      2.670883  
     151A      2.678536   152A      2.685833   153A      2.686318  
     154A      2.711544   155A      2.720459   156A      2.736525  
     157A      2.737763   158A      2.774789   159A      2.776089  
     160A      2.796916   161A      2.831264   162A      2.832808  
     163A      2.880717   164A      2.913236   165A      2.953475  
     166A      3.183800   167A      3.414602   168A      3.432993  
     169A      3.472735   170A      3.571106   171A      3.582445  
     172A      3.803245   173A      3.960935   174A      4.014490  
     175A      4.108682   176A      4.617104   177A      4.694792  
     178A      4.732234   179A      4.861092   180A      4.919663  
     181A      4.954748   182A      5.131222   183A      5.142717  
     184A      5.156755   185A      5.462057   186A      5.815356  
     187A      5.871261   188A      5.908277   189A      6.117636  
     190A      6.410491   191A      6.661664   192A      6.886607  
     193A      7.336648   194A      7.902213   195A      8.074419  
     196A      8.284583   197A      8.432278   198A      8.531307  
     199A      9.090422   200A      9.131282   201A      9.879576  
     202A     10.064640   203A     10.237642   204A     10.466776  
     205A     11.491154   206A     11.863328   207A     12.368235  
     208A     13.787326   209A     14.068493   210A     65.487926  

    Final Occupation by Irrep:
              A 
    DOCC [    36 ]
    NA   [    36 ]
    NB   [    36 ]

  @DF-RHF Final Energy: -5144.98379203844797

   => Energetics <=

    Nuclear Repulsion Energy =            104.9396600626990761
    One-Electron Energy =               -7403.0164852444777353
    Two-Electron Energy =                2153.0930331433310130
    Total Energy =                      -5144.9837920384479730

Computation Completed


Properties will be evaluated at   0.000000,   0.000000,   0.000000 [a0]

Properties computed using the SCF density matrix


 Multipole Moments:

 ------------------------------------------------------------------------------------
     Multipole            Electronic (a.u.)      Nuclear  (a.u.)        Total (a.u.)
 ------------------------------------------------------------------------------------

 L = 1.  Multiply by 2.5417464519 to convert [e a0] to [Debye]
 Dipole X            :       -420.2471221          408.5681236          -11.6789985
 Dipole Y            :         -0.0000000            0.0000000           -0.0000000
 Dipole Z            :          0.0000000            0.0000000            0.0000000
 Magnitude           :                                                   11.6789985

 ------------------------------------------------------------------------------------

*** tstop() called on ddmfs1 at Mon Jan 22 05:38:37 2024
Module time:
	user time   =      44.39 seconds =       0.74 minutes
	system time =       6.46 seconds =       0.11 minutes
	total time  =          6 seconds =       0.10 minutes
Total time:
	user time   =     173.86 seconds =       2.90 minutes
	system time =      19.44 seconds =       0.32 minutes
	total time  =         50 seconds =       0.83 minutes

*** tstart() called on ddmfs1
*** at Mon Jan 22 05:38:37 2024


  //>>>>>>>>>>>>>>>>>>>>>>>>>>>>>>>>>>>//
  //               DFMP2               //
  //<<<<<<<<<<<<<<<<<<<<<<<<<<<<<<<<<<<//

   => Loading Basis Set <=

    Name: (AUG-CC-PVTZ AUX)
    Role: RIFIT
    Keyword: DF_BASIS_MP2
    atoms 1   entry O          line   264 file /ddmfs1b/softs/psi4conda/share/psi4/basis/aug-cc-pvtz-ri.gbs 
    atoms 2-3 entry H          line    30 file /ddmfs1b/softs/psi4conda/share/psi4/basis/aug-cc-pvtz-ri.gbs 
    atoms 4-5 entry BR         line  1248 file /ddmfs1b/softs/psi4conda/share/psi4/basis/aug-cc-pvtz-ri.gbs 

	 --------------------------------------------------------
	                          DF-MP2                         
	      2nd-Order Density-Fitted Moller-Plesset Theory     
	              RMP2 Wavefunction,  20 Threads             
	                                                         
	        Rob Parrish, Justin Turney, Andy Simmonett,      
	           Ed Hohenstein, and C. David Sherrill          
	 --------------------------------------------------------

   => Auxiliary Basis Set <=

  Basis Set: (AUG-CC-PVTZ AUX)
    Blend: AUG-CC-PVTZ-RI
    Number of shells: 142
    Number of basis functions: 580
    Number of Cartesian functions: 768
    Spherical Harmonics?: true
    Max angular momentum: 5

	 --------------------------------------------------------
	                 NBF =   210, NAUX =   580
	 --------------------------------------------------------
	   CLASS    FOCC     OCC    AOCC    AVIR     VIR    FVIR
	   PAIRS       0      36      36     174     174       0
	 --------------------------------------------------------

	-----------------------------------------------------------
	 ==================> DF-MP2 Energies <==================== 
	-----------------------------------------------------------
	 Reference Energy          =   -5144.9837920384479730 [Eh]
	 Singles Energy            =      -0.0000000000000000 [Eh]
	 Same-Spin Energy          =      -0.1741118924127533 [Eh]
	 Opposite-Spin Energy      =      -0.4036001463498952 [Eh]
	 Correlation Energy        =      -0.5777120387626485 [Eh]
	 Total Energy              =   -5145.5615040772108841 [Eh]
	-----------------------------------------------------------
	 ================> DF-SCS-MP2 Energies <================== 
	-----------------------------------------------------------
	 SCS Same-Spin Scale       =       0.3333333333333333 [-]
	 SCS Opposite-Spin Scale   =       1.2000000000000000 [-]
	 SCS Same-Spin Energy      =      -0.0580372974709178 [Eh]
	 SCS Opposite-Spin Energy  =      -0.4843201756198742 [Eh]
	 SCS Correlation Energy    =      -0.5423574730907920 [Eh]
	 SCS Total Energy          =   -5145.5261495115391881 [Eh]
	-----------------------------------------------------------


*** tstop() called on ddmfs1 at Mon Jan 22 05:38:54 2024
Module time:
	user time   =      26.79 seconds =       0.45 minutes
	system time =       1.68 seconds =       0.03 minutes
	total time  =         17 seconds =       0.28 minutes
Total time:
	user time   =     200.67 seconds =       3.34 minutes
	system time =      21.12 seconds =       0.35 minutes
	total time  =         67 seconds =       1.12 minutes

    Psi4 stopped on: Monday, 22 January 2024 05:38AM
    Psi4 wall time for execution: 0:00:22.51


    -----------------------------------------------------------------------
          Psi4: An Open-Source Ab Initio Electronic Structure Package
                               Psi4 1.8.2 release

                         Git: Rev {} zzzzzzz 


    D. G. A. Smith, L. A. Burns, A. C. Simmonett, R. M. Parrish,
    M. C. Schieber, R. Galvelis, P. Kraus, H. Kruse, R. Di Remigio,
    A. Alenaizan, A. M. James, S. Lehtola, J. P. Misiewicz, M. Scheurer,
    R. A. Shaw, J. B. Schriber, Y. Xie, Z. L. Glick, D. A. Sirianni,
    J. S. O'Brien, J. M. Waldrop, A. Kumar, E. G. Hohenstein,
    B. P. Pritchard, B. R. Brooks, H. F. Schaefer III, A. Yu. Sokolov,
    K. Patkowski, A. E. DePrince III, U. Bozkaya, R. A. King,
    F. A. Evangelista, J. M. Turney, T. D. Crawford, C. D. Sherrill,
    J. Chem. Phys. 152(18) 184108 (2020). https://doi.org/10.1063/5.0006002

                            Additional Code Authors
    E. T. Seidl, C. L. Janssen, E. F. Valeev, M. L. Leininger,
    J. F. Gonthier, R. M. Richard, H. R. McAlexander, M. Saitow, X. Wang,
    P. Verma, M. H. Lechner, A. Jiang, S. Behnle, A. G. Heide,
    M. F. Herbst, and D. L. Poole

             Previous Authors, Complete List of Code Contributors,
                       and Citations for Specific Modules
    https://github.com/psi4/psi4/blob/master/codemeta.json
    https://github.com/psi4/psi4/graphs/contributors
    http://psicode.org/psi4manual/master/introduction.html#citing-psifour

    -----------------------------------------------------------------------


    Psi4 started on: Monday, 22 January 2024 05:37AM

    Process ID: 34236
    Host:       ddmfs1
    PSIDATADIR: /ddmfs1b/softs/psi4conda/share/psi4
    Memory:     55.9 GiB
    Threads:    20
    
  ==> Input QCSchema <==

--------------------------------------------------------------------------
{'driver': 'energy',
 'extras': {'psiapi': True, 'wfn_qcvars_only': True},
 'id': None,
 'keywords': {'SCF_TYPE': 'DF', 'function_kwargs': {}},
 'model': {'basis': 'aug-cc-pvtz', 'method': 'mp2'},
 'molecule': {'atom_labels': ['', '', '', '', ''],
              'atomic_numbers': [8, 1, 1, 35, 35],
              'extras': {},
              'fix_com': True,
              'fix_orientation': True,
              'fix_symmetry': 'c1',
              'fragment_charges': [0.0, 0.0, -1.0],
              'fragment_multiplicities': [1, 1, 1],
              'fragments': [[0, 1, 2], [3], [4]],
              'geometry': [0.0, 0.0, 0.0, 1.1121756344246994, 1.4303677194292883, 0.0, 1.1121756344246994,
                           -1.4303677194292883, 0.0, 5.836687479586318, 5.836687479586318, 0.0, 5.836687479586318,
                           -5.836687479586318, 0.0],
              'mass_numbers': [16, 1, 1, 79, 79],
              'masses': [15.99491461957, 1.00782503223, 1.00782503223, 78.9183376, 78.9183376],
              'molecular_charge': -1.0,
              'molecular_multiplicity': 1,
              'name': 'dimer',
              'provenance': {'creator': 'QCElemental',
                             'routine': 'qcelemental.molparse.from_string',
                             'version': '0.26.0'},
              'real': [True, True, True, False, True],
              'schema_name': 'qcschema_molecule',
              'schema_version': 2,
              'symbols': ['O', 'H', 'H', 'Br', 'Br'],
              'validated': True},
 'protocols': {'stdout': True},
 'provenance': {'creator': 'QCElemental', 'routine': 'qcelemental.models.results', 'version': '0.26.0'},
 'schema_name': 'qcschema_input',
 'schema_version': 1}
--------------------------------------------------------------------------

Scratch directory: /ddmfs1a/scratch/
   => Libint2 <=

    Primary   basis highest AM E, G, H:  5, 4, 3
    Auxiliary basis highest AM E, G, H:  6, 5, 4
    Onebody   basis highest AM E, G, H:  6, 5, 4
    Solid Harmonics ordering:            gaussian

*** tstart() called on ddmfs1
*** at Mon Jan 22 05:38:54 2024

   => Loading Basis Set <=

    Name: AUG-CC-PVTZ
    Role: ORBITAL
    Keyword: BASIS
    atoms 1   entry O          line   331 file /ddmfs1b/softs/psi4conda/share/psi4/basis/aug-cc-pvtz.gbs 
    atoms 2-3 entry H          line    40 file /ddmfs1b/softs/psi4conda/share/psi4/basis/aug-cc-pvtz.gbs 
    atoms 4-5 entry BR         line  4208 file /ddmfs1b/softs/psi4conda/share/psi4/basis/aug-cc-pvtz.gbs 


         ---------------------------------------------------------
                                   SCF
               by Justin Turney, Rob Parrish, Andy Simmonett
                          and Daniel G. A. Smith
                              RHF Reference
                       20 Threads,  57220 MiB Core
         ---------------------------------------------------------

  ==> Geometry <==

    Molecular point group: c1
    Full point group: Cs

    Geometry (in Bohr), charge = -1, multiplicity = 1:

       Center              X                  Y                   Z               Mass       
    ------------   -----------------  -----------------  -----------------  -----------------
         O            0.000000000000     0.000000000000     0.000000000000    15.994914619570
         H            1.112175634425     1.430367719429     0.000000000000     1.007825032230
         H            1.112175634425    -1.430367719429     0.000000000000     1.007825032230
      Gh(BR)          5.836687479586     5.836687479586     0.000000000000    78.918337600000
         BR           5.836687479586    -5.836687479586     0.000000000000    78.918337600000

  Running in c1 symmetry.

  Rotational constants: A =      0.01119  B =      0.01119  C =      0.00559 [cm^-1]
  Rotational constants: A =    335.48476  B =    335.38310  C =    167.71696 [MHz]
  Nuclear repulsion =   52.557370548740742

  Charge       = -1
  Multiplicity = 1
  Electrons    = 46
  Nalpha       = 23
  Nbeta        = 23

  ==> Algorithm <==

  SCF Algorithm Type is DF.
  DIIS enabled.
  MOM disabled.
  Fractional occupation disabled.
  Guess Type is SAD.
  Energy threshold   = 1.00e-08
  Density threshold  = 1.00e-08
  Integral threshold = 1.00e-12

  ==> Primary Basis <==

  Basis Set: AUG-CC-PVTZ
    Blend: AUG-CC-PVTZ
    Number of shells: 70
    Number of basis functions: 210
    Number of Cartesian functions: 243
    Spherical Harmonics?: true
    Max angular momentum: 3

   => Loading Basis Set <=

    Name: (AUG-CC-PVTZ AUX)
    Role: JKFIT
    Keyword: DF_BASIS_SCF
    atoms 1   entry O          line   286 file /ddmfs1b/softs/psi4conda/share/psi4/basis/aug-cc-pvtz-jkfit.gbs 
    atoms 2-3 entry H          line    70 file /ddmfs1b/softs/psi4conda/share/psi4/basis/aug-cc-pvtz-jkfit.gbs 
    atoms 4-5 entry BR         line  1492 file /ddmfs1b/softs/psi4conda/share/psi4/basis/aug-cc-pvtz-jkfit.gbs 

  ==> Integral Setup <==

  DFHelper Memory: AOs need 0.229 GiB; user supplied 41.910 GiB. 
  Using in-core AOs.

  ==> MemDFJK: Density-Fitted J/K Matrices <==

    J tasked:                   Yes
    K tasked:                   Yes
    wK tasked:                   No
    OpenMP threads:              20
    Memory [MiB]:             42915
    Algorithm:                 Core
    Schwarz Cutoff:           1E-12
    Mask sparsity (%):       7.6054
    Fitting Condition:        1E-10

   => Auxiliary Basis Set <=

  Basis Set: (AUG-CC-PVTZ AUX)
    Blend: AUG-CC-PVTZ-JKFIT
    Number of shells: 174
    Number of basis functions: 692
    Number of Cartesian functions: 899
    Spherical Harmonics?: true
    Max angular momentum: 4

  Minimum eigenvalue in the overlap matrix is 3.1345471307E-04.
  Reciprocal condition number of the overlap matrix is 4.3074919245E-05.
    Using symmetric orthogonalization.

  ==> Pre-Iterations <==

  SCF Guess: Superposition of Atomic Densities via on-the-fly atomic UHF (no occupation information).

   -------------------------
    Irrep   Nso     Nmo    
   -------------------------
     A        210     210 
   -------------------------
    Total     210     210
   -------------------------

  ==> Iterations <==

                           Total Energy        Delta E     RMS |[F,P]|

   @DF-RHF iter SAD: -2645.89671125747782   -2.64590e+03   0.00000e+00 
   @DF-RHF iter   1: -2648.25058040175236   -2.35387e+00   5.44797e-03 DIIS/ADIIS
   @DF-RHF iter   2: -2648.50848621511795   -2.57906e-01   3.12349e-03 DIIS/ADIIS
   @DF-RHF iter   3: -2648.60520527001609   -9.67191e-02   1.56335e-04 DIIS/ADIIS
   @DF-RHF iter   4: -2648.60568167941074   -4.76409e-04   8.19273e-05 DIIS
   @DF-RHF iter   5: -2648.60578808968376   -1.06410e-04   1.29684e-05 DIIS
   @DF-RHF iter   6: -2648.60579616499945   -8.07532e-06   2.53881e-06 DIIS
   @DF-RHF iter   7: -2648.60579655721949   -3.92220e-07   6.72575e-07 DIIS
   @DF-RHF iter   8: -2648.60579658329425   -2.60748e-08   1.65102e-07 DIIS
   @DF-RHF iter   9: -2648.60579658493407   -1.63982e-09   2.88343e-08 DIIS
   @DF-RHF iter  10: -2648.60579658497136   -3.72893e-11   8.52877e-09 DIIS
  Energy and wave function converged.


  ==> Post-Iterations <==

    Orbital Energies [Eh]
    ---------------------

    Doubly Occupied:                                                      

       1A   -489.732555     2A    -64.872637     3A    -58.227127  
       4A    -58.227101     5A    -58.227099     6A    -20.438904  
       7A     -9.545013     8A     -7.152461     9A     -7.152315  
      10A     -7.152303    11A     -2.894152    12A     -2.894099  
      13A     -2.894083    14A     -2.893895    15A     -2.893894  
      16A     -1.224911    17A     -0.698459    18A     -0.588394  
      19A     -0.459885    20A     -0.383592    21A     -0.153068  
      22A     -0.151292    23A     -0.151206  

    Virtual:                                                              

      24A      0.110680    25A      0.145876    26A      0.153643  
      27A      0.160899    28A      0.178692    29A      0.184438  
      30A      0.242418    31A      0.246056    32A      0.259695  
      33A      0.272566    34A      0.273929    35A      0.283812  
      36A      0.315364    37A      0.332738    38A      0.360741  
      39A      0.365191    40A      0.369764    41A      0.397408  
      42A      0.400124    43A      0.405871    44A      0.406647  
      45A      0.413216    46A      0.424368    47A      0.435781  
      48A      0.450113    49A      0.463472    50A      0.481463  
      51A      0.491893    52A      0.495837    53A      0.518537  
      54A      0.538333    55A      0.560565    56A      0.582376  
      57A      0.597235    58A      0.659199    59A      0.687825  
      60A      0.734049    61A      0.746795    62A      0.782544  
      63A      0.829602    64A      0.834220    65A      0.854951  
      66A      0.881689    67A      0.888349    68A      0.941698  
      69A      0.974880    70A      0.977278    71A      1.009310  
      72A      1.011472    73A      1.022071    74A      1.024573  
      75A      1.025506    76A      1.035587    77A      1.048062  
      78A      1.062975    79A      1.063730    80A      1.069223  
      81A      1.076716    82A      1.082771    83A      1.095404  
      84A      1.119385    85A      1.122999    86A      1.128975  
      87A      1.135103    88A      1.136081    89A      1.137879  
      90A      1.145056    91A      1.156963    92A      1.185428  
      93A      1.191985    94A      1.195506    95A      1.197168  
      96A      1.198747    97A      1.199554    98A      1.200944  
      99A      1.208181   100A      1.216192   101A      1.238589  
     102A      1.253406   103A      1.268367   104A      1.311033  
     105A      1.325707   106A      1.345405   107A      1.380749  
     108A      1.397197   109A      1.437665   110A      1.475075  
     111A      1.492993   112A      1.655671   113A      1.713959  
     114A      1.726090   115A      1.955536   116A      1.981418  
     117A      2.248923   118A      2.340085   119A      2.383202  
     120A      2.409288   121A      2.409848   122A      2.440146  
     123A      2.466235   124A      2.472038   125A      2.539497  
     126A      2.554153   127A      2.558655   128A      2.561444  
     129A      2.562377   130A      2.563006   131A      2.574357  
     132A      2.574562   133A      2.577696   134A      2.582950  
     135A      2.608363   136A      2.628273   137A      2.634172  
     138A      2.659920   139A      2.703922   140A      2.787593  
     141A      2.842099   142A      2.846230   143A      2.924762  
     144A      2.940223   145A      2.946666   146A      2.969947  
     147A      2.984724   148A      3.024096   149A      3.052290  
     150A      3.201009   151A      3.201100   152A      3.202889  
     153A      3.204443   154A      3.236255   155A      3.265503  
     156A      3.369014   157A      3.371436   158A      3.387587  
     159A      3.394659   160A      3.398009   161A      3.448443  
     162A      3.813305   163A      3.898997   164A      3.938183  
     165A      4.155582   166A      4.250256   167A      4.311176  
     168A      4.412671   169A      4.422429   170A      4.514995  
     171A      4.539788   172A      4.544270   173A      4.702161  
     174A      4.914406   175A      5.057343   176A      5.289578  
     177A      5.308843   178A      5.438644   179A      5.486048  
     180A      5.659378   181A      5.812459   182A      6.321600  
     183A      6.661830   184A      6.844355   185A      7.052792  
     186A      7.268493   187A      7.393105   188A      7.450211  
     189A      7.458355   190A      7.475020   191A      7.502728  
     192A      7.776121   193A      8.040593   194A      8.124178  
     195A      8.967039   196A      9.363353   197A     13.528104  
     198A     13.535616   199A     13.603346   200A     16.214261  
     201A     26.211752   202A     26.214126   203A     26.227599  
     204A     26.237364   205A     26.277264   206A     45.346885  
     207A    138.475162   208A    138.486755   209A    138.592021  
     210A    708.138609  

    Final Occupation by Irrep:
              A 
    DOCC [    23 ]
    NA   [    23 ]
    NB   [    23 ]

  @DF-RHF Final Energy: -2648.60579658497136

   => Energetics <=

    Nuclear Repulsion Energy =             52.5573705487407423
    One-Electron Energy =               -3804.3094416721769448
    Two-Electron Energy =                1103.1462745384651498
    Total Energy =                      -2648.6057965849709035

Computation Completed


Properties will be evaluated at   0.000000,   0.000000,   0.000000 [a0]

Properties computed using the SCF density matrix


 Multipole Moments:

 ------------------------------------------------------------------------------------
     Multipole            Electronic (a.u.)      Nuclear  (a.u.)        Total (a.u.)
 ------------------------------------------------------------------------------------

 L = 1.  Multiply by 2.5417464519 to convert [e a0] to [Debye]
 Dipole X            :       -211.3938824          206.5084131           -4.8854693
 Dipole Y            :        209.9091785         -204.2840618            5.6251167
 Dipole Z            :         -0.0000000            0.0000000           -0.0000000
 Magnitude           :                                                    7.4504864

 ------------------------------------------------------------------------------------

*** tstop() called on ddmfs1 at Mon Jan 22 05:39:00 2024
Module time:
	user time   =      45.28 seconds =       0.75 minutes
	system time =       6.31 seconds =       0.11 minutes
	total time  =          6 seconds =       0.10 minutes
Total time:
	user time   =     247.12 seconds =       4.12 minutes
	system time =      27.47 seconds =       0.46 minutes
	total time  =         73 seconds =       1.22 minutes

*** tstart() called on ddmfs1
*** at Mon Jan 22 05:39:00 2024


  //>>>>>>>>>>>>>>>>>>>>>>>>>>>>>>>>>>>//
  //               DFMP2               //
  //<<<<<<<<<<<<<<<<<<<<<<<<<<<<<<<<<<<//

   => Loading Basis Set <=

    Name: (AUG-CC-PVTZ AUX)
    Role: RIFIT
    Keyword: DF_BASIS_MP2
    atoms 1   entry O          line   264 file /ddmfs1b/softs/psi4conda/share/psi4/basis/aug-cc-pvtz-ri.gbs 
    atoms 2-3 entry H          line    30 file /ddmfs1b/softs/psi4conda/share/psi4/basis/aug-cc-pvtz-ri.gbs 
    atoms 4-5 entry BR         line  1248 file /ddmfs1b/softs/psi4conda/share/psi4/basis/aug-cc-pvtz-ri.gbs 

	 --------------------------------------------------------
	                          DF-MP2                         
	      2nd-Order Density-Fitted Moller-Plesset Theory     
	              RMP2 Wavefunction,  20 Threads             
	                                                         
	        Rob Parrish, Justin Turney, Andy Simmonett,      
	           Ed Hohenstein, and C. David Sherrill          
	 --------------------------------------------------------

   => Auxiliary Basis Set <=

  Basis Set: (AUG-CC-PVTZ AUX)
    Blend: AUG-CC-PVTZ-RI
    Number of shells: 142
    Number of basis functions: 580
    Number of Cartesian functions: 768
    Spherical Harmonics?: true
    Max angular momentum: 5

	 --------------------------------------------------------
	                 NBF =   210, NAUX =   580
	 --------------------------------------------------------
	   CLASS    FOCC     OCC    AOCC    AVIR     VIR    FVIR
	   PAIRS       0      23      23     187     187       0
	 --------------------------------------------------------

	-----------------------------------------------------------
	 ==================> DF-MP2 Energies <==================== 
	-----------------------------------------------------------
	 Reference Energy          =   -2648.6057965849713582 [Eh]
	 Singles Energy            =      -0.0000000000000000 [Eh]
	 Same-Spin Energy          =      -0.1557849297798686 [Eh]
	 Opposite-Spin Energy      =      -0.4172601847082583 [Eh]
	 Correlation Energy        =      -0.5730451144881268 [Eh]
	 Total Energy              =   -2649.1788416994595536 [Eh]
	-----------------------------------------------------------
	 ================> DF-SCS-MP2 Energies <================== 
	-----------------------------------------------------------
	 SCS Same-Spin Scale       =       0.3333333333333333 [-]
	 SCS Opposite-Spin Scale   =       1.2000000000000000 [-]
	 SCS Same-Spin Energy      =      -0.0519283099266229 [Eh]
	 SCS Opposite-Spin Energy  =      -0.5007122216499099 [Eh]
	 SCS Correlation Energy    =      -0.5526405315765328 [Eh]
	 SCS Total Energy          =   -2649.1584371165477023 [Eh]
	-----------------------------------------------------------


*** tstop() called on ddmfs1 at Mon Jan 22 05:39:16 2024
Module time:
	user time   =      26.33 seconds =       0.44 minutes
	system time =       1.48 seconds =       0.02 minutes
	total time  =         16 seconds =       0.27 minutes
Total time:
	user time   =     273.47 seconds =       4.56 minutes
	system time =      28.95 seconds =       0.48 minutes
	total time  =         89 seconds =       1.48 minutes

    Psi4 stopped on: Monday, 22 January 2024 05:39AM
    Psi4 wall time for execution: 0:00:22.52


    -----------------------------------------------------------------------
          Psi4: An Open-Source Ab Initio Electronic Structure Package
                               Psi4 1.8.2 release

                         Git: Rev {} zzzzzzz 


    D. G. A. Smith, L. A. Burns, A. C. Simmonett, R. M. Parrish,
    M. C. Schieber, R. Galvelis, P. Kraus, H. Kruse, R. Di Remigio,
    A. Alenaizan, A. M. James, S. Lehtola, J. P. Misiewicz, M. Scheurer,
    R. A. Shaw, J. B. Schriber, Y. Xie, Z. L. Glick, D. A. Sirianni,
    J. S. O'Brien, J. M. Waldrop, A. Kumar, E. G. Hohenstein,
    B. P. Pritchard, B. R. Brooks, H. F. Schaefer III, A. Yu. Sokolov,
    K. Patkowski, A. E. DePrince III, U. Bozkaya, R. A. King,
    F. A. Evangelista, J. M. Turney, T. D. Crawford, C. D. Sherrill,
    J. Chem. Phys. 152(18) 184108 (2020). https://doi.org/10.1063/5.0006002

                            Additional Code Authors
    E. T. Seidl, C. L. Janssen, E. F. Valeev, M. L. Leininger,
    J. F. Gonthier, R. M. Richard, H. R. McAlexander, M. Saitow, X. Wang,
    P. Verma, M. H. Lechner, A. Jiang, S. Behnle, A. G. Heide,
    M. F. Herbst, and D. L. Poole

             Previous Authors, Complete List of Code Contributors,
                       and Citations for Specific Modules
[...]
          Psi4: An Open-Source Ab Initio Electronic Structure Package
                               Psi4 1.8.2 release

                         Git: Rev {} zzzzzzz 


    D. G. A. Smith, L. A. Burns, A. C. Simmonett, R. M. Parrish,
    M. C. Schieber, R. Galvelis, P. Kraus, H. Kruse, R. Di Remigio,
    A. Alenaizan, A. M. James, S. Lehtola, J. P. Misiewicz, M. Scheurer,
    R. A. Shaw, J. B. Schriber, Y. Xie, Z. L. Glick, D. A. Sirianni,
    J. S. O'Brien, J. M. Waldrop, A. Kumar, E. G. Hohenstein,
    B. P. Pritchard, B. R. Brooks, H. F. Schaefer III, A. Yu. Sokolov,
    K. Patkowski, A. E. DePrince III, U. Bozkaya, R. A. King,
    F. A. Evangelista, J. M. Turney, T. D. Crawford, C. D. Sherrill,
    J. Chem. Phys. 152(18) 184108 (2020). https://doi.org/10.1063/5.0006002

                            Additional Code Authors
    E. T. Seidl, C. L. Janssen, E. F. Valeev, M. L. Leininger,
    J. F. Gonthier, R. M. Richard, H. R. McAlexander, M. Saitow, X. Wang,
    P. Verma, M. H. Lechner, A. Jiang, S. Behnle, A. G. Heide,
    M. F. Herbst, and D. L. Poole

             Previous Authors, Complete List of Code Contributors,
                       and Citations for Specific Modules
    https://github.com/psi4/psi4/blob/master/codemeta.json
    https://github.com/psi4/psi4/graphs/contributors
    http://psicode.org/psi4manual/master/introduction.html#citing-psifour

    -----------------------------------------------------------------------


    Psi4 started on: Monday, 22 January 2024 05:37AM

    Process ID: 34236
    Host:       ddmfs1
    PSIDATADIR: /ddmfs1b/softs/psi4conda/share/psi4
    Memory:     55.9 GiB
    Threads:    20
    
  ==> Input QCSchema <==

--------------------------------------------------------------------------
{'driver': 'energy',
 'extras': {'psiapi': True, 'wfn_qcvars_only': True},
 'id': None,
 'keywords': {'SCF_TYPE': 'DF', 'function_kwargs': {}},
 'model': {'basis': 'aug-cc-pvtz', 'method': 'mp2'},
 'molecule': {'atom_labels': ['', '', '', '', ''],
              'atomic_numbers': [8, 1, 1, 35, 35],
              'extras': {},
              'fix_com': True,
              'fix_orientation': True,
              'fix_symmetry': 'c1',
              'fragment_charges': [0.0, -1.0, -1.0],
              'fragment_multiplicities': [1, 1, 1],
              'fragments': [[0, 1, 2], [3], [4]],
              'geometry': [0.0, 0.0, 0.0, 1.1121756344246994, 1.4303677194292883, 0.0, 1.1121756344246994,
                           -1.4303677194292883, 0.0, 5.836687479586318, 5.836687479586318, 0.0, 5.836687479586318,
                           -5.836687479586318, 0.0],
              'mass_numbers': [16, 1, 1, 79, 79],
              'masses': [15.99491461957, 1.00782503223, 1.00782503223, 78.9183376, 78.9183376],
              'molecular_charge': -2.0,
              'molecular_multiplicity': 1,
              'name': 'dimer',
              'provenance': {'creator': 'QCElemental',
                             'routine': 'qcelemental.molparse.from_string',
                             'version': '0.26.0'},
              'real': [True, True, True, True, True],
              'schema_name': 'qcschema_molecule',
              'schema_version': 2,
              'symbols': ['O', 'H', 'H', 'Br', 'Br'],
              'validated': True},
 'protocols': {'stdout': True},
 'provenance': {'creator': 'QCElemental', 'routine': 'qcelemental.models.results', 'version': '0.26.0'},
 'schema_name': 'qcschema_input',
 'schema_version': 1}
--------------------------------------------------------------------------

Scratch directory: /ddmfs1a/scratch/
   => Libint2 <=

    Primary   basis highest AM E, G, H:  5, 4, 3
    Auxiliary basis highest AM E, G, H:  6, 5, 4
    Onebody   basis highest AM E, G, H:  6, 5, 4
    Solid Harmonics ordering:            gaussian

*** tstart() called on ddmfs1
*** at Mon Jan 22 05:40:01 2024

   => Loading Basis Set <=

    Name: AUG-CC-PVTZ
    Role: ORBITAL
    Keyword: BASIS
    atoms 1   entry O          line   331 file /ddmfs1b/softs/psi4conda/share/psi4/basis/aug-cc-pvtz.gbs 
    atoms 2-3 entry H          line    40 file /ddmfs1b/softs/psi4conda/share/psi4/basis/aug-cc-pvtz.gbs 
    atoms 4-5 entry BR         line  4208 file /ddmfs1b/softs/psi4conda/share/psi4/basis/aug-cc-pvtz.gbs 


         ---------------------------------------------------------
                                   SCF
               by Justin Turney, Rob Parrish, Andy Simmonett
                          and Daniel G. A. Smith
                              RHF Reference
                       20 Threads,  57220 MiB Core
         ---------------------------------------------------------

  ==> Geometry <==

    Molecular point group: c1
    Full point group: C2v

    Geometry (in Bohr), charge = -2, multiplicity = 1:

       Center              X                  Y                   Z               Mass       
    ------------   -----------------  -----------------  -----------------  -----------------
         O            0.000000000000     0.000000000000     0.000000000000    15.994914619570
         H            1.112175634425     1.430367719429     0.000000000000     1.007825032230
         H            1.112175634425    -1.430367719429     0.000000000000     1.007825032230
         BR           5.836687479586     5.836687479586     0.000000000000    78.918337600000
         BR           5.836687479586    -5.836687479586     0.000000000000    78.918337600000

  Running in c1 symmetry.

  Rotational constants: A =      0.01119  B =      0.01119  C =      0.00559 [cm^-1]
  Rotational constants: A =    335.48476  B =    335.38310  C =    167.71696 [MHz]
  Nuclear repulsion =  200.874203312253485

  Charge       = -2
  Multiplicity = 1
  Electrons    = 82
  Nalpha       = 41
  Nbeta        = 41

  ==> Algorithm <==

  SCF Algorithm Type is DF.
  DIIS enabled.
  MOM disabled.
  Fractional occupation disabled.
  Guess Type is SAD.
  Energy threshold   = 1.00e-08
  Density threshold  = 1.00e-08
  Integral threshold = 1.00e-12

  ==> Primary Basis <==

  Basis Set: AUG-CC-PVTZ
    Blend: AUG-CC-PVTZ
    Number of shells: 70
    Number of basis functions: 210
    Number of Cartesian functions: 243
    Spherical Harmonics?: true
    Max angular momentum: 3

   => Loading Basis Set <=

    Name: (AUG-CC-PVTZ AUX)
    Role: JKFIT
    Keyword: DF_BASIS_SCF
    atoms 1   entry O          line   286 file /ddmfs1b/softs/psi4conda/share/psi4/basis/aug-cc-pvtz-jkfit.gbs 
    atoms 2-3 entry H          line    70 file /ddmfs1b/softs/psi4conda/share/psi4/basis/aug-cc-pvtz-jkfit.gbs 
    atoms 4-5 entry BR         line  1492 file /ddmfs1b/softs/psi4conda/share/psi4/basis/aug-cc-pvtz-jkfit.gbs 

  ==> Integral Setup <==

  DFHelper Memory: AOs need 0.229 GiB; user supplied 41.910 GiB. 
  Using in-core AOs.

  ==> MemDFJK: Density-Fitted J/K Matrices <==

    J tasked:                   Yes
    K tasked:                   Yes
    wK tasked:                   No
    OpenMP threads:              20
    Memory [MiB]:             42915
    Algorithm:                 Core
    Schwarz Cutoff:           1E-12
    Mask sparsity (%):       7.6054
    Fitting Condition:        1E-10

   => Auxiliary Basis Set <=

  Basis Set: (AUG-CC-PVTZ AUX)
    Blend: AUG-CC-PVTZ-JKFIT
    Number of shells: 174
    Number of basis functions: 692
    Number of Cartesian functions: 899
    Spherical Harmonics?: true
    Max angular momentum: 4

  Minimum eigenvalue in the overlap matrix is 3.1345471307E-04.
  Reciprocal condition number of the overlap matrix is 4.3074919245E-05.
    Using symmetric orthogonalization.

  ==> Pre-Iterations <==

  SCF Guess: Superposition of Atomic Densities via on-the-fly atomic UHF (no occupation information).

   -------------------------
    Irrep   Nso     Nmo    
   -------------------------
     A        210     210 
   -------------------------
    Total     210     210
   -------------------------

  ==> Iterations <==

                           Total Energy        Delta E     RMS |[F,P]|

   @DF-RHF iter SAD: -5216.31691335577034   -5.21632e+03   0.00000e+00 
   @DF-RHF iter   1: -5220.43889179458347   -4.12198e+00   7.37407e-03 DIIS/ADIIS
   @DF-RHF iter   2: -5220.90278571834551   -4.63894e-01   4.14910e-03 DIIS/ADIIS
   @DF-RHF iter   3: -5221.06505252535499   -1.62267e-01   1.62672e-04 DIIS/ADIIS
   @DF-RHF iter   4: -5221.06554842562400   -4.95900e-04   8.48037e-05 DIIS
   @DF-RHF iter   5: -5221.06565562257310   -1.07197e-04   1.35678e-05 DIIS
   @DF-RHF iter   6: -5221.06566416627174   -8.54370e-06   2.49859e-06 DIIS
   @DF-RHF iter   7: -5221.06566454770200   -3.81430e-07   6.45342e-07 DIIS
   @DF-RHF iter   8: -5221.06566457182635   -2.41243e-08   1.83822e-07 DIIS
   @DF-RHF iter   9: -5221.06566457431745   -2.49111e-09   3.22548e-08 DIIS
   @DF-RHF iter  10: -5221.06566457436747   -5.00222e-11   8.50595e-09 DIIS
  Energy and wave function converged.


  ==> Post-Iterations <==

    Orbital Energies [Eh]
    ---------------------

    Doubly Occupied:                                                      

       1A   -489.648381     2A   -489.648381     3A    -64.788438  
       4A    -64.788438     5A    -58.142925     6A    -58.142925  
       7A    -58.142910     8A    -58.142910     9A    -58.142897  
      10A    -58.142897    11A    -20.317077    12A     -9.460786  
      13A     -9.460786    14A     -7.068212    15A     -7.068212  
      16A     -7.068125    17A     -7.068125    18A     -7.068046  
      19A     -7.068046    20A     -2.809913    21A     -2.809913  
      22A     -2.809898    23A     -2.809898    24A     -2.809802  
      25A     -2.809802    26A     -2.809689    27A     -2.809689  
      28A     -2.809676    29A     -2.809676    30A     -1.103612  
      31A     -0.614087    32A     -0.614054    33A     -0.467095  
      34A     -0.340957    35A     -0.263471    36A     -0.069003  
      37A     -0.068169    38A     -0.067360    39A     -0.067251  
      40A     -0.067074    41A     -0.065604  

    Virtual:                                                              

      42A      0.237871    43A      0.247481    44A      0.313281  
      45A      0.315301    46A      0.316347    47A      0.331492  
      48A      0.335024    49A      0.346737    50A      0.363234  
      51A      0.371219    52A      0.404641    53A      0.408717  
      54A      0.426762    55A      0.430228    56A      0.493503  
      57A      0.508352    58A      0.522696    59A      0.532539  
      60A      0.548983    61A      0.561421    62A      0.562161  
      63A      0.566262    64A      0.571587    65A      0.604493  
      66A      0.626597    67A      0.626620    68A      0.629596  
      69A      0.665549    70A      0.671309    71A      0.697650  
      72A      0.761049    73A      0.773237    74A      0.816123  
      75A      0.818124    76A      0.829168    77A      0.836457  
      78A      0.858817    79A      0.900588    80A      0.939267  
      81A      0.956201    82A      0.969523    83A      1.000045  
      84A      1.007487    85A      1.031489    86A      1.072029  
      87A      1.085381    88A      1.097314    89A      1.104813  
      90A      1.108579    91A      1.109789    92A      1.112299  
      93A      1.115394    94A      1.115501    95A      1.131251  
      96A      1.133153    97A      1.139885    98A      1.159222  
      99A      1.159363   100A      1.184226   101A      1.192086  
     102A      1.193021   103A      1.228694   104A      1.245358  
     105A      1.253812   106A      1.268412   107A      1.275462  
     108A      1.279466   109A      1.283239   110A      1.283653  
     111A      1.284023   112A      1.284441   113A      1.288168  
     114A      1.294729   115A      1.308924   116A      1.337580  
     117A      1.350402   118A      1.369739   119A      1.449430  
     120A      1.454878   121A      1.504224   122A      1.504716  
     123A      1.542905   124A      1.582961   125A      1.600324  
     126A      1.778962   127A      1.833838   128A      1.846798  
     129A      2.071082   130A      2.105288   131A      2.347717  
     132A      2.433853   133A      2.473849   134A      2.482979  
     135A      2.490954   136A      2.495721   137A      2.517059  
     138A      2.529926   139A      2.532533   140A      2.566199  
     141A      2.581463   142A      2.628837   143A      2.631857  
     144A      2.638589   145A      2.641725   146A      2.642984  
     147A      2.644023   148A      2.645521   149A      2.647281  
     150A      2.650851   151A      2.655714   152A      2.658374  
     153A      2.658432   154A      2.658484   155A      2.658548  
     156A      2.660342   157A      2.660745   158A      2.672468  
     159A      2.675267   160A      2.702766   161A      2.705316  
     162A      2.715718   163A      2.723396   164A      2.738042  
     165A      2.761674   166A      2.806197   167A      2.812099  
     168A      2.874825   169A      2.887525   170A      2.965142  
     171A      2.971628   172A      3.090289   173A      3.114791  
     174A      3.153225   175A      3.937086   176A      3.972216  
     177A      4.027946   178A      4.062625   179A      4.280741  
     180A      4.372001   181A      4.436077   182A      4.538277  
     183A      4.546137   184A      4.640021   185A      4.666047  
     186A      4.667035   187A      4.825950   188A      5.036910  
     189A      5.184227   190A      5.412758   191A      5.435758  
     192A      5.560874   193A      5.609831   194A      5.781952  
     195A      5.934111   196A      6.443126   197A      6.781755  
     198A      6.964459   199A      7.174021   200A      7.388325  
     201A      7.513637   202A      7.571671   203A      7.578811  
     204A      7.595495   205A      7.623436   206A      7.901360  
     207A      8.161523   208A      8.247152   209A      9.089625  
     210A     16.335302  

    Final Occupation by Irrep:
              A 
    DOCC [    41 ]
    NA   [    41 ]
    NB   [    41 ]

  @DF-RHF Final Energy: -5221.06566457436747

   => Energetics <=

    Nuclear Repulsion Energy =            200.8742033122534849
    One-Electron Energy =               -7701.3113041970309496
    Two-Electron Energy =                2279.3714363104099903
    Total Energy =                      -5221.0656645743674744

Computation Completed


Properties will be evaluated at   0.000000,   0.000000,   0.000000 [a0]

Properties computed using the SCF density matrix


 Multipole Moments:

 ------------------------------------------------------------------------------------
     Multipole            Electronic (a.u.)      Nuclear  (a.u.)        Total (a.u.)
 ------------------------------------------------------------------------------------

 L = 1.  Multiply by 2.5417464519 to convert [e a0] to [Debye]
 Dipole X            :       -421.3906546          410.7924748          -10.5981798
 Dipole Y            :         -0.0000000            0.0000000           -0.0000000
 Dipole Z            :          0.0000000            0.0000000            0.0000000
 Magnitude           :                                                   10.5981798

 ------------------------------------------------------------------------------------

*** tstop() called on ddmfs1 at Mon Jan 22 05:40:07 2024
Module time:
	user time   =      45.60 seconds =       0.76 minutes
	system time =       6.01 seconds =       0.10 minutes
	total time  =          6 seconds =       0.10 minutes
Total time:
	user time   =     462.11 seconds =       7.70 minutes
	system time =      50.10 seconds =       0.84 minutes
	total time  =        140 seconds =       2.33 minutes

*** tstart() called on ddmfs1
*** at Mon Jan 22 05:40:07 2024


  //>>>>>>>>>>>>>>>>>>>>>>>>>>>>>>>>>>>//
  //               DFMP2               //
  //<<<<<<<<<<<<<<<<<<<<<<<<<<<<<<<<<<<//

   => Loading Basis Set <=

    Name: (AUG-CC-PVTZ AUX)
    Role: RIFIT
    Keyword: DF_BASIS_MP2
    atoms 1   entry O          line   264 file /ddmfs1b/softs/psi4conda/share/psi4/basis/aug-cc-pvtz-ri.gbs 
    atoms 2-3 entry H          line    30 file /ddmfs1b/softs/psi4conda/share/psi4/basis/aug-cc-pvtz-ri.gbs 
    atoms 4-5 entry BR         line  1248 file /ddmfs1b/softs/psi4conda/share/psi4/basis/aug-cc-pvtz-ri.gbs 

	 --------------------------------------------------------
	                          DF-MP2                         
	      2nd-Order Density-Fitted Moller-Plesset Theory     
	              RMP2 Wavefunction,  20 Threads             
	                                                         
	        Rob Parrish, Justin Turney, Andy Simmonett,      
	           Ed Hohenstein, and C. David Sherrill          
	 --------------------------------------------------------

   => Auxiliary Basis Set <=

  Basis Set: (AUG-CC-PVTZ AUX)
    Blend: AUG-CC-PVTZ-RI
    Number of shells: 142
    Number of basis functions: 580
    Number of Cartesian functions: 768
    Spherical Harmonics?: true
    Max angular momentum: 5

	 --------------------------------------------------------
	                 NBF =   210, NAUX =   580
	 --------------------------------------------------------
	   CLASS    FOCC     OCC    AOCC    AVIR     VIR    FVIR
	   PAIRS       0      41      41     169     169       0
	 --------------------------------------------------------

	-----------------------------------------------------------
	 ==================> DF-MP2 Energies <==================== 
	-----------------------------------------------------------
	 Reference Energy          =   -5221.0656645743674744 [Eh]
	 Singles Energy            =      -0.0000000000000000 [Eh]
	 Same-Spin Energy          =      -0.2432720203259083 [Eh]
	 Opposite-Spin Energy      =      -0.6192064218986911 [Eh]
	 Correlation Energy        =      -0.8624784422245994 [Eh]
	 Total Energy              =   -5221.9281430165920028 [Eh]
	-----------------------------------------------------------
	 ================> DF-SCS-MP2 Energies <================== 
	-----------------------------------------------------------
	 SCS Same-Spin Scale       =       0.3333333333333333 [-]
	 SCS Opposite-Spin Scale   =       1.2000000000000000 [-]
	 SCS Same-Spin Energy      =      -0.0810906734419694 [Eh]
	 SCS Opposite-Spin Energy  =      -0.7430477062784293 [Eh]
	 SCS Correlation Energy    =      -0.8241383797203987 [Eh]
	 SCS Total Energy          =   -5221.8898029540878269 [Eh]
	-----------------------------------------------------------


*** tstop() called on ddmfs1 at Mon Jan 22 05:40:23 2024
Module time:
	user time   =      27.31 seconds =       0.46 minutes
	system time =       1.30 seconds =       0.02 minutes
	total time  =         16 seconds =       0.27 minutes
Total time:
	user time   =     489.44 seconds =       8.16 minutes
	system time =      51.40 seconds =       0.86 minutes
	total time  =        156 seconds =       2.60 minutes

    Psi4 stopped on: Monday, 22 January 2024 05:40AM
    Psi4 wall time for execution: 0:00:22.33


  //>>>>>>>>>>>>>>>>>>>>>>>>>>>>>>>>>>>//
  //          ManyBody Results         //
  //<<<<<<<<<<<<<<<<<<<<<<<<<<<<<<<<<<<//


   ==> N-Body: Counterpoise Corrected (CP) energies <==

        n-Body     Total Energy            Interaction Energy                          N-body Contribution to Interaction Energy
                   [Eh]                    [Eh]                  [kcal/mol]            [Eh]                  [kcal/mol]
             1  N/A                         0.000000000000        0.000000000000        0.000000000000        0.000000000000
             2  N/A                         0.058788788887       36.890521978429        0.058788788887       36.890521978429
  FULL/RTN   3  N/A                         0.060845115921       38.180886673224        0.002056327034        1.290364694795


    Psi4 stopped on: Monday, 22 January 2024 05:40AM
    Psi4 wall time for execution: 0:02:38.91

*** Psi4 exiting successfully. Buy a developer a beer!
