
    -----------------------------------------------------------------------
          Psi4: An Open-Source Ab Initio Electronic Structure Package
                               Psi4 1.8.2 release

                         Git: Rev {} zzzzzzz 


    D. G. A. Smith, L. A. Burns, A. C. Simmonett, R. M. Parrish,
    M. C. Schieber, R. Galvelis, P. Kraus, H. Kruse, R. Di Remigio,
    A. Alenaizan, A. M. James, S. Lehtola, J. P. Misiewicz, M. Scheurer,
    R. A. Shaw, J. B. Schriber, Y. Xie, Z. L. Glick, D. A. Sirianni,
    J. S. O'Brien, J. M. Waldrop, A. Kumar, E. G. Hohenstein,
    B. P. Pritchard, B. R. Brooks, H. F. Schaefer III, A. Yu. Sokolov,
    K. Patkowski, A. E. DePrince III, U. Bozkaya, R. A. King,
    F. A. Evangelista, J. M. Turney, T. D. Crawford, C. D. Sherrill,
    J. Chem. Phys. 152(18) 184108 (2020). https://doi.org/10.1063/5.0006002

                            Additional Code Authors
    E. T. Seidl, C. L. Janssen, E. F. Valeev, M. L. Leininger,
    J. F. Gonthier, R. M. Richard, H. R. McAlexander, M. Saitow, X. Wang,
    P. Verma, M. H. Lechner, A. Jiang, S. Behnle, A. G. Heide,
    M. F. Herbst, and D. L. Poole

             Previous Authors, Complete List of Code Contributors,
                       and Citations for Specific Modules
    https://github.com/psi4/psi4/blob/master/codemeta.json
    https://github.com/psi4/psi4/graphs/contributors
    http://psicode.org/psi4manual/master/introduction.html#citing-psifour

    -----------------------------------------------------------------------


    Psi4 started on: Monday, 22 January 2024 12:45PM

    Process ID: 50691
    Host:       ddmfs1
    PSIDATADIR: /ddmfs1b/softs/psi4conda/share/psi4
    Memory:     500.0 MiB
    Threads:    20
    
  ==> Input File <==

--------------------------------------------------------------------------
MEMORY 60 GB

molecule dimer {
0 1
O          0.000000     0.000000     0.000000
H          0.588538     0.756918     0.000000
H          0.588538    -0.756918     0.000000
Gh(Br)     3.326230     3.326230     0.000000
Gh(Br)     3.326230    -3.326230     0.000000

units ang
no_reorient
no_com
symmetry c1
}

set {
basis        aug-cc-pVTZ
scf_type     df
}

energy("mp2")
--------------------------------------------------------------------------

  Memory set to  55.879 GiB by Python driver.

Scratch directory: /ddmfs1a/scratch/
   => Libint2 <=

    Primary   basis highest AM E, G, H:  5, 4, 3
    Auxiliary basis highest AM E, G, H:  6, 5, 4
    Onebody   basis highest AM E, G, H:  6, 5, 4
    Solid Harmonics ordering:            gaussian

*** tstart() called on ddmfs1
*** at Mon Jan 22 12:45:31 2024

   => Loading Basis Set <=

    Name: AUG-CC-PVTZ
    Role: ORBITAL
    Keyword: BASIS
    atoms 1   entry O          line   331 file /ddmfs1b/softs/psi4conda/share/psi4/basis/aug-cc-pvtz.gbs 
    atoms 2-3 entry H          line    40 file /ddmfs1b/softs/psi4conda/share/psi4/basis/aug-cc-pvtz.gbs 
    atoms 4-5 entry BR         line  4208 file /ddmfs1b/softs/psi4conda/share/psi4/basis/aug-cc-pvtz.gbs 


         ---------------------------------------------------------
                                   SCF
               by Justin Turney, Rob Parrish, Andy Simmonett
                          and Daniel G. A. Smith
                              RHF Reference
                       20 Threads,  57220 MiB Core
         ---------------------------------------------------------

  ==> Geometry <==

    Molecular point group: c1
    Full point group: C2v

    Geometry (in Angstrom), charge = 0, multiplicity = 1:

       Center              X                  Y                   Z               Mass       
    ------------   -----------------  -----------------  -----------------  -----------------
         O            0.000000000000     0.000000000000     0.000000000000    15.994914619570
         H            0.588538000000     0.756918000000     0.000000000000     1.007825032230
         H            0.588538000000    -0.756918000000     0.000000000000     1.007825032230
      Gh(BR)          3.326230000000     3.326230000000     0.000000000000    78.918337600000
      Gh(BR)          3.326230000000    -3.326230000000     0.000000000000    78.918337600000

  Running in c1 symmetry.

  Rotational constants: A =      0.00965  B =      0.00965  C =      0.00482 [cm^-1]
  Rotational constants: A =    289.28847  B =    289.21287  C =    144.62533 [MHz]
  Nuclear repulsion =    9.180197847927069

  Charge       = 0
  Multiplicity = 1
  Electrons    = 10
  Nalpha       = 5
  Nbeta        = 5

  ==> Algorithm <==

  SCF Algorithm Type is DF.
  DIIS enabled.
  MOM disabled.
  Fractional occupation disabled.
  Guess Type is SAD.
  Energy threshold   = 1.00e-08
  Density threshold  = 1.00e-08
  Integral threshold = 1.00e-12

  ==> Primary Basis <==

  Basis Set: AUG-CC-PVTZ
    Blend: AUG-CC-PVTZ
    Number of shells: 70
    Number of basis functions: 210
    Number of Cartesian functions: 243
    Spherical Harmonics?: true
    Max angular momentum: 3

   => Loading Basis Set <=

    Name: (AUG-CC-PVTZ AUX)
    Role: JKFIT
    Keyword: DF_BASIS_SCF
    atoms 1   entry O          line   286 file /ddmfs1b/softs/psi4conda/share/psi4/basis/aug-cc-pvtz-jkfit.gbs 
    atoms 2-3 entry H          line    70 file /ddmfs1b/softs/psi4conda/share/psi4/basis/aug-cc-pvtz-jkfit.gbs 
    atoms 4-5 entry BR         line  1492 file /ddmfs1b/softs/psi4conda/share/psi4/basis/aug-cc-pvtz-jkfit.gbs 

  ==> Integral Setup <==

  DFHelper Memory: AOs need 0.221 GiB; user supplied 41.910 GiB. 
  Using in-core AOs.

  ==> MemDFJK: Density-Fitted J/K Matrices <==

    J tasked:                   Yes
    K tasked:                   Yes
    wK tasked:                   No
    OpenMP threads:              20
    Memory [MiB]:             42915
    Algorithm:                 Core
    Schwarz Cutoff:           1E-12
    Mask sparsity (%):      10.9569
    Fitting Condition:        1E-10

   => Auxiliary Basis Set <=

  Basis Set: (AUG-CC-PVTZ AUX)
    Blend: AUG-CC-PVTZ-JKFIT
    Number of shells: 174
    Number of basis functions: 692
    Number of Cartesian functions: 899
    Spherical Harmonics?: true
    Max angular momentum: 4

  Minimum eigenvalue in the overlap matrix is 3.2669321537E-04.
  Reciprocal condition number of the overlap matrix is 4.5863273782E-05.
    Using symmetric orthogonalization.

  ==> Pre-Iterations <==

  SCF Guess: Superposition of Atomic Densities via on-the-fly atomic UHF (no occupation information).

   -------------------------
    Irrep   Nso     Nmo    
   -------------------------
     A        210     210 
   -------------------------
    Total     210     210
   -------------------------

  ==> Iterations <==

                           Total Energy        Delta E     RMS |[F,P]|

   @DF-RHF iter SAD:   -75.47651208261343   -7.54765e+01   0.00000e+00 
   @DF-RHF iter   1:   -75.97615558376815   -4.99644e-01   2.23122e-03 DIIS/ADIIS
   @DF-RHF iter   2:   -76.02868129637261   -5.25257e-02   1.51996e-03 DIIS/ADIIS
   @DF-RHF iter   3:   -76.06007892165267   -3.13976e-02   1.03620e-04 DIIS/ADIIS
   @DF-RHF iter   4:   -76.06046879840937   -3.89877e-04   2.46016e-05 DIIS
   @DF-RHF iter   5:   -76.06049289458112   -2.40962e-05   5.59729e-06 DIIS
   @DF-RHF iter   6:   -76.06049486792710   -1.97335e-06   1.22539e-06 DIIS
   @DF-RHF iter   7:   -76.06049497205773   -1.04131e-07   2.21177e-07 DIIS
   @DF-RHF iter   8:   -76.06049497503638   -2.97865e-09   3.68148e-08 DIIS
   @DF-RHF iter   9:   -76.06049497510136   -6.49862e-11   9.06984e-09 DIIS
  Energy and wave function converged.


  ==> Post-Iterations <==

    Orbital Energies [Eh]
    ---------------------

    Doubly Occupied:                                                      

       1A    -20.567609     2A     -1.352988     3A     -0.716521  
       4A     -0.585133     5A     -0.510309  

    Virtual:                                                              

       6A      0.024586     7A      0.038402     8A      0.060750  
       9A      0.066711    10A      0.069457    11A      0.075141  
      12A      0.080663    13A      0.095402    14A      0.100311  
      15A      0.109029    16A      0.159849    17A      0.165675  
      18A      0.193083    19A      0.194838    20A      0.237672  
      21A      0.248572    22A      0.255784    23A      0.275287  
      24A      0.288325    25A      0.296821    26A      0.298301  
      27A      0.309227    28A      0.313432    29A      0.315586  
      30A      0.318167    31A      0.320715    32A      0.322796  
      33A      0.324937    34A      0.330644    35A      0.338186  
      36A      0.345855    37A      0.371328    38A      0.376151  
      39A      0.376760    40A      0.379103    41A      0.429253  
      42A      0.446663    43A      0.462952    44A      0.552828  
      45A      0.577571    46A      0.691644    47A      0.710314  
      48A      0.712899    49A      0.734232    50A      0.750687  
      51A      0.833459    52A      0.852622    53A      0.890289  
      54A      0.906932    55A      0.907348    56A      0.923921  
      57A      0.953382    58A      0.954508    59A      0.982742  
      60A      0.984842    61A      0.988711    62A      0.994220  
      63A      0.997437    64A      1.002204    65A      1.020955  
      66A      1.022321    67A      1.030311    68A      1.043100  
      69A      1.048239    70A      1.049945    71A      1.051412  
      72A      1.051506    73A      1.051582    74A      1.051607  
      75A      1.052220    76A      1.054581    77A      1.058613  
      78A      1.070750    79A      1.071566    80A      1.090757  
      81A      1.104846    82A      1.106525    83A      1.107081  
      84A      1.107360    85A      1.122030    86A      1.130757  
      87A      1.136342    88A      1.145450    89A      1.148148  
      90A      1.158221    91A      1.183677    92A      1.184137  
      93A      1.216100    94A      1.233141    95A      1.285306  
      96A      1.296860    97A      1.312379    98A      1.520914  
      99A      1.576230   100A      1.588308   101A      1.826762  
     102A      1.841180   103A      2.056264   104A      2.175486  
     105A      2.267957   106A      2.336743   107A      2.339435  
     108A      2.424746   109A      2.443278   110A      2.502248  
     111A      2.513032   112A      2.709231   113A      2.710980  
     114A      2.774883   115A      2.817101   116A      2.847575  
     117A      2.851635   118A      2.852952   119A      2.861373  
     120A      2.865940   121A      2.874523   122A      2.892916  
     123A      2.914558   124A      2.945856   125A      3.115870  
     126A      3.115920   127A      3.116089   128A      3.116092  
     129A      3.116105   130A      3.116134   131A      3.116382  
     132A      3.117005   133A      3.124176   134A      3.131345  
     135A      3.131369   136A      3.153614   137A      3.205104  
     138A      3.206755   139A      3.281294   140A      3.282046  
     141A      3.284421   142A      3.287179   143A      3.292796  
     144A      3.297277   145A      3.299580   146A      3.315581  
     147A      3.351975   148A      3.360410   149A      3.679142  
     150A      3.767553   151A      4.021347   152A      4.103889  
     153A      4.175361   154A      4.271646   155A      4.292023  
     156A      4.380217   157A      4.398832   158A      4.408225  
     159A      4.546351   160A      4.763112   161A      4.876735  
     162A      5.158155   163A      5.168162   164A      5.290943  
     165A      5.345688   166A      5.529192   167A      5.678536  
     168A      6.189660   169A      6.531331   170A      6.716231  
     171A      6.918862   172A      7.141048   173A      7.262822  
     174A      7.315469   175A      7.328413   176A      7.345116  
     177A      7.366124   178A      7.594670   179A      7.909945  
     180A      7.981110   181A      8.832309   182A      9.172222  
     183A      9.255860   184A     13.438795   185A     13.443005  
     186A     13.443362   187A     13.450998   188A     13.490296  
     189A     13.499495   190A     15.910268   191A     26.124257  
     192A     26.125046   193A     26.127083   194A     26.129181  
     195A     26.135133   196A     26.139078   197A     26.140155  
     198A     26.153875   199A     26.179819   200A     26.183118  
     201A     45.178879   202A     45.248005   203A    138.383407  
     204A    138.389653   205A    138.390598   206A    138.402757  
     207A    138.465953   208A    138.476217   209A    707.840041  
     210A    708.021832  

    Final Occupation by Irrep:
              A 
    DOCC [     5 ]
    NA   [     5 ]
    NB   [     5 ]

  @DF-RHF Final Energy:   -76.06049497510136

   => Energetics <=

    Nuclear Repulsion Energy =              9.1801978479270687
    One-Electron Energy =                -123.0162606948563848
    Two-Electron Energy =                  37.7755678718279384
    Total Energy =                        -76.0604949751013635

Computation Completed


Properties will be evaluated at   0.000000,   0.000000,   0.000000 [a0]

Properties computed using the SCF density matrix


 Multipole Moments:

 ------------------------------------------------------------------------------------
     Multipole            Electronic (a.u.)      Nuclear  (a.u.)        Total (a.u.)
 ------------------------------------------------------------------------------------

 L = 1.  Multiply by 2.5417464519 to convert [e a0] to [Debye]
 Dipole X            :         -1.4419186            2.2243513            0.7824327
 Dipole Y            :         -0.0000000            0.0000000           -0.0000000
 Dipole Z            :         -0.0000000            0.0000000           -0.0000000
 Magnitude           :                                                    0.7824327

 ------------------------------------------------------------------------------------

*** tstop() called on ddmfs1 at Mon Jan 22 12:45:37 2024
Module time:
	user time   =      31.42 seconds =       0.52 minutes
	system time =       3.84 seconds =       0.06 minutes
	total time  =          6 seconds =       0.10 minutes
Total time:
	user time   =      31.42 seconds =       0.52 minutes
	system time =       3.84 seconds =       0.06 minutes
	total time  =          6 seconds =       0.10 minutes

*** tstart() called on ddmfs1
*** at Mon Jan 22 12:45:37 2024


  //>>>>>>>>>>>>>>>>>>>>>>>>>>>>>>>>>>>//
  //               DFMP2               //
  //<<<<<<<<<<<<<<<<<<<<<<<<<<<<<<<<<<<//

   => Loading Basis Set <=

    Name: (AUG-CC-PVTZ AUX)
    Role: RIFIT
    Keyword: DF_BASIS_MP2
    atoms 1   entry O          line   264 file /ddmfs1b/softs/psi4conda/share/psi4/basis/aug-cc-pvtz-ri.gbs 
    atoms 2-3 entry H          line    30 file /ddmfs1b/softs/psi4conda/share/psi4/basis/aug-cc-pvtz-ri.gbs 
    atoms 4-5 entry BR         line  1248 file /ddmfs1b/softs/psi4conda/share/psi4/basis/aug-cc-pvtz-ri.gbs 

	 --------------------------------------------------------
	                          DF-MP2                         
	      2nd-Order Density-Fitted Moller-Plesset Theory     
	              RMP2 Wavefunction,  20 Threads             
	                                                         
	        Rob Parrish, Justin Turney, Andy Simmonett,      
	           Ed Hohenstein, and C. David Sherrill          
	 --------------------------------------------------------

   => Auxiliary Basis Set <=

  Basis Set: (AUG-CC-PVTZ AUX)
    Blend: AUG-CC-PVTZ-RI
    Number of shells: 142
    Number of basis functions: 580
    Number of Cartesian functions: 768
    Spherical Harmonics?: true
    Max angular momentum: 5

	 --------------------------------------------------------
	                 NBF =   210, NAUX =   580
	 --------------------------------------------------------
	   CLASS    FOCC     OCC    AOCC    AVIR     VIR    FVIR
	   PAIRS       0       5       5     205     205       0
	 --------------------------------------------------------

	-----------------------------------------------------------
	 ==================> DF-MP2 Energies <==================== 
	-----------------------------------------------------------
	 Reference Energy          =     -76.0604949751013635 [Eh]
	 Singles Energy            =      -0.0000000000000000 [Eh]
	 Same-Spin Energy          =      -0.0683765159374824 [Eh]
	 Opposite-Spin Energy      =      -0.2153454736562560 [Eh]
	 Correlation Energy        =      -0.2837219895937384 [Eh]
	 Total Energy              =     -76.3442169646951072 [Eh]
	-----------------------------------------------------------
	 ================> DF-SCS-MP2 Energies <================== 
	-----------------------------------------------------------
	 SCS Same-Spin Scale       =       0.3333333333333333 [-]
	 SCS Opposite-Spin Scale   =       1.2000000000000000 [-]
	 SCS Same-Spin Energy      =      -0.0227921719791608 [Eh]
	 SCS Opposite-Spin Energy  =      -0.2584145683875072 [Eh]
	 SCS Correlation Energy    =      -0.2812067403666680 [Eh]
	 SCS Total Energy          =     -76.3417017154680337 [Eh]
	-----------------------------------------------------------


*** tstop() called on ddmfs1 at Mon Jan 22 12:45:53 2024
Module time:
	user time   =      25.47 seconds =       0.42 minutes
	system time =       1.51 seconds =       0.03 minutes
	total time  =         16 seconds =       0.27 minutes
Total time:
	user time   =      56.91 seconds =       0.95 minutes
	system time =       5.35 seconds =       0.09 minutes
	total time  =         22 seconds =       0.37 minutes

    Psi4 stopped on: Monday, 22 January 2024 12:45PM
    Psi4 wall time for execution: 0:00:21.60

*** Psi4 exiting successfully. Buy a developer a beer!
