
    -----------------------------------------------------------------------
          Psi4: An Open-Source Ab Initio Electronic Structure Package
                               Psi4 1.9 release

                         Git: Rev {} zzzzzzz 


    D. G. A. Smith, L. A. Burns, A. C. Simmonett, R. M. Parrish,
    M. C. Schieber, R. Galvelis, P. Kraus, H. Kruse, R. Di Remigio,
    A. Alenaizan, A. M. James, S. Lehtola, J. P. Misiewicz, M. Scheurer,
    R. A. Shaw, J. B. Schriber, Y. Xie, Z. L. Glick, D. A. Sirianni,
    J. S. O'Brien, J. M. Waldrop, A. Kumar, E. G. Hohenstein,
    B. P. Pritchard, B. R. Brooks, H. F. Schaefer III, A. Yu. Sokolov,
    K. Patkowski, A. E. DePrince III, U. Bozkaya, R. A. King,
    F. A. Evangelista, J. M. Turney, T. D. Crawford, C. D. Sherrill,
    J. Chem. Phys. 152(18) 184108 (2020). https://doi.org/10.1063/5.0006002

                            Additional Code Authors
    E. T. Seidl, C. L. Janssen, E. F. Valeev, M. L. Leininger,
    J. F. Gonthier, R. M. Richard, H. R. McAlexander, M. Saitow, X. Wang,
    P. Verma, M. H. Lechner, A. Jiang, S. Behnle, A. G. Heide,
    M. F. Herbst, and D. L. Poole

             Previous Authors, Complete List of Code Contributors,
                       and Citations for Specific Modules
    https://github.com/psi4/psi4/blob/master/codemeta.json
    https://github.com/psi4/psi4/graphs/contributors
    http://psicode.org/psi4manual/master/introduction.html#citing-psifour

    -----------------------------------------------------------------------


    Psi4 started on: Thursday, 04 January 2024 05:35PM

    Process ID: 494900
    Host:       moses-razer
    PSIDATADIR: /home/kchung25/anaconda3/envs/psi4_19/share/psi4
    Memory:     500.0 MiB
    Threads:    6
    
  ==> Input File <==

--------------------------------------------------------------------------
MEMORY 60 GB

molecule dimer {
0 1
O      0.000000     0.000000     0.000000
H      0.588538     0.756918     0.000000
H      0.588538    -0.756918     0.000000
--
-2 1
Br     4.751758     4.751758     0.000000
Br     4.751758    -4.751758     0.000000

units ang
no_reorient
no_com
symmetry c1
}

set {
basis        aug-cc-pVTZ
scf_type     df
}

energy("mp2", bsse_type="cp")
--------------------------------------------------------------------------

  Memory set to  55.879 GiB by Python driver.

Scratch directory: /scratch/

  //>>>>>>>>>>>>>>>>>>>>>>>>>>>>>>>>>>>>>//
  // ManyBody Setup: N-Body Levels [1, 2]//
  //<<<<<<<<<<<<<<<<<<<<<<<<<<<<<<<<<<<<<//

        Number of 1-body computations:     2
        Number of 2-body computations:     1

    -----------------------------------------------------------------------
          Psi4: An Open-Source Ab Initio Electronic Structure Package
                               Psi4 1.9 release

                         Git: Rev {} zzzzzzz 


    D. G. A. Smith, L. A. Burns, A. C. Simmonett, R. M. Parrish,
    M. C. Schieber, R. Galvelis, P. Kraus, H. Kruse, R. Di Remigio,
    A. Alenaizan, A. M. James, S. Lehtola, J. P. Misiewicz, M. Scheurer,
    R. A. Shaw, J. B. Schriber, Y. Xie, Z. L. Glick, D. A. Sirianni,
    J. S. O'Brien, J. M. Waldrop, A. Kumar, E. G. Hohenstein,
    B. P. Pritchard, B. R. Brooks, H. F. Schaefer III, A. Yu. Sokolov,
    K. Patkowski, A. E. DePrince III, U. Bozkaya, R. A. King,
    F. A. Evangelista, J. M. Turney, T. D. Crawford, C. D. Sherrill,
    J. Chem. Phys. 152(18) 184108 (2020). https://doi.org/10.1063/5.0006002

                            Additional Code Authors
    E. T. Seidl, C. L. Janssen, E. F. Valeev, M. L. Leininger,
    J. F. Gonthier, R. M. Richard, H. R. McAlexander, M. Saitow, X. Wang,
    P. Verma, M. H. Lechner, A. Jiang, S. Behnle, A. G. Heide,
    M. F. Herbst, and D. L. Poole

             Previous Authors, Complete List of Code Contributors,
                       and Citations for Specific Modules
    https://github.com/psi4/psi4/blob/master/codemeta.json
    https://github.com/psi4/psi4/graphs/contributors
    http://psicode.org/psi4manual/master/introduction.html#citing-psifour

    -----------------------------------------------------------------------


    Psi4 started on: Thursday, 04 January 2024 05:35PM

    Process ID: 494900
    Host:       moses-razer
    PSIDATADIR: /home/kchung25/anaconda3/envs/psi4_19/share/psi4
    Memory:     55.9 GiB
    Threads:    6
    
  ==> Input QCSchema <==

--------------------------------------------------------------------------
{'driver': 'energy',
 'extras': {'psiapi': True, 'wfn_qcvars_only': True},
 'id': None,
 'keywords': {'SCF_TYPE': 'DF', 'function_kwargs': {}},
 'model': {'basis': 'aug-cc-pvtz', 'method': 'mp2'},
 'molecule': {'atom_labels': ['', '', '', '', ''],
              'atomic_numbers': [8, 1, 1, 35, 35],
              'extras': {},
              'fix_com': True,
              'fix_orientation': True,
              'fix_symmetry': 'c1',
              'fragment_charges': [0.0, -2.0],
              'fragment_multiplicities': [1, 1],
              'fragments': [[0, 1, 2], [3, 4]],
              'geometry': [0.0, 0.0, 0.0, 1.1121756344246994, 1.4303677194292883, 0.0, 1.1121756344246994,
                           -1.4303677194292883, 0.0, 8.979521234453237, 8.979521234453237, 0.0, 8.979521234453237,
                           -8.979521234453237, 0.0],
              'mass_numbers': [16, 1, 1, 79, 79],
              'masses': [15.99491461957, 1.00782503223, 1.00782503223, 78.9183376, 78.9183376],
              'molecular_charge': -2.0,
              'molecular_multiplicity': 1,
              'name': 'dimer',
              'provenance': {'creator': 'QCElemental',
                             'routine': 'qcelemental.molparse.from_string',
                             'version': '0.27.1'},
              'real': [False, False, False, True, True],
              'schema_name': 'qcschema_molecule',
              'schema_version': 2,
              'symbols': ['O', 'H', 'H', 'Br', 'Br'],
              'validated': True},
 'protocols': {'stdout': True},
 'provenance': {'creator': 'QCElemental', 'routine': 'qcelemental.models.results', 'version': '0.27.1'},
 'schema_name': 'qcschema_input',
 'schema_version': 1}
--------------------------------------------------------------------------

Scratch directory: /scratch/
   => Libint2 <=

    Primary   basis highest AM E, G, H:  5, 4, 3
    Auxiliary basis highest AM E, G, H:  6, 5, 4
    Onebody   basis highest AM E, G, H:  6, 5, 4
    Solid Harmonics ordering:            gaussian

*** tstart() called on moses-razer
*** at Thu Jan  4 17:35:40 2024

   => Loading Basis Set <=

    Name: AUG-CC-PVTZ
    Role: ORBITAL
    Keyword: BASIS
    atoms 1   entry O          line   331 file /home/kchung25/anaconda3/envs/p415env/share/psi4/basis/aug-cc-pvtz.gbs 
    atoms 2-3 entry H          line    40 file /home/kchung25/anaconda3/envs/p415env/share/psi4/basis/aug-cc-pvtz.gbs 
    atoms 4-5 entry BR         line  4564 file /home/kchung25/anaconda3/envs/p415env/share/psi4/basis/aug-cc-pvtz.gbs 


         ---------------------------------------------------------
                                   SCF
               by Justin Turney, Rob Parrish, Andy Simmonett
                          and Daniel G. A. Smith
                              RHF Reference
                        6 Threads,  57220 MiB Core
         ---------------------------------------------------------

  ==> Geometry <==

    Molecular point group: c1
    Full point group: C2v

    Geometry (in Bohr), charge = -2, multiplicity = 1:

       Center              X                  Y                   Z               Mass       
    ------------   -----------------  -----------------  -----------------  -----------------
      Gh(O)           0.000000000000     0.000000000000     0.000000000000    15.994914619570
      Gh(H)           1.112175634425     1.430367719429     0.000000000000     1.007825032230
      Gh(H)           1.112175634425    -1.430367719429     0.000000000000     1.007825032230
         BR           8.979521234453     8.979521234453     0.000000000000    78.918337600000
         BR           8.979521234453    -8.979521234453     0.000000000000    78.918337600000

  Running in c1 symmetry.

  Rotational constants: A =      0.00473  B =      0.00473  C =      0.00236 [cm^-1]
  Rotational constants: A =    141.78020  B =    141.76204  C =     70.88556 [MHz]
  Nuclear repulsion =   68.210763581683878

  Charge       = -2
  Multiplicity = 1
  Electrons    = 72
  Nalpha       = 36
  Nbeta        = 36

  ==> Algorithm <==

  SCF Algorithm Type is DF.
  DIIS enabled.
  MOM disabled.
  Fractional occupation disabled.
  Guess Type is SAD.
  Energy threshold   = 1.00e-08
  Density threshold  = 1.00e-08
  Integral threshold = 1.00e-12

  ==> Primary Basis <==

  Basis Set: AUG-CC-PVTZ
    Blend: AUG-CC-PVTZ
    Number of shells: 70
    Number of basis functions: 210
    Number of Cartesian functions: 243
    Spherical Harmonics?: true
    Max angular momentum: 3

   => Loading Basis Set <=

    Name: (AUG-CC-PVTZ AUX)
    Role: JKFIT
    Keyword: DF_BASIS_SCF
    atoms 1   entry O          line   286 file /home/kchung25/anaconda3/envs/p415env/share/psi4/basis/aug-cc-pvtz-jkfit.gbs 
    atoms 2-3 entry H          line    70 file /home/kchung25/anaconda3/envs/p415env/share/psi4/basis/aug-cc-pvtz-jkfit.gbs 
    atoms 4-5 entry BR         line  1492 file /home/kchung25/anaconda3/envs/p415env/share/psi4/basis/aug-cc-pvtz-jkfit.gbs 

  ==> Integral Setup <==

  DFHelper Memory: AOs need 0.171 GiB; user supplied 41.910 GiB. 
  Using in-core AOs.

  ==> MemDFJK: Density-Fitted J/K Matrices <==

    J tasked:                   Yes
    K tasked:                   Yes
    wK tasked:                   No
    OpenMP threads:               6
    Memory [MiB]:             42915
    Algorithm:                 Core
    Schwarz Cutoff:           1E-12
    Mask sparsity (%):      31.0113
    Fitting Condition:        1E-10

   => Auxiliary Basis Set <=

  Basis Set: (AUG-CC-PVTZ AUX)
    Blend: AUG-CC-PVTZ-JKFIT
    Number of shells: 174
    Number of basis functions: 692
    Number of Cartesian functions: 899
    Spherical Harmonics?: true
    Max angular momentum: 4

  Minimum eigenvalue in the overlap matrix is 3.7577246171E-04.
  Reciprocal condition number of the overlap matrix is 5.4814528502E-05.
    Using symmetric orthogonalization.

  ==> Pre-Iterations <==

  SCF Guess: Superposition of Atomic Densities via on-the-fly atomic UHF (no occupation information).

   -------------------------
    Irrep   Nso     Nmo    
   -------------------------
     A        210     210 
   -------------------------
    Total     210     210
   -------------------------

  ==> Iterations <==

                           Total Energy        Delta E     RMS |[F,P]|

   @DF-RHF iter SAD: -5140.82847032858444   -5.14083e+03   0.00000e+00 
   @DF-RHF iter   1: -5144.45640584579451   -3.62794e+00   7.04147e-03 ADIIS/DIIS
   @DF-RHF iter   2: -5144.87437436502296   -4.17969e-01   3.90474e-03 ADIIS/DIIS
   @DF-RHF iter   3: -5145.01194373423459   -1.37569e-01   6.36520e-05 DIIS
   @DF-RHF iter   4: -5145.01201021970155   -6.64855e-05   7.48952e-06 DIIS
   @DF-RHF iter   5: -5145.01201239258353   -2.17288e-06   2.01240e-06 DIIS
   @DF-RHF iter   6: -5145.01201256090371   -1.68320e-07   4.38683e-07 DIIS
   @DF-RHF iter   7: -5145.01201258659967   -2.56960e-08   8.51147e-08 DIIS
   @DF-RHF iter   8: -5145.01201258735364   -7.53971e-10   2.82075e-08 DIIS
   @DF-RHF iter   9: -5145.01201258746642   -1.12777e-10   5.35038e-09 DIIS
  Energy and wave function converged.


  ==> Post-Iterations <==

    Orbital Energies [Eh]
    ---------------------

    Doubly Occupied:                                                      

       1A   -489.665168     2A   -489.665168     3A    -64.805267  
       4A    -64.805267     5A    -58.159735     6A    -58.159735  
       7A    -58.159735     8A    -58.159735     9A    -58.159727  
      10A    -58.159727    11A     -9.477688    12A     -9.477688  
      13A     -7.085041    14A     -7.085041    15A     -7.085040  
      16A     -7.085040    17A     -7.084995    18A     -7.084995  
      19A     -2.826728    20A     -2.826728    21A     -2.826728  
      22A     -2.826728    23A     -2.826673    24A     -2.826673  
      25A     -2.826673    26A     -2.826673    27A     -2.826655  
      28A     -2.826655    29A     -0.630799    30A     -0.630799  
      31A     -0.084246    32A     -0.084246    33A     -0.084242  
      34A     -0.084241    35A     -0.083904    36A     -0.083860  

    Virtual:                                                              

      37A      0.182111    38A      0.215529    39A      0.270058  
      40A      0.270162    41A      0.292061    42A      0.302706  
      43A      0.305491    44A      0.306232    45A      0.308642  
      46A      0.313210    47A      0.315692    48A      0.335154  
      49A      0.358194    50A      0.360513    51A      0.441587  
      52A      0.444125    53A      0.449558    54A      0.463706  
      55A      0.468464    56A      0.515642    57A      0.526509  
      58A      0.545347    59A      0.545620    60A      0.545695  
      61A      0.545704    62A      0.546599    63A      0.547203  
      64A      0.547818    65A      0.551005    66A      0.563259  
      67A      0.576774    68A      0.611628    69A      0.765183  
      70A      0.789750    71A      0.792715    72A      0.797233  
      73A      0.803084    74A      0.807201    75A      0.808914  
      76A      0.811269    77A      0.916589    78A      0.922865  
      79A      0.943751    80A      0.962166    81A      0.969135  
      82A      0.983716    83A      0.999102    84A      0.999611  
      85A      1.052907    86A      1.071202    87A      1.089156  
      88A      1.089185    89A      1.089210    90A      1.089279  
      91A      1.089966    92A      1.090294    93A      1.090538  
      94A      1.090813    95A      1.102338    96A      1.113846  
      97A      1.114743    98A      1.145803    99A      1.163551  
     100A      1.194806   101A      1.207274   102A      1.225573  
     103A      1.264822   104A      1.264829   105A      1.264859  
     106A      1.264904   107A      1.265305   108A      1.265324  
     109A      1.265460   110A      1.265534   111A      1.265602  
     112A      1.265606   113A      1.265731   114A      1.266193  
     115A      1.266548   116A      1.269047   117A      1.314721  
     118A      1.372637   119A      1.379674   120A      1.599877  
     121A      1.632050   122A      1.846076   123A      1.861547  
     124A      1.889856   125A      1.968072   126A      2.007680  
     127A      2.226786   128A      2.459786   129A      2.461957  
     130A      2.464155   131A      2.468970   132A      2.472530  
     133A      2.477784   134A      2.514939   135A      2.537290  
     136A      2.621333   137A      2.621409   138A      2.621444  
     139A      2.621490   140A      2.621650   141A      2.621819  
     142A      2.622095   143A      2.623731   144A      2.627499  
     145A      2.632960   146A      2.640716   147A      2.640720  
     148A      2.640745   149A      2.640747   150A      2.640960  
     151A      2.640968   152A      2.641056   153A      2.641061  
     154A      2.641121   155A      2.641122   156A      2.641183  
     157A      2.641241   158A      2.642120   159A      2.643169  
     160A      2.669319   161A      2.681562   162A      2.685465  
     163A      2.698505   164A      2.706772   165A      2.777922  
     166A      3.022407   167A      3.314271   168A      3.317967  
     169A      3.327451   170A      3.467409   171A      3.479263  
     172A      3.670267   173A      3.812981   174A      3.817246  
     175A      3.836106   176A      4.519288   177A      4.588777  
     178A      4.631697   179A      4.769545   180A      4.811446  
     181A      4.819033   182A      5.026209   183A      5.032016  
     184A      5.040291   185A      5.359332   186A      5.714101  
     187A      5.773097   188A      5.817395   189A      5.997852  
     190A      6.260608   191A      6.552829   192A      6.770688  
     193A      7.226855   194A      7.819486   195A      7.970205  
     196A      8.202460   197A      8.320282   198A      8.439558  
     199A      8.897250   200A      8.988401   201A      9.775363  
     202A      9.980880   203A     10.144963   204A     10.371565  
     205A     11.401512   206A     11.763429   207A     12.262893  
     208A     13.642425   209A     13.925343   210A     64.704300  

    Final Occupation by Irrep:
              A 
    DOCC [    36 ]
    NA   [    36 ]
    NB   [    36 ]

  @DF-RHF Final Energy: -5145.01201258746642

   => Energetics <=

    Nuclear Repulsion Energy =             68.2107635816838780
    One-Electron Energy =               -7327.6494621900219499
    Two-Electron Energy =                2114.4266860208713297
    Total Energy =                      -5145.0120125874673249

Computation Completed


Properties will be evaluated at   0.000000,   0.000000,   0.000000 [a0]

Properties computed using the SCF density matrix


 Multipole Moments:

 ------------------------------------------------------------------------------------
     Multipole            Electronic (a.u.)      Nuclear  (a.u.)        Total (a.u.)
 ------------------------------------------------------------------------------------

 L = 1.  Multiply by 2.5417464519 to convert [e a0] to [Debye]
 Dipole X            :       -646.5285781          628.5664864          -17.9620917
 Dipole Y            :         -0.0000000            0.0000000           -0.0000000
 Dipole Z            :          0.0000000            0.0000000            0.0000000
 Magnitude           :                                                   17.9620917

 ------------------------------------------------------------------------------------

*** tstop() called on moses-razer at Thu Jan  4 17:35:46 2024
Module time:
	user time   =      13.56 seconds =       0.23 minutes
	system time =       1.36 seconds =       0.02 minutes
	total time  =          6 seconds =       0.10 minutes
Total time:
	user time   =      13.56 seconds =       0.23 minutes
	system time =       1.36 seconds =       0.02 minutes
	total time  =          6 seconds =       0.10 minutes

*** tstart() called on moses-razer
*** at Thu Jan  4 17:35:46 2024


  //>>>>>>>>>>>>>>>>>>>>>>>>>>>>>>>>>>>//
  //               DFMP2               //
  //<<<<<<<<<<<<<<<<<<<<<<<<<<<<<<<<<<<//

   => Loading Basis Set <=

    Name: (AUG-CC-PVTZ AUX)
    Role: RIFIT
    Keyword: DF_BASIS_MP2
    atoms 1   entry O          line   264 file /home/kchung25/anaconda3/envs/p415env/share/psi4/basis/aug-cc-pvtz-ri.gbs 
    atoms 2-3 entry H          line    30 file /home/kchung25/anaconda3/envs/p415env/share/psi4/basis/aug-cc-pvtz-ri.gbs 
    atoms 4-5 entry BR         line  1248 file /home/kchung25/anaconda3/envs/p415env/share/psi4/basis/aug-cc-pvtz-ri.gbs 

	 --------------------------------------------------------
	                          DF-MP2                         
	      2nd-Order Density-Fitted Moller-Plesset Theory     
	              RMP2 Wavefunction,   6 Threads             
	                                                         
	        Rob Parrish, Justin Turney, Andy Simmonett,      
	           Ed Hohenstein, and C. David Sherrill          
	 --------------------------------------------------------

   => Auxiliary Basis Set <=

  Basis Set: (AUG-CC-PVTZ AUX)
    Blend: AUG-CC-PVTZ-RI
    Number of shells: 142
    Number of basis functions: 580
    Number of Cartesian functions: 768
    Spherical Harmonics?: true
    Max angular momentum: 5

	 --------------------------------------------------------
	                 NBF =   210, NAUX =   580
	 --------------------------------------------------------
	   CLASS    FOCC     OCC    AOCC    AVIR     VIR    FVIR
	   PAIRS       0      36      36     174     174       0
	 --------------------------------------------------------

	-----------------------------------------------------------
	 ==================> DF-MP2 Energies <==================== 
	-----------------------------------------------------------
	 Reference Energy          =   -5145.0120125874664154 [Eh]
	 Singles Energy            =      -0.0000000000000000 [Eh]
	 Same-Spin Energy          =      -0.1733676752601861 [Eh]
	 Opposite-Spin Energy      =      -0.4020226115843205 [Eh]
	 Correlation Energy        =      -0.5753902868445065 [Eh]
	 Total Energy              =   -5145.5874028743110102 [Eh]
	-----------------------------------------------------------
	 ================> DF-SCS-MP2 Energies <================== 
	-----------------------------------------------------------
	 SCS Same-Spin Scale       =       0.3333333333333333 [-]
	 SCS Opposite-Spin Scale   =       1.2000000000000000 [-]
	 SCS Same-Spin Energy      =      -0.0577892250867287 [Eh]
	 SCS Opposite-Spin Energy  =      -0.4824271339011845 [Eh]
	 SCS Correlation Energy    =      -0.5402163589879132 [Eh]
	 SCS Total Energy          =   -5145.5522289464543064 [Eh]
	-----------------------------------------------------------


*** tstop() called on moses-razer at Thu Jan  4 17:35:51 2024
Module time:
	user time   =       8.14 seconds =       0.14 minutes
	system time =       0.38 seconds =       0.01 minutes
	total time  =          5 seconds =       0.08 minutes
Total time:
	user time   =      21.70 seconds =       0.36 minutes
	system time =       1.74 seconds =       0.03 minutes
	total time  =         11 seconds =       0.18 minutes

    Psi4 stopped on: Thursday, 04 January 2024 05:35PM
    Psi4 wall time for execution: 0:00:10.53


    -----------------------------------------------------------------------
          Psi4: An Open-Source Ab Initio Electronic Structure Package
                               Psi4 1.9 release

                         Git: Rev {} zzzzzzz 


    D. G. A. Smith, L. A. Burns, A. C. Simmonett, R. M. Parrish,
    M. C. Schieber, R. Galvelis, P. Kraus, H. Kruse, R. Di Remigio,
    A. Alenaizan, A. M. James, S. Lehtola, J. P. Misiewicz, M. Scheurer,
    R. A. Shaw, J. B. Schriber, Y. Xie, Z. L. Glick, D. A. Sirianni,
    J. S. O'Brien, J. M. Waldrop, A. Kumar, E. G. Hohenstein,
    B. P. Pritchard, B. R. Brooks, H. F. Schaefer III, A. Yu. Sokolov,
    K. Patkowski, A. E. DePrince III, U. Bozkaya, R. A. King,
    F. A. Evangelista, J. M. Turney, T. D. Crawford, C. D. Sherrill,
    J. Chem. Phys. 152(18) 184108 (2020). https://doi.org/10.1063/5.0006002

                            Additional Code Authors
    E. T. Seidl, C. L. Janssen, E. F. Valeev, M. L. Leininger,
    J. F. Gonthier, R. M. Richard, H. R. McAlexander, M. Saitow, X. Wang,
    P. Verma, M. H. Lechner, A. Jiang, S. Behnle, A. G. Heide,
    M. F. Herbst, and D. L. Poole

             Previous Authors, Complete List of Code Contributors,
                       and Citations for Specific Modules
    https://github.com/psi4/psi4/blob/master/codemeta.json
    https://github.com/psi4/psi4/graphs/contributors
    http://psicode.org/psi4manual/master/introduction.html#citing-psifour

    -----------------------------------------------------------------------


    Psi4 started on: Thursday, 04 January 2024 05:35PM

    Process ID: 494900
    Host:       moses-razer
    PSIDATADIR: /home/kchung25/anaconda3/envs/psi4_19/share/psi4
    Memory:     55.9 GiB
    Threads:    6
    
  ==> Input QCSchema <==

--------------------------------------------------------------------------
{'driver': 'energy',
 'extras': {'psiapi': True, 'wfn_qcvars_only': True},
 'id': None,
 'keywords': {'SCF_TYPE': 'DF', 'function_kwargs': {}},
 'model': {'basis': 'aug-cc-pvtz', 'method': 'mp2'},
 'molecule': {'atom_labels': ['', '', '', '', ''],
              'atomic_numbers': [8, 1, 1, 35, 35],
              'extras': {},
              'fix_com': True,
              'fix_orientation': True,
              'fix_symmetry': 'c1',
              'fragment_charges': [0.0, 0.0],
              'fragment_multiplicities': [1, 1],
              'fragments': [[0, 1, 2], [3, 4]],
              'geometry': [0.0, 0.0, 0.0, 1.1121756344246994, 1.4303677194292883, 0.0, 1.1121756344246994,
                           -1.4303677194292883, 0.0, 8.979521234453237, 8.979521234453237, 0.0, 8.979521234453237,
                           -8.979521234453237, 0.0],
              'mass_numbers': [16, 1, 1, 79, 79],
              'masses': [15.99491461957, 1.00782503223, 1.00782503223, 78.9183376, 78.9183376],
              'molecular_charge': 0.0,
              'molecular_multiplicity': 1,
              'name': 'dimer',
              'provenance': {'creator': 'QCElemental',
                             'routine': 'qcelemental.molparse.from_string',
                             'version': '0.27.1'},
              'real': [True, True, True, False, False],
              'schema_name': 'qcschema_molecule',
              'schema_version': 2,
              'symbols': ['O', 'H', 'H', 'Br', 'Br'],
              'validated': True},
 'protocols': {'stdout': True},
 'provenance': {'creator': 'QCElemental', 'routine': 'qcelemental.models.results', 'version': '0.27.1'},
 'schema_name': 'qcschema_input',
 'schema_version': 1}
--------------------------------------------------------------------------

Scratch directory: /scratch/
   => Libint2 <=

    Primary   basis highest AM E, G, H:  5, 4, 3
    Auxiliary basis highest AM E, G, H:  6, 5, 4
    Onebody   basis highest AM E, G, H:  6, 5, 4
    Solid Harmonics ordering:            gaussian

*** tstart() called on moses-razer
*** at Thu Jan  4 17:35:51 2024

   => Loading Basis Set <=

    Name: AUG-CC-PVTZ
    Role: ORBITAL
    Keyword: BASIS
    atoms 1   entry O          line   331 file /home/kchung25/anaconda3/envs/p415env/share/psi4/basis/aug-cc-pvtz.gbs 
    atoms 2-3 entry H          line    40 file /home/kchung25/anaconda3/envs/p415env/share/psi4/basis/aug-cc-pvtz.gbs 
    atoms 4-5 entry BR         line  4564 file /home/kchung25/anaconda3/envs/p415env/share/psi4/basis/aug-cc-pvtz.gbs 


         ---------------------------------------------------------
                                   SCF
               by Justin Turney, Rob Parrish, Andy Simmonett
                          and Daniel G. A. Smith
                              RHF Reference
                        6 Threads,  57220 MiB Core
         ---------------------------------------------------------

  ==> Geometry <==

    Molecular point group: c1
    Full point group: C2v

    Geometry (in Bohr), charge = 0, multiplicity = 1:

       Center              X                  Y                   Z               Mass       
    ------------   -----------------  -----------------  -----------------  -----------------
         O            0.000000000000     0.000000000000     0.000000000000    15.994914619570
         H            1.112175634425     1.430367719429     0.000000000000     1.007825032230
         H            1.112175634425    -1.430367719429     0.000000000000     1.007825032230
      Gh(BR)          8.979521234453     8.979521234453     0.000000000000    78.918337600000
      Gh(BR)          8.979521234453    -8.979521234453     0.000000000000    78.918337600000

  Running in c1 symmetry.

  Rotational constants: A =      0.00473  B =      0.00473  C =      0.00236 [cm^-1]
  Rotational constants: A =    141.78020  B =    141.76204  C =     70.88556 [MHz]
  Nuclear repulsion =    9.180197847927069

  Charge       = 0
  Multiplicity = 1
  Electrons    = 10
  Nalpha       = 5
  Nbeta        = 5

  ==> Algorithm <==

  SCF Algorithm Type is DF.
  DIIS enabled.
  MOM disabled.
  Fractional occupation disabled.
  Guess Type is SAD.
  Energy threshold   = 1.00e-08
  Density threshold  = 1.00e-08
  Integral threshold = 1.00e-12

  ==> Primary Basis <==

  Basis Set: AUG-CC-PVTZ
    Blend: AUG-CC-PVTZ
    Number of shells: 70
    Number of basis functions: 210
    Number of Cartesian functions: 243
    Spherical Harmonics?: true
    Max angular momentum: 3

   => Loading Basis Set <=

    Name: (AUG-CC-PVTZ AUX)
    Role: JKFIT
    Keyword: DF_BASIS_SCF
    atoms 1   entry O          line   286 file /home/kchung25/anaconda3/envs/p415env/share/psi4/basis/aug-cc-pvtz-jkfit.gbs 
    atoms 2-3 entry H          line    70 file /home/kchung25/anaconda3/envs/p415env/share/psi4/basis/aug-cc-pvtz-jkfit.gbs 
    atoms 4-5 entry BR         line  1492 file /home/kchung25/anaconda3/envs/p415env/share/psi4/basis/aug-cc-pvtz-jkfit.gbs 

  ==> Integral Setup <==

  DFHelper Memory: AOs need 0.171 GiB; user supplied 41.910 GiB. 
  Using in-core AOs.

  ==> MemDFJK: Density-Fitted J/K Matrices <==

    J tasked:                   Yes
    K tasked:                   Yes
    wK tasked:                   No
    OpenMP threads:               6
    Memory [MiB]:             42915
    Algorithm:                 Core
    Schwarz Cutoff:           1E-12
    Mask sparsity (%):      31.0113
    Fitting Condition:        1E-10

   => Auxiliary Basis Set <=

  Basis Set: (AUG-CC-PVTZ AUX)
    Blend: AUG-CC-PVTZ-JKFIT
    Number of shells: 174
    Number of basis functions: 692
    Number of Cartesian functions: 899
    Spherical Harmonics?: true
    Max angular momentum: 4

  Minimum eigenvalue in the overlap matrix is 3.7577246171E-04.
  Reciprocal condition number of the overlap matrix is 5.4814528502E-05.
    Using symmetric orthogonalization.

  ==> Pre-Iterations <==

  SCF Guess: Superposition of Atomic Densities via on-the-fly atomic UHF (no occupation information).

   -------------------------
    Irrep   Nso     Nmo    
   -------------------------
     A        210     210 
   -------------------------
    Total     210     210
   -------------------------

  ==> Iterations <==

                           Total Energy        Delta E     RMS |[F,P]|

   @DF-RHF iter SAD:   -75.47651207569774   -7.54765e+01   0.00000e+00 
   @DF-RHF iter   1:   -75.97615158519926   -4.99640e-01   2.23118e-03 ADIIS/DIIS
   @DF-RHF iter   2:   -76.02867325072799   -5.25217e-02   1.51981e-03 ADIIS/DIIS
   @DF-RHF iter   3:   -76.06006656901509   -3.13933e-02   1.03615e-04 ADIIS/DIIS
   @DF-RHF iter   4:   -76.06045636659498   -3.89798e-04   2.45977e-05 DIIS
   @DF-RHF iter   5:   -76.06048045153270   -2.40849e-05   5.59691e-06 DIIS
   @DF-RHF iter   6:   -76.06048242451783   -1.97299e-06   1.22521e-06 DIIS
   @DF-RHF iter   7:   -76.06048252862759   -1.04110e-07   2.21039e-07 DIIS
   @DF-RHF iter   8:   -76.06048253160161   -2.97402e-09   3.67882e-08 DIIS
   @DF-RHF iter   9:   -76.06048253166631   -6.47020e-11   9.06628e-09 DIIS
  Energy and wave function converged.


  ==> Post-Iterations <==

    Orbital Energies [Eh]
    ---------------------

    Doubly Occupied:                                                      

       1A    -20.567586     2A     -1.352980     3A     -0.716513  
       4A     -0.585133     5A     -0.510307  

    Virtual:                                                              

       6A      0.025259     7A      0.039299     8A      0.059125  
       9A      0.065913    10A      0.069945    11A      0.073896  
      12A      0.075978    13A      0.081073    14A      0.088497  
      15A      0.098616    16A      0.137361    17A      0.159331  
      18A      0.188416    19A      0.192062    20A      0.232098  
      21A      0.245283    22A      0.264008    23A      0.288763  
      24A      0.296993    25A      0.298008    26A      0.308207  
      27A      0.310561    28A      0.313870    29A      0.315050  
      30A      0.315227    31A      0.316251    32A      0.319746  
      33A      0.323882    34A      0.327776    35A      0.327780  
      36A      0.327802    37A      0.328179    38A      0.328339  
      39A      0.328348    40A      0.329377    41A      0.349948  
      42A      0.351761    43A      0.377237    44A      0.455071  
      45A      0.485264    46A      0.615768    47A      0.661004  
      48A      0.708784    49A      0.724326    50A      0.731701  
      51A      0.834351    52A      0.846871    53A      0.903352  
      54A      0.914941    55A      0.918436    56A      0.922651  
      57A      0.931706    58A      0.961388    59A      0.986121  
      60A      0.988951    61A      0.990569    62A      0.991737  
      63A      0.993070    64A      0.996027    65A      1.015693  
      66A      1.028417    67A      1.031970    68A      1.036350  
      69A      1.054871    70A      1.054887    71A      1.054905  
      72A      1.055066    73A      1.055074    74A      1.055074  
      75A      1.055076    76A      1.055319    77A      1.055349  
      78A      1.055349    79A      1.055349    80A      1.055353  
      81A      1.060816    82A      1.064516    83A      1.083389  
      84A      1.105532    85A      1.110711    86A      1.110715  
      87A      1.110726    88A      1.110763    89A      1.110883  
      90A      1.110973    91A      1.111085    92A      1.118022  
      93A      1.138086    94A      1.153844    95A      1.176883  
      96A      1.188959    97A      1.269302    98A      1.512366  
      99A      1.537832   100A      1.585016   101A      1.806766  
     102A      1.825195   103A      1.989674   104A      2.119841  
     105A      2.263124   106A      2.316932   107A      2.332352  
     108A      2.421288   109A      2.421667   110A      2.452144  
     111A      2.487314   112A      2.680693   113A      2.698484  
     114A      2.773943   115A      2.815418   116A      2.825062  
     117A      2.834558   118A      2.852855   119A      2.855095  
     120A      2.855781   121A      2.859909   122A      2.865934  
     123A      2.872345   124A      2.886709   125A      3.120301  
     126A      3.120305   127A      3.120330   128A      3.120379  
     129A      3.120382   130A      3.120383   131A      3.120386  
     132A      3.120459   133A      3.120514   134A      3.120514  
     135A      3.120514   136A      3.120515   137A      3.121265  
     138A      3.121960   139A      3.287209   140A      3.287217  
     141A      3.287218   142A      3.287235   143A      3.287262  
     144A      3.287415   145A      3.287507   146A      3.288612  
     147A      3.296083   148A      3.300179   149A      3.658408  
     150A      3.748509   151A      4.019811   152A      4.086296  
     153A      4.167787   154A      4.251202   155A      4.290744  
     156A      4.377003   157A      4.378737   158A      4.407253  
     159A      4.521610   160A      4.733246   161A      4.849125  
     162A      5.153412   163A      5.156191   164A      5.262575  
     165A      5.333248   166A      5.528721   167A      5.672797  
     168A      6.185057   169A      6.521263   170A      6.715305  
     171A      6.906102   172A      7.138774   173A      7.260551  
     174A      7.311567   175A      7.321046   176A      7.335535  
     177A      7.362623   178A      7.542902   179A      7.907659  
     180A      7.933539   181A      8.818759   182A      9.112220  
     183A      9.128214   184A     13.441073   185A     13.443276  
     186A     13.444553   187A     13.447929   188A     13.451860  
     189A     13.455237   190A     15.790503   191A     26.130532  
     192A     26.130533   193A     26.130533   194A     26.130542  
     195A     26.130603   196A     26.130745   197A     26.130774  
     198A     26.131753   199A     26.137494   200A     26.140623  
     201A     45.131352   202A     45.144597   203A    138.384662  
     204A    138.387991   205A    138.389931   206A    138.395123  
     207A    138.401415   208A    138.406489   209A    707.709063  
     210A    707.743791  

    Final Occupation by Irrep:
              A 
    DOCC [     5 ]
    NA   [     5 ]
    NB   [     5 ]

  @DF-RHF Final Energy:   -76.06048253166631

   => Energetics <=

    Nuclear Repulsion Energy =              9.1801978479270687
    One-Electron Energy =                -123.0163210084283918
    Two-Electron Energy =                  37.7756406288350348
    Total Energy =                        -76.0604825316662954

Computation Completed


Properties will be evaluated at   0.000000,   0.000000,   0.000000 [a0]

Properties computed using the SCF density matrix


 Multipole Moments:

 ------------------------------------------------------------------------------------
     Multipole            Electronic (a.u.)      Nuclear  (a.u.)        Total (a.u.)
 ------------------------------------------------------------------------------------

 L = 1.  Multiply by 2.5417464519 to convert [e a0] to [Debye]
 Dipole X            :         -1.4421252            2.2243513            0.7822261
 Dipole Y            :          0.0000000            0.0000000            0.0000000
 Dipole Z            :          0.0000000            0.0000000            0.0000000
 Magnitude           :                                                    0.7822261

 ------------------------------------------------------------------------------------

*** tstop() called on moses-razer at Thu Jan  4 17:35:55 2024
Module time:
	user time   =       9.66 seconds =       0.16 minutes
	system time =       0.58 seconds =       0.01 minutes
	total time  =          4 seconds =       0.07 minutes
Total time:
	user time   =      31.62 seconds =       0.53 minutes
	system time =       2.33 seconds =       0.04 minutes
	total time  =         15 seconds =       0.25 minutes

*** tstart() called on moses-razer
*** at Thu Jan  4 17:35:55 2024


  //>>>>>>>>>>>>>>>>>>>>>>>>>>>>>>>>>>>//
  //               DFMP2               //
  //<<<<<<<<<<<<<<<<<<<<<<<<<<<<<<<<<<<//

   => Loading Basis Set <=

    Name: (AUG-CC-PVTZ AUX)
    Role: RIFIT
    Keyword: DF_BASIS_MP2
    atoms 1   entry O          line   264 file /home/kchung25/anaconda3/envs/p415env/share/psi4/basis/aug-cc-pvtz-ri.gbs 
    atoms 2-3 entry H          line    30 file /home/kchung25/anaconda3/envs/p415env/share/psi4/basis/aug-cc-pvtz-ri.gbs 
    atoms 4-5 entry BR         line  1248 file /home/kchung25/anaconda3/envs/p415env/share/psi4/basis/aug-cc-pvtz-ri.gbs 

	 --------------------------------------------------------
	                          DF-MP2                         
	      2nd-Order Density-Fitted Moller-Plesset Theory     
	              RMP2 Wavefunction,   6 Threads             
	                                                         
	        Rob Parrish, Justin Turney, Andy Simmonett,      
	           Ed Hohenstein, and C. David Sherrill          
	 --------------------------------------------------------

   => Auxiliary Basis Set <=

  Basis Set: (AUG-CC-PVTZ AUX)
    Blend: AUG-CC-PVTZ-RI
    Number of shells: 142
    Number of basis functions: 580
    Number of Cartesian functions: 768
    Spherical Harmonics?: true
    Max angular momentum: 5

	 --------------------------------------------------------
	                 NBF =   210, NAUX =   580
	 --------------------------------------------------------
	   CLASS    FOCC     OCC    AOCC    AVIR     VIR    FVIR
	   PAIRS       0       5       5     205     205       0
	 --------------------------------------------------------

	-----------------------------------------------------------
	 ==================> DF-MP2 Energies <==================== 
	-----------------------------------------------------------
	 Reference Energy          =     -76.0604825316663096 [Eh]
	 Singles Energy            =      -0.0000000000000000 [Eh]
	 Same-Spin Energy          =      -0.0683679829753058 [Eh]
	 Opposite-Spin Energy      =      -0.2152505542981085 [Eh]
	 Correlation Energy        =      -0.2836185372734142 [Eh]
	 Total Energy              =     -76.3441010689397217 [Eh]
	-----------------------------------------------------------
	 ================> DF-SCS-MP2 Energies <================== 
	-----------------------------------------------------------
	 SCS Same-Spin Scale       =       0.3333333333333333 [-]
	 SCS Opposite-Spin Scale   =       1.2000000000000000 [-]
	 SCS Same-Spin Energy      =      -0.0227893276584353 [Eh]
	 SCS Opposite-Spin Energy  =      -0.2583006651577301 [Eh]
	 SCS Correlation Energy    =      -0.2810899928161654 [Eh]
	 SCS Total Energy          =     -76.3415725244824728 [Eh]
	-----------------------------------------------------------


*** tstop() called on moses-razer at Thu Jan  4 17:36:00 2024
Module time:
	user time   =       7.13 seconds =       0.12 minutes
	system time =       0.30 seconds =       0.00 minutes
	total time  =          5 seconds =       0.08 minutes
Total time:
	user time   =      38.76 seconds =       0.65 minutes
	system time =       2.63 seconds =       0.04 minutes
	total time  =         20 seconds =       0.33 minutes

    Psi4 stopped on: Thursday, 04 January 2024 05:36PM
    Psi4 wall time for execution: 0:00:09.15


    -----------------------------------------------------------------------
          Psi4: An Open-Source Ab Initio Electronic Structure Package
                               Psi4 1.9 release

                         Git: Rev {} zzzzzzz 


    D. G. A. Smith, L. A. Burns, A. C. Simmonett, R. M. Parrish,
    M. C. Schieber, R. Galvelis, P. Kraus, H. Kruse, R. Di Remigio,
    A. Alenaizan, A. M. James, S. Lehtola, J. P. Misiewicz, M. Scheurer,
    R. A. Shaw, J. B. Schriber, Y. Xie, Z. L. Glick, D. A. Sirianni,
    J. S. O'Brien, J. M. Waldrop, A. Kumar, E. G. Hohenstein,
    B. P. Pritchard, B. R. Brooks, H. F. Schaefer III, A. Yu. Sokolov,
    K. Patkowski, A. E. DePrince III, U. Bozkaya, R. A. King,
    F. A. Evangelista, J. M. Turney, T. D. Crawford, C. D. Sherrill,
    J. Chem. Phys. 152(18) 184108 (2020). https://doi.org/10.1063/5.0006002

                            Additional Code Authors
    E. T. Seidl, C. L. Janssen, E. F. Valeev, M. L. Leininger,
    J. F. Gonthier, R. M. Richard, H. R. McAlexander, M. Saitow, X. Wang,
    P. Verma, M. H. Lechner, A. Jiang, S. Behnle, A. G. Heide,
    M. F. Herbst, and D. L. Poole

             Previous Authors, Complete List of Code Contributors,
                       and Citations for Specific Modules
    https://github.com/psi4/psi4/blob/master/codemeta.json
    https://github.com/psi4/psi4/graphs/contributors
    http://psicode.org/psi4manual/master/introduction.html#citing-psifour

    -----------------------------------------------------------------------


    Psi4 started on: Thursday, 04 January 2024 05:35PM

    Process ID: 494900
    Host:       moses-razer
    PSIDATADIR: /home/kchung25/anaconda3/envs/psi4_19/share/psi4
    Memory:     55.9 GiB
    Threads:    6
    
  ==> Input QCSchema <==

--------------------------------------------------------------------------
{'driver': 'energy',
 'extras': {'psiapi': True, 'wfn_qcvars_only': True},
 'id': None,
 'keywords': {'SCF_TYPE': 'DF', 'function_kwargs': {}},
 'model': {'basis': 'aug-cc-pvtz', 'method': 'mp2'},
 'molecule': {'atom_labels': ['', '', '', '', ''],
              'atomic_numbers': [8, 1, 1, 35, 35],
              'extras': {},
              'fix_com': True,
              'fix_orientation': True,
              'fix_symmetry': 'c1',
              'fragment_charges': [0.0, -2.0],
              'fragment_multiplicities': [1, 1],
              'fragments': [[0, 1, 2], [3, 4]],
              'geometry': [0.0, 0.0, 0.0, 1.1121756344246994, 1.4303677194292883, 0.0, 1.1121756344246994,
                           -1.4303677194292883, 0.0, 8.979521234453237, 8.979521234453237, 0.0, 8.979521234453237,
                           -8.979521234453237, 0.0],
              'mass_numbers': [16, 1, 1, 79, 79],
              'masses': [15.99491461957, 1.00782503223, 1.00782503223, 78.9183376, 78.9183376],
              'molecular_charge': -2.0,
              'molecular_multiplicity': 1,
              'name': 'dimer',
              'provenance': {'creator': 'QCElemental',
                             'routine': 'qcelemental.molparse.from_string',
                             'version': '0.27.1'},
              'real': [True, True, True, True, True],
              'schema_name': 'qcschema_molecule',
              'schema_version': 2,
              'symbols': ['O', 'H', 'H', 'Br', 'Br'],
              'validated': True},
 'protocols': {'stdout': True},
 'provenance': {'creator': 'QCElemental', 'routine': 'qcelemental.models.results', 'version': '0.27.1'},
 'schema_name': 'qcschema_input',
 'schema_version': 1}
--------------------------------------------------------------------------

Scratch directory: /scratch/
   => Libint2 <=

    Primary   basis highest AM E, G, H:  5, 4, 3
    Auxiliary basis highest AM E, G, H:  6, 5, 4
    Onebody   basis highest AM E, G, H:  6, 5, 4
    Solid Harmonics ordering:            gaussian

*** tstart() called on moses-razer
*** at Thu Jan  4 17:36:00 2024

   => Loading Basis Set <=

    Name: AUG-CC-PVTZ
    Role: ORBITAL
    Keyword: BASIS
    atoms 1   entry O          line   331 file /home/kchung25/anaconda3/envs/p415env/share/psi4/basis/aug-cc-pvtz.gbs 
    atoms 2-3 entry H          line    40 file /home/kchung25/anaconda3/envs/p415env/share/psi4/basis/aug-cc-pvtz.gbs 
    atoms 4-5 entry BR         line  4564 file /home/kchung25/anaconda3/envs/p415env/share/psi4/basis/aug-cc-pvtz.gbs 


         ---------------------------------------------------------
                                   SCF
               by Justin Turney, Rob Parrish, Andy Simmonett
                          and Daniel G. A. Smith
                              RHF Reference
                        6 Threads,  57220 MiB Core
         ---------------------------------------------------------

  ==> Geometry <==

    Molecular point group: c1
    Full point group: C2v

    Geometry (in Bohr), charge = -2, multiplicity = 1:

       Center              X                  Y                   Z               Mass       
    ------------   -----------------  -----------------  -----------------  -----------------
         O            0.000000000000     0.000000000000     0.000000000000    15.994914619570
         H            1.112175634425     1.430367719429     0.000000000000     1.007825032230
         H            1.112175634425    -1.430367719429     0.000000000000     1.007825032230
         BR           8.979521234453     8.979521234453     0.000000000000    78.918337600000
         BR           8.979521234453    -8.979521234453     0.000000000000    78.918337600000

  Running in c1 symmetry.

  Rotational constants: A =      0.00473  B =      0.00473  C =      0.00236 [cm^-1]
  Rotational constants: A =    141.78020  B =    141.76204  C =     70.88556 [MHz]
  Nuclear repulsion =  133.273694514193267

  Charge       = -2
  Multiplicity = 1
  Electrons    = 82
  Nalpha       = 41
  Nbeta        = 41

  ==> Algorithm <==

  SCF Algorithm Type is DF.
  DIIS enabled.
  MOM disabled.
  Fractional occupation disabled.
  Guess Type is SAD.
  Energy threshold   = 1.00e-08
  Density threshold  = 1.00e-08
  Integral threshold = 1.00e-12

  ==> Primary Basis <==

  Basis Set: AUG-CC-PVTZ
    Blend: AUG-CC-PVTZ
    Number of shells: 70
    Number of basis functions: 210
    Number of Cartesian functions: 243
    Spherical Harmonics?: true
    Max angular momentum: 3

   => Loading Basis Set <=

    Name: (AUG-CC-PVTZ AUX)
    Role: JKFIT
    Keyword: DF_BASIS_SCF
    atoms 1   entry O          line   286 file /home/kchung25/anaconda3/envs/p415env/share/psi4/basis/aug-cc-pvtz-jkfit.gbs 
    atoms 2-3 entry H          line    70 file /home/kchung25/anaconda3/envs/p415env/share/psi4/basis/aug-cc-pvtz-jkfit.gbs 
    atoms 4-5 entry BR         line  1492 file /home/kchung25/anaconda3/envs/p415env/share/psi4/basis/aug-cc-pvtz-jkfit.gbs 

  ==> Integral Setup <==

  DFHelper Memory: AOs need 0.171 GiB; user supplied 41.910 GiB. 
  Using in-core AOs.

  ==> MemDFJK: Density-Fitted J/K Matrices <==

    J tasked:                   Yes
    K tasked:                   Yes
    wK tasked:                   No
    OpenMP threads:               6
    Memory [MiB]:             42915
    Algorithm:                 Core
    Schwarz Cutoff:           1E-12
    Mask sparsity (%):      31.0113
    Fitting Condition:        1E-10

   => Auxiliary Basis Set <=

  Basis Set: (AUG-CC-PVTZ AUX)
    Blend: AUG-CC-PVTZ-JKFIT
    Number of shells: 174
    Number of basis functions: 692
    Number of Cartesian functions: 899
    Spherical Harmonics?: true
    Max angular momentum: 4

  Minimum eigenvalue in the overlap matrix is 3.7577246171E-04.
  Reciprocal condition number of the overlap matrix is 5.4814528502E-05.
    Using symmetric orthogonalization.

  ==> Pre-Iterations <==

  SCF Guess: Superposition of Atomic Densities via on-the-fly atomic UHF (no occupation information).

   -------------------------
    Irrep   Nso     Nmo    
   -------------------------
     A        210     210 
   -------------------------
    Total     210     210
   -------------------------

  ==> Iterations <==

                           Total Energy        Delta E     RMS |[F,P]|

   @DF-RHF iter SAD: -5216.30505120973885   -5.21631e+03   0.00000e+00 
   @DF-RHF iter   1: -5220.44465065345867   -4.13960e+00   7.37785e-03 ADIIS/DIIS
   @DF-RHF iter   2: -5220.91292424264157   -4.68274e-01   4.17780e-03 ADIIS/DIIS
   @DF-RHF iter   3: -5221.08010824286248   -1.67184e-01   1.75699e-04 ADIIS/DIIS
   @DF-RHF iter   4: -5221.08065683152472   -5.48589e-04   9.03674e-05 DIIS
   @DF-RHF iter   5: -5221.08077926156511   -1.22430e-04   1.45179e-05 DIIS
   @DF-RHF iter   6: -5221.08078904650483   -9.78494e-06   2.82121e-06 DIIS
   @DF-RHF iter   7: -5221.08078950743220   -4.60927e-07   7.20642e-07 DIIS
   @DF-RHF iter   8: -5221.08078953458607   -2.71539e-08   1.81300e-07 DIIS
   @DF-RHF iter   9: -5221.08078953666700   -2.08092e-09   2.29069e-08 DIIS
   @DF-RHF iter  10: -5221.08078953669428   -2.72848e-11   5.86317e-09 DIIS
  Energy and wave function converged.


  ==> Post-Iterations <==

    Orbital Energies [Eh]
    ---------------------

    Doubly Occupied:                                                      

       1A   -489.669393     2A   -489.669393     3A    -64.809495  
       4A    -64.809495     5A    -58.163964     6A    -58.163964  
       7A    -58.163961     8A    -58.163961     9A    -58.163956  
      10A    -58.163956    11A    -20.406326    12A     -9.481920  
      13A     -9.481920    14A     -7.089279    15A     -7.089279  
      16A     -7.089264    17A     -7.089264    18A     -7.089232  
      19A     -7.089232    20A     -2.830958    21A     -2.830958  
      22A     -2.830957    23A     -2.830957    24A     -2.830917  
      25A     -2.830917    26A     -2.830897    27A     -2.830897  
      28A     -2.830889    29A     -2.830889    30A     -1.192130  
      31A     -0.635053    32A     -0.635053    33A     -0.555698  
      34A     -0.426552    35A     -0.350543    36A     -0.088543  
      37A     -0.088534    38A     -0.088431    39A     -0.088427  
      40A     -0.088202    41A     -0.088158  

    Virtual:                                                              

      42A      0.193032    43A      0.216128    44A      0.276983  
      45A      0.294184    46A      0.298932    47A      0.302845  
      48A      0.306341    49A      0.309144    50A      0.311529  
      51A      0.314160    52A      0.330819    53A      0.340241  
      54A      0.359159    55A      0.363775    56A      0.413187  
      57A      0.416055    58A      0.432389    59A      0.465186  
      60A      0.473666    61A      0.522696    62A      0.535543  
      63A      0.541350    64A      0.541407    65A      0.541657  
      66A      0.541844    67A      0.542485    68A      0.542703  
      69A      0.543039    70A      0.543298    71A      0.557165  
      72A      0.629154    73A      0.656319    74A      0.768525  
      75A      0.786285    76A      0.791152    77A      0.792964  
      78A      0.799637    79A      0.801283    80A      0.809365  
      81A      0.830801    82A      0.865195    83A      0.886623  
      84A      0.887432    85A      0.967020    86A      0.987334  
      87A      1.000041    88A      1.013882    89A      1.061143  
      90A      1.074783    91A      1.076070    92A      1.077571  
      93A      1.085057    94A      1.085151    95A      1.085278  
      96A      1.085324    97A      1.085637    98A      1.085760  
      99A      1.087477   100A      1.090555   101A      1.091164  
     102A      1.092653   103A      1.117517   104A      1.124828  
     105A      1.216116   106A      1.231247   107A      1.248508  
     108A      1.260629   109A      1.260634   110A      1.260743  
     111A      1.260788   112A      1.261033   113A      1.261035  
     114A      1.261204   115A      1.261345   116A      1.261379  
     117A      1.261379   118A      1.261384   119A      1.261460  
     120A      1.267968   121A      1.274261   122A      1.275888  
     123A      1.341840   124A      1.354236   125A      1.426845  
     126A      1.675038   127A      1.700835   128A      1.748887  
     129A      1.966255   130A      1.991252   131A      2.156036  
     132A      2.282461   133A      2.421154   134A      2.455206  
     135A      2.458236   136A      2.458914   137A      2.464808  
     138A      2.465801   139A      2.473280   140A      2.475533  
     141A      2.490532   142A      2.579307   143A      2.579926  
     144A      2.590909   145A      2.617192   146A      2.617309  
     147A      2.617309   148A      2.617364   149A      2.617471  
     150A      2.617562   151A      2.617668   152A      2.618492  
     153A      2.619448   154A      2.633838   155A      2.636023  
     156A      2.636499   157A      2.636511   158A      2.636599  
     159A      2.636605   160A      2.636712   161A      2.636720  
     162A      2.636823   163A      2.636894   164A      2.636897  
     165A      2.636897   166A      2.636903   167A      2.636994  
     168A      2.654813   169A      2.662232   170A      2.841921  
     171A      2.857724   172A      2.938493   173A      2.978597  
     174A      3.047181   175A      3.810645   176A      3.810705  
     177A      3.839399   178A      3.911827   179A      4.183998  
     180A      4.248356   181A      4.330865   182A      4.414994  
     183A      4.453054   184A      4.541304   185A      4.542347  
     186A      4.570941   187A      4.685138   188A      4.896223  
     189A      5.013120   190A      5.317839   191A      5.318345  
     192A      5.424707   193A      5.495931   194A      5.690692  
     195A      5.833472   196A      6.346106   197A      6.681051  
     198A      6.875100   199A      7.066709   200A      7.298252  
     201A      7.420671   202A      7.472231   203A      7.480891  
     204A      7.495550   205A      7.523248   206A      7.704261  
     207A      8.067970   208A      8.094070   209A      8.980756  
     210A     15.952593  

    Final Occupation by Irrep:
              A 
    DOCC [    41 ]
    NA   [    41 ]
    NB   [    41 ]

  @DF-RHF Final Energy: -5221.08078953669428

   => Energetics <=

    Nuclear Repulsion Energy =            133.2736945141932665
    One-Electron Energy =               -7563.7453308775693586
    Two-Electron Energy =                2209.3908468266813543
    Total Energy =                      -5221.0807895366942830

Computation Completed


Properties will be evaluated at   0.000000,   0.000000,   0.000000 [a0]

Properties computed using the SCF density matrix


 Multipole Moments:

 ------------------------------------------------------------------------------------
     Multipole            Electronic (a.u.)      Nuclear  (a.u.)        Total (a.u.)
 ------------------------------------------------------------------------------------

 L = 1.  Multiply by 2.5417464519 to convert [e a0] to [Debye]
 Dipole X            :       -647.8660403          630.7908377          -17.0752026
 Dipole Y            :          0.0000000            0.0000000            0.0000000
 Dipole Z            :          0.0000000            0.0000000            0.0000000
 Magnitude           :                                                   17.0752026

 ------------------------------------------------------------------------------------

*** tstop() called on moses-razer at Thu Jan  4 17:36:05 2024
Module time:
	user time   =      13.54 seconds =       0.23 minutes
	system time =       1.09 seconds =       0.02 minutes
	total time  =          5 seconds =       0.08 minutes
Total time:
	user time   =      52.52 seconds =       0.88 minutes
	system time =       3.73 seconds =       0.06 minutes
	total time  =         25 seconds =       0.42 minutes

*** tstart() called on moses-razer
*** at Thu Jan  4 17:36:05 2024


  //>>>>>>>>>>>>>>>>>>>>>>>>>>>>>>>>>>>//
  //               DFMP2               //
  //<<<<<<<<<<<<<<<<<<<<<<<<<<<<<<<<<<<//

   => Loading Basis Set <=

    Name: (AUG-CC-PVTZ AUX)
    Role: RIFIT
    Keyword: DF_BASIS_MP2
    atoms 1   entry O          line   264 file /home/kchung25/anaconda3/envs/p415env/share/psi4/basis/aug-cc-pvtz-ri.gbs 
    atoms 2-3 entry H          line    30 file /home/kchung25/anaconda3/envs/p415env/share/psi4/basis/aug-cc-pvtz-ri.gbs 
    atoms 4-5 entry BR         line  1248 file /home/kchung25/anaconda3/envs/p415env/share/psi4/basis/aug-cc-pvtz-ri.gbs 

	 --------------------------------------------------------
	                          DF-MP2                         
	      2nd-Order Density-Fitted Moller-Plesset Theory     
	              RMP2 Wavefunction,   6 Threads             
	                                                         
	        Rob Parrish, Justin Turney, Andy Simmonett,      
	           Ed Hohenstein, and C. David Sherrill          
	 --------------------------------------------------------

   => Auxiliary Basis Set <=

  Basis Set: (AUG-CC-PVTZ AUX)
    Blend: AUG-CC-PVTZ-RI
    Number of shells: 142
    Number of basis functions: 580
    Number of Cartesian functions: 768
    Spherical Harmonics?: true
    Max angular momentum: 5

	 --------------------------------------------------------
	                 NBF =   210, NAUX =   580
	 --------------------------------------------------------
	   CLASS    FOCC     OCC    AOCC    AVIR     VIR    FVIR
	   PAIRS       0      41      41     169     169       0
	 --------------------------------------------------------

	-----------------------------------------------------------
	 ==================> DF-MP2 Energies <==================== 
	-----------------------------------------------------------
	 Reference Energy          =   -5221.0807895366942830 [Eh]
	 Singles Energy            =      -0.0000000000000000 [Eh]
	 Same-Spin Energy          =      -0.2417123920697172 [Eh]
	 Opposite-Spin Energy      =      -0.6169980972337006 [Eh]
	 Correlation Energy        =      -0.8587104893034178 [Eh]
	 Total Energy              =   -5221.9395000259974040 [Eh]
	-----------------------------------------------------------
	 ================> DF-SCS-MP2 Energies <================== 
	-----------------------------------------------------------
	 SCS Same-Spin Scale       =       0.3333333333333333 [-]
	 SCS Opposite-Spin Scale   =       1.2000000000000000 [-]
	 SCS Same-Spin Energy      =      -0.0805707973565724 [Eh]
	 SCS Opposite-Spin Energy  =      -0.7403977166804406 [Eh]
	 SCS Correlation Energy    =      -0.8209685140370130 [Eh]
	 SCS Total Energy          =   -5221.9017580507315870 [Eh]
	-----------------------------------------------------------


*** tstop() called on moses-razer at Thu Jan  4 17:36:10 2024
Module time:
	user time   =       8.30 seconds =       0.14 minutes
	system time =       0.40 seconds =       0.01 minutes
	total time  =          5 seconds =       0.08 minutes
Total time:
	user time   =      60.83 seconds =       1.01 minutes
	system time =       4.13 seconds =       0.07 minutes
	total time  =         30 seconds =       0.50 minutes

    Psi4 stopped on: Thursday, 04 January 2024 05:36PM
    Psi4 wall time for execution: 0:00:10.46


  //>>>>>>>>>>>>>>>>>>>>>>>>>>>>>>>>>>>//
  //          ManyBody Results         //
  //<<<<<<<<<<<<<<<<<<<<<<<<<<<<<<<<<<<//


   ==> N-Body: Counterpoise Corrected (CP) energies <==

        n-Body     Total Energy            Interaction Energy                          N-body Contribution to Interaction Energy
                   [Eh]                    [Eh]                  [kcal/mol]            [Eh]                  [kcal/mol]
             1  N/A                         0.000000000000        0.000000000000        0.000000000000        0.000000000000
  FULL/RTN   2  N/A                        -0.007996082747       -5.017617676860       -0.007996082747       -5.017617676860


    Psi4 stopped on: Thursday, 04 January 2024 05:36PM
    Psi4 wall time for execution: 0:00:31.70

*** Psi4 exiting successfully. Buy a developer a beer!
