
    -----------------------------------------------------------------------
          Psi4: An Open-Source Ab Initio Electronic Structure Package
                               Psi4 1.8.2 release

                         Git: Rev {} zzzzzzz 


    D. G. A. Smith, L. A. Burns, A. C. Simmonett, R. M. Parrish,
    M. C. Schieber, R. Galvelis, P. Kraus, H. Kruse, R. Di Remigio,
    A. Alenaizan, A. M. James, S. Lehtola, J. P. Misiewicz, M. Scheurer,
    R. A. Shaw, J. B. Schriber, Y. Xie, Z. L. Glick, D. A. Sirianni,
    J. S. O'Brien, J. M. Waldrop, A. Kumar, E. G. Hohenstein,
    B. P. Pritchard, B. R. Brooks, H. F. Schaefer III, A. Yu. Sokolov,
    K. Patkowski, A. E. DePrince III, U. Bozkaya, R. A. King,
    F. A. Evangelista, J. M. Turney, T. D. Crawford, C. D. Sherrill,
    J. Chem. Phys. 152(18) 184108 (2020). https://doi.org/10.1063/5.0006002

                            Additional Code Authors
    E. T. Seidl, C. L. Janssen, E. F. Valeev, M. L. Leininger,
    J. F. Gonthier, R. M. Richard, H. R. McAlexander, M. Saitow, X. Wang,
    P. Verma, M. H. Lechner, A. Jiang, S. Behnle, A. G. Heide,
    M. F. Herbst, and D. L. Poole

             Previous Authors, Complete List of Code Contributors,
                       and Citations for Specific Modules
    https://github.com/psi4/psi4/blob/master/codemeta.json
    https://github.com/psi4/psi4/graphs/contributors
    http://psicode.org/psi4manual/master/introduction.html#citing-psifour

    -----------------------------------------------------------------------


    Psi4 started on: Monday, 22 January 2024 01:31PM

    Process ID: 59290
    Host:       ddmfs1
    PSIDATADIR: /ddmfs1b/softs/psi4conda/share/psi4
    Memory:     500.0 MiB
    Threads:    20
    
  ==> Input File <==

--------------------------------------------------------------------------
MEMORY 60 GB

molecule dimer {
0 1
Gh(Li)     0.000000     0.000000     0.000000
Gh(O)      1.263765    -0.267496     1.619238
Gh(H)      2.159690     0.080433     1.842446
Gh(H)      0.723105    -0.277224     2.376080
O         -1.351525    -1.332306     0.260912
H         -2.108274    -1.702532    -0.181780
H         -1.298557    -1.835541     1.074812
Gh(O)      1.333124     0.996804    -0.988147
Gh(H)      2.221731     0.663227    -1.128336
Gh(H)      1.028669     1.301661    -1.813392
Gh(O)     -1.085799     1.589562     0.765920
Gh(H)     -1.584621     2.287494     0.264073
Gh(H)     -1.694977     1.307918     1.432451

units ang
no_reorient
no_com
symmetry c1
}

set {
basis        aug-cc-pVTZ
scf_type     df
}

energy("mp2")
--------------------------------------------------------------------------

  Memory set to  55.879 GiB by Python driver.

Scratch directory: /ddmfs1a/scratch/
   => Libint2 <=

    Primary   basis highest AM E, G, H:  5, 4, 3
    Auxiliary basis highest AM E, G, H:  6, 5, 4
    Onebody   basis highest AM E, G, H:  6, 5, 4
    Solid Harmonics ordering:            gaussian

*** tstart() called on ddmfs1
*** at Mon Jan 22 13:31:50 2024

   => Loading Basis Set <=

    Name: AUG-CC-PVTZ
    Role: ORBITAL
    Keyword: BASIS
    atoms 1                     entry LI         line    85 file /ddmfs1b/softs/psi4conda/share/psi4/basis/aug-cc-pvtz.gbs 
    atoms 2, 5, 8, 11           entry O          line   331 file /ddmfs1b/softs/psi4conda/share/psi4/basis/aug-cc-pvtz.gbs 
    atoms 3-4, 6-7, 9-10, 12-13 entry H          line    40 file /ddmfs1b/softs/psi4conda/share/psi4/basis/aug-cc-pvtz.gbs 


         ---------------------------------------------------------
                                   SCF
               by Justin Turney, Rob Parrish, Andy Simmonett
                          and Daniel G. A. Smith
                              RHF Reference
                       20 Threads,  57220 MiB Core
         ---------------------------------------------------------

  ==> Geometry <==

    Molecular point group: c1
    Full point group: C1

    Geometry (in Angstrom), charge = 0, multiplicity = 1:

       Center              X                  Y                   Z               Mass       
    ------------   -----------------  -----------------  -----------------  -----------------
      Gh(LI)          0.000000000000     0.000000000000     0.000000000000     7.016003436600
      Gh(O)           1.263765000000    -0.267496000000     1.619238000000    15.994914619570
      Gh(H)           2.159690000000     0.080433000000     1.842446000000     1.007825032230
      Gh(H)           0.723105000000    -0.277224000000     2.376080000000     1.007825032230
         O           -1.351525000000    -1.332306000000     0.260912000000    15.994914619570
         H           -2.108274000000    -1.702532000000    -0.181780000000     1.007825032230
         H           -1.298557000000    -1.835541000000     1.074812000000     1.007825032230
      Gh(O)           1.333124000000     0.996804000000    -0.988147000000    15.994914619570
      Gh(H)           2.221731000000     0.663227000000    -1.128336000000     1.007825032230
      Gh(H)           1.028669000000     1.301661000000    -1.813392000000     1.007825032230
      Gh(O)          -1.085799000000     1.589562000000     0.765920000000    15.994914619570
      Gh(H)          -1.584621000000     2.287494000000     0.264073000000     1.007825032230
      Gh(H)          -1.694977000000     1.307918000000     1.432451000000     1.007825032230

  Running in c1 symmetry.

  Rotational constants: A =      0.09842  B =      0.07693  C =      0.07256 [cm^-1]
  Rotational constants: A =   2950.42808  B =   2306.20669  C =   2175.16782 [MHz]
  Nuclear repulsion =    9.218202566094851

  Charge       = 0
  Multiplicity = 1
  Electrons    = 10
  Nalpha       = 5
  Nbeta        = 5

  ==> Algorithm <==

  SCF Algorithm Type is DF.
  DIIS enabled.
  MOM disabled.
  Fractional occupation disabled.
  Guess Type is SAD.
  Energy threshold   = 1.00e-08
  Density threshold  = 1.00e-08
  Integral threshold = 1.00e-12

  ==> Primary Basis <==

  Basis Set: AUG-CC-PVTZ
    Blend: AUG-CC-PVTZ
    Number of shells: 142
    Number of basis functions: 414
    Number of Cartesian functions: 475
    Spherical Harmonics?: true
    Max angular momentum: 3

   => Loading Basis Set <=

    Name: (AUG-CC-PVTZ AUX)
    Role: JKFIT
    Keyword: DF_BASIS_SCF
    atoms 1                     entry LI         line    54 file /ddmfs1b/softs/psi4conda/share/psi4/basis/def2-universal-jkfit.gbs 
    atoms 2, 5, 8, 11           entry O          line   286 file /ddmfs1b/softs/psi4conda/share/psi4/basis/aug-cc-pvtz-jkfit.gbs 
    atoms 3-4, 6-7, 9-10, 12-13 entry H          line    70 file /ddmfs1b/softs/psi4conda/share/psi4/basis/aug-cc-pvtz-jkfit.gbs 

  ==> Integral Setup <==

  DFHelper Memory: AOs need 1.084 GiB; user supplied 41.910 GiB. 
  Using in-core AOs.

  ==> MemDFJK: Density-Fitted J/K Matrices <==

    J tasked:                   Yes
    K tasked:                   Yes
    wK tasked:                   No
    OpenMP threads:              20
    Memory [MiB]:             42915
    Algorithm:                 Core
    Schwarz Cutoff:           1E-12
    Mask sparsity (%):       4.4949
    Fitting Condition:        1E-10

   => Auxiliary Basis Set <=

  Basis Set: (AUG-CC-PVTZ AUX)
    Blend: AUG-CC-PVTZ-JKFIT + DEF2-UNIVERSAL-JKFIT
    Number of shells: 249
    Number of basis functions: 835
    Number of Cartesian functions: 1024
    Spherical Harmonics?: true
    Max angular momentum: 4

  Minimum eigenvalue in the overlap matrix is 1.2953180222E-05.
  Reciprocal condition number of the overlap matrix is 9.0427579658E-07.
    Using symmetric orthogonalization.

  ==> Pre-Iterations <==

  SCF Guess: Superposition of Atomic Densities via on-the-fly atomic UHF (no occupation information).

   -------------------------
    Irrep   Nso     Nmo    
   -------------------------
     A        414     414 
   -------------------------
    Total     414     414
   -------------------------

  ==> Iterations <==

                           Total Energy        Delta E     RMS |[F,P]|

   @DF-RHF iter SAD:   -75.48153991059408   -7.54815e+01   0.00000e+00 
   @DF-RHF iter   1:   -75.97650398183094   -4.94964e-01   1.13290e-03 ADIIS/DIIS
   @DF-RHF iter   2:   -76.02920252125951   -5.26985e-02   7.68824e-04 ADIIS/DIIS
   @DF-RHF iter   3:   -76.06036378948974   -3.11613e-02   5.22282e-05 DIIS
   @DF-RHF iter   4:   -76.06074683474993   -3.83045e-04   1.23670e-05 DIIS
   @DF-RHF iter   5:   -76.06077024375458   -2.34090e-05   2.80201e-06 DIIS
   @DF-RHF iter   6:   -76.06077214761629   -1.90386e-06   6.12075e-07 DIIS
   @DF-RHF iter   7:   -76.06077224780957   -1.00193e-07   1.10615e-07 DIIS
   @DF-RHF iter   8:   -76.06077225069780   -2.88823e-09   1.84101e-08 DIIS
   @DF-RHF iter   9:   -76.06077225075984   -6.20446e-11   4.46009e-09 DIIS
  Energy and wave function converged.


  ==> Post-Iterations <==

    Orbital Energies [Eh]
    ---------------------

    Doubly Occupied:                                                      

       1A    -20.566965     2A     -1.355301     3A     -0.717082  
       4A     -0.587105     5A     -0.510756  

    Virtual:                                                              

       6A      0.008767     7A      0.017697     8A      0.018539  
       9A      0.019506    10A      0.043916    11A      0.053889  
      12A      0.057350    13A      0.059159    14A      0.062045  
      15A      0.065563    16A      0.067356    17A      0.069909  
      18A      0.073657    19A      0.085987    20A      0.087790  
      21A      0.103403    22A      0.142209    23A      0.148073  
      24A      0.151674    25A      0.154051    26A      0.157779  
      27A      0.161806    28A      0.166503    29A      0.169991  
      30A      0.174351    31A      0.179819    32A      0.182721  
      33A      0.189306    34A      0.192964    35A      0.205552  
      36A      0.216119    37A      0.217879    38A      0.230627  
      39A      0.232652    40A      0.254045    41A      0.264485  
      42A      0.267609    43A      0.289717    44A      0.300547  
      45A      0.315275    46A      0.322595    47A      0.323870  
      48A      0.336342    49A      0.346457    50A      0.354304  
      51A      0.359159    52A      0.367430    53A      0.367723  
      54A      0.375023    55A      0.378829    56A      0.383417  
      57A      0.385727    58A      0.393083    59A      0.398612  
      60A      0.400372    61A      0.405895    62A      0.413653  
      63A      0.419565    64A      0.427344    65A      0.431157  
      66A      0.437267    67A      0.440082    68A      0.444917  
      69A      0.452168    70A      0.458389    71A      0.464921  
      72A      0.468353    73A      0.476772    74A      0.480536  
      75A      0.489071    76A      0.492845    77A      0.499287  
      78A      0.507775    79A      0.515950    80A      0.521472  
      81A      0.535214    82A      0.556727    83A      0.560163  
      84A      0.570916    85A      0.583815    86A      0.596108  
      87A      0.607960    88A      0.618936    89A      0.622933  
      90A      0.647193    91A      0.679073    92A      0.698446  
      93A      0.715793    94A      0.756541    95A      0.772398  
      96A      0.776096    97A      0.793852    98A      0.798023  
      99A      0.813666   100A      0.822314   101A      0.830080  
     102A      0.837739   103A      0.845621   104A      0.853980  
     105A      0.859065   106A      0.865531   107A      0.873974  
     108A      0.881237   109A      0.885335   110A      0.890924  
     111A      0.895576   112A      0.904602   113A      0.912324  
     114A      0.927410   115A      0.932993   116A      0.938838  
     117A      0.953181   118A      0.969212   119A      0.979449  
     120A      0.987071   121A      0.987384   122A      0.993245  
     123A      1.001511   124A      1.018333   125A      1.022413  
     126A      1.028929   127A      1.046293   128A      1.047133  
     129A      1.051724   130A      1.064266   131A      1.071323  
     132A      1.078961   133A      1.091337   134A      1.095150  
     135A      1.105247   136A      1.109144   137A      1.115457  
     138A      1.122297   139A      1.129487   140A      1.138343  
     141A      1.146763   142A      1.158459   143A      1.165945  
     144A      1.180744   145A      1.195909   146A      1.199627  
     147A      1.204683   148A      1.217235   149A      1.231778  
     150A      1.238094   151A      1.241228   152A      1.258432  
     153A      1.269302   154A      1.276388   155A      1.305197  
     156A      1.311144   157A      1.321998   158A      1.328052  
     159A      1.338512   160A      1.348525   161A      1.359010  
     162A      1.369437   163A      1.379901   164A      1.390187  
     165A      1.396011   166A      1.435833   167A      1.445357  
     168A      1.466425   169A      1.480873   170A      1.482700  
     171A      1.501346   172A      1.527137   173A      1.546395  
     174A      1.557309   175A      1.565676   176A      1.583737  
     177A      1.587687   178A      1.632931   179A      1.660756  
     180A      1.668199   181A      1.689555   182A      1.711088  
     183A      1.714202   184A      1.752225   185A      1.774057  
     186A      1.800341   187A      1.811148   188A      1.835578  
     189A      1.858440   190A      1.878261   191A      1.881186  
     192A      1.898391   193A      1.904238   194A      1.911579  
     195A      1.924552   196A      1.938821   197A      1.952747  
     198A      1.969354   199A      1.971491   200A      1.999740  
     201A      2.018756   202A      2.055988   203A      2.064648  
     204A      2.080881   205A      2.090953   206A      2.106770  
     207A      2.123324   208A      2.126743   209A      2.146222  
     210A      2.239757   211A      2.308240   212A      2.330953  
     213A      2.341625   214A      2.399413   215A      2.403311  
     216A      2.446197   217A      2.481028   218A      2.519648  
     219A      2.555564   220A      2.568504   221A      2.572823  
     222A      2.597641   223A      2.623243   224A      2.639282  
     225A      2.658570   226A      2.678257   227A      2.700411  
     228A      2.700982   229A      2.721685   230A      2.726930  
     231A      2.758852   232A      2.774166   233A      2.782260  
     234A      2.798822   235A      2.822607   236A      2.851321  
     237A      2.867781   238A      2.895457   239A      2.901866  
     240A      2.905688   241A      2.935315   242A      2.951390  
     243A      2.966153   244A      3.000115   245A      3.003062  
     246A      3.041733   247A      3.049240   248A      3.077427  
     249A      3.117268   250A      3.150559   251A      3.180371  
     252A      3.216397   253A      3.271081   254A      3.289557  
     255A      3.302730   256A      3.319209   257A      3.343562  
     258A      3.355489   259A      3.384069   260A      3.390974  
     261A      3.404762   262A      3.418607   263A      3.428398  
     264A      3.470697   265A      3.482195   266A      3.547355  
     267A      3.617929   268A      3.654007   269A      3.677003  
     270A      3.732594   271A      3.750849   272A      3.789227  
     273A      3.801021   274A      3.847091   275A      3.891088  
     276A      4.055207   277A      4.109686   278A      4.320458  
     279A      4.356703   280A      4.379135   281A      4.388042  
     282A      4.430513   283A      4.450022   284A      4.489164  
     285A      4.562310   286A      4.578370   287A      4.582056  
     288A      4.596563   289A      4.627141   290A      4.636121  
     291A      4.643934   292A      4.660100   293A      4.675179  
     294A      4.686689   295A      4.772074   296A      4.780842  
     297A      4.803682   298A      4.814932   299A      4.826068  
     300A      4.847541   301A      4.872010   302A      4.891492  
     303A      4.921065   304A      4.946515   305A      4.980465  
     306A      5.027656   307A      5.051164   308A      5.072433  
     309A      5.078297   310A      5.090080   311A      5.106996  
     312A      5.137890   313A      5.159191   314A      5.209132  
     315A      5.214887   316A      5.232676   317A      5.261296  
     318A      5.298410   319A      5.317533   320A      5.396116  
     321A      5.495999   322A      5.564344   323A      5.585610  
     324A      5.604737   325A      5.619201   326A      5.644163  
     327A      5.704843   328A      5.723563   329A      5.769464  
     330A      5.793823   331A      5.871612   332A      5.941964  
     333A      5.970003   334A      5.977490   335A      6.042052  
     336A      6.324270   337A      6.341366   338A      6.363165  
     339A      6.441495   340A      6.474818   341A      6.486939  
     342A      6.546990   343A      6.653199   344A      6.747409  
     345A      6.837893   346A      6.901882   347A      6.937884  
     348A      7.096693   349A      7.137566   350A      7.196599  
     351A      7.231811   352A      7.273181   353A      7.350883  
     354A      7.371047   355A      7.411382   356A      7.458750  
     357A      7.564433   358A      7.755317   359A      7.787836  
     360A      7.793470   361A      7.832711   362A      7.856466  
     363A      7.921162   364A      7.944239   365A      7.980139  
     366A      8.038591   367A      8.115858   368A      8.175869  
     369A      8.190732   370A      8.225021   371A      8.316154  
     372A      8.325619   373A      8.340029   374A      8.366275  
     375A      8.401447   376A      8.776198   377A      8.841198  
     378A      8.884461   379A      8.925544   380A      8.952060  
     381A      8.965210   382A      8.990995   383A      9.878905  
     384A      9.943265   385A      9.990485   386A     10.021339  
     387A     10.033158   388A     10.053915   389A     10.070551  
     390A     10.093467   391A     10.101469   392A     10.235065  
     393A     10.271370   394A     10.301811   395A     11.171714  
     396A     11.192117   397A     11.351291   398A     11.817850  
     399A     11.843104   400A     11.934648   401A     12.272276  
     402A     12.428199   403A     12.491726   404A     13.032303  
     405A     13.619049   406A     13.668992   407A     13.797552  
     408A     13.963078   409A     14.002772   410A     14.041281  
     411A     16.412190   412A     65.148398   413A     65.891599  
     414A     66.728284  

    Final Occupation by Irrep:
              A 
    DOCC [     5 ]
    NA   [     5 ]
    NB   [     5 ]

  @DF-RHF Final Energy:   -76.06077225075984

   => Energetics <=

    Nuclear Repulsion Energy =              9.2182025660948508
    One-Electron Energy =                -123.0835277699437427
    Two-Electron Energy =                  37.8045529530890505
    Total Energy =                        -76.0607722507598396

Computation Completed


Properties will be evaluated at   0.000000,   0.000000,   0.000000 [a0]

Properties computed using the SCF density matrix


 Multipole Moments:

 ------------------------------------------------------------------------------------
     Multipole            Electronic (a.u.)      Nuclear  (a.u.)        Total (a.u.)
 ------------------------------------------------------------------------------------

 L = 1.  Multiply by 2.5417464519 to convert [e a0] to [Debye]
 Dipole X            :         26.4020809          -26.8700744           -0.4679934
 Dipole Y            :         26.2477340          -26.8275366           -0.5798026
 Dipole Z            :         -5.3865845            5.6320037            0.2454192
 Magnitude           :                                                    0.7844867

 ------------------------------------------------------------------------------------

*** tstop() called on ddmfs1 at Mon Jan 22 13:31:53 2024
Module time:
	user time   =      53.04 seconds =       0.88 minutes
	system time =       2.85 seconds =       0.05 minutes
	total time  =          3 seconds =       0.05 minutes
Total time:
	user time   =      53.04 seconds =       0.88 minutes
	system time =       2.85 seconds =       0.05 minutes
	total time  =          3 seconds =       0.05 minutes

*** tstart() called on ddmfs1
*** at Mon Jan 22 13:31:53 2024


  //>>>>>>>>>>>>>>>>>>>>>>>>>>>>>>>>>>>//
  //               DFMP2               //
  //<<<<<<<<<<<<<<<<<<<<<<<<<<<<<<<<<<<//

   => Loading Basis Set <=

    Name: (AUG-CC-PVTZ AUX)
    Role: RIFIT
    Keyword: DF_BASIS_MP2
    atoms 1                     entry LI         line    90 file /ddmfs1b/softs/psi4conda/share/psi4/basis/def2-qzvpp-ri.gbs 
    atoms 2, 5, 8, 11           entry O          line   264 file /ddmfs1b/softs/psi4conda/share/psi4/basis/aug-cc-pvtz-ri.gbs 
    atoms 3-4, 6-7, 9-10, 12-13 entry H          line    30 file /ddmfs1b/softs/psi4conda/share/psi4/basis/aug-cc-pvtz-ri.gbs 

	 --------------------------------------------------------
	                          DF-MP2                         
	      2nd-Order Density-Fitted Moller-Plesset Theory     
	              RMP2 Wavefunction,  20 Threads             
	                                                         
	        Rob Parrish, Justin Turney, Andy Simmonett,      
	           Ed Hohenstein, and C. David Sherrill          
	 --------------------------------------------------------

   => Auxiliary Basis Set <=

  Basis Set: (AUG-CC-PVTZ AUX)
    Blend: AUG-CC-PVTZ-RI + DEF2-QZVPP-RI
    Number of shells: 251
    Number of basis functions: 893
    Number of Cartesian functions: 1114
    Spherical Harmonics?: true
    Max angular momentum: 4

	 --------------------------------------------------------
	                 NBF =   414, NAUX =   893
	 --------------------------------------------------------
	   CLASS    FOCC     OCC    AOCC    AVIR     VIR    FVIR
	   PAIRS       0       5       5     409     409       0
	 --------------------------------------------------------

	-----------------------------------------------------------
	 ==================> DF-MP2 Energies <==================== 
	-----------------------------------------------------------
	 Reference Energy          =     -76.0607722507598396 [Eh]
	 Singles Energy            =      -0.0000000000000000 [Eh]
	 Same-Spin Energy          =      -0.0684088405731389 [Eh]
	 Opposite-Spin Energy      =      -0.2159091503226800 [Eh]
	 Correlation Energy        =      -0.2843179908958189 [Eh]
	 Total Energy              =     -76.3450902416556545 [Eh]
	-----------------------------------------------------------
	 ================> DF-SCS-MP2 Energies <================== 
	-----------------------------------------------------------
	 SCS Same-Spin Scale       =       0.3333333333333333 [-]
	 SCS Opposite-Spin Scale   =       1.2000000000000000 [-]
	 SCS Same-Spin Energy      =      -0.0228029468577130 [Eh]
	 SCS Opposite-Spin Energy  =      -0.2590909803872160 [Eh]
	 SCS Correlation Energy    =      -0.2818939272449289 [Eh]
	 SCS Total Energy          =     -76.3426661780047624 [Eh]
	-----------------------------------------------------------


*** tstop() called on ddmfs1 at Mon Jan 22 13:31:56 2024
Module time:
	user time   =      16.89 seconds =       0.28 minutes
	system time =       0.88 seconds =       0.01 minutes
	total time  =          3 seconds =       0.05 minutes
Total time:
	user time   =      69.95 seconds =       1.17 minutes
	system time =       3.73 seconds =       0.06 minutes
	total time  =          6 seconds =       0.10 minutes

    Psi4 stopped on: Monday, 22 January 2024 01:31PM
    Psi4 wall time for execution: 0:00:06.07

*** Psi4 exiting successfully. Buy a developer a beer!
