
    -----------------------------------------------------------------------
          Psi4: An Open-Source Ab Initio Electronic Structure Package
                               Psi4 1.8.2 release

                         Git: Rev {} zzzzzzz 


    D. G. A. Smith, L. A. Burns, A. C. Simmonett, R. M. Parrish,
    M. C. Schieber, R. Galvelis, P. Kraus, H. Kruse, R. Di Remigio,
    A. Alenaizan, A. M. James, S. Lehtola, J. P. Misiewicz, M. Scheurer,
    R. A. Shaw, J. B. Schriber, Y. Xie, Z. L. Glick, D. A. Sirianni,
    J. S. O'Brien, J. M. Waldrop, A. Kumar, E. G. Hohenstein,
    B. P. Pritchard, B. R. Brooks, H. F. Schaefer III, A. Yu. Sokolov,
    K. Patkowski, A. E. DePrince III, U. Bozkaya, R. A. King,
    F. A. Evangelista, J. M. Turney, T. D. Crawford, C. D. Sherrill,
    J. Chem. Phys. 152(18) 184108 (2020). https://doi.org/10.1063/5.0006002

                            Additional Code Authors
    E. T. Seidl, C. L. Janssen, E. F. Valeev, M. L. Leininger,
    J. F. Gonthier, R. M. Richard, H. R. McAlexander, M. Saitow, X. Wang,
    P. Verma, M. H. Lechner, A. Jiang, S. Behnle, A. G. Heide,
    M. F. Herbst, and D. L. Poole

             Previous Authors, Complete List of Code Contributors,
                       and Citations for Specific Modules
    https://github.com/psi4/psi4/blob/master/codemeta.json
    https://github.com/psi4/psi4/graphs/contributors
    http://psicode.org/psi4manual/master/introduction.html#citing-psifour

    -----------------------------------------------------------------------


    Psi4 started on: Monday, 22 January 2024 01:45PM

    Process ID: 61929
    Host:       ddmfs1
    PSIDATADIR: /ddmfs1b/softs/psi4conda/share/psi4
    Memory:     500.0 MiB
    Threads:    20
    
  ==> Input File <==

--------------------------------------------------------------------------
MEMORY 60 GB

molecule dimer {
1 1
Li         0.000000     0.000000     0.000000
O          1.023000     0.620441     1.583861
H          1.455219     0.253028     2.357655
H          1.073738     1.617144     1.656624
O          0.990010    -1.210458    -1.226372
H          0.996585    -0.767777    -2.058657
H          0.892016    -2.180068    -1.332978
O         -0.199397     1.811129    -0.706428
H         -0.471302     2.120332    -1.569275
H         -0.590440     2.361535    -0.067867

units ang
no_reorient
no_com
symmetry c1
}

set {
basis        aug-cc-pVTZ
scf_type     df
}

energy("mp2")
--------------------------------------------------------------------------

  Memory set to  55.879 GiB by Python driver.

Scratch directory: /ddmfs1a/scratch/
   => Libint2 <=

    Primary   basis highest AM E, G, H:  5, 4, 3
    Auxiliary basis highest AM E, G, H:  6, 5, 4
    Onebody   basis highest AM E, G, H:  6, 5, 4
    Solid Harmonics ordering:            gaussian

*** tstart() called on ddmfs1
*** at Mon Jan 22 13:45:04 2024

   => Loading Basis Set <=

    Name: AUG-CC-PVTZ
    Role: ORBITAL
    Keyword: BASIS
    atoms 1              entry LI         line    85 file /ddmfs1b/softs/psi4conda/share/psi4/basis/aug-cc-pvtz.gbs 
    atoms 2, 5, 8        entry O          line   331 file /ddmfs1b/softs/psi4conda/share/psi4/basis/aug-cc-pvtz.gbs 
    atoms 3-4, 6-7, 9-10 entry H          line    40 file /ddmfs1b/softs/psi4conda/share/psi4/basis/aug-cc-pvtz.gbs 


         ---------------------------------------------------------
                                   SCF
               by Justin Turney, Rob Parrish, Andy Simmonett
                          and Daniel G. A. Smith
                              RHF Reference
                       20 Threads,  57220 MiB Core
         ---------------------------------------------------------

  ==> Geometry <==

    Molecular point group: c1
    Full point group: C1

    Geometry (in Angstrom), charge = 1, multiplicity = 1:

       Center              X                  Y                   Z               Mass       
    ------------   -----------------  -----------------  -----------------  -----------------
         LI           0.000000000000     0.000000000000     0.000000000000     7.016003436600
         O            1.023000000000     0.620441000000     1.583861000000    15.994914619570
         H            1.455219000000     0.253028000000     2.357655000000     1.007825032230
         H            1.073738000000     1.617144000000     1.656624000000     1.007825032230
         O            0.990010000000    -1.210458000000    -1.226372000000    15.994914619570
         H            0.996585000000    -0.767777000000    -2.058657000000     1.007825032230
         H            0.892016000000    -2.180068000000    -1.332978000000     1.007825032230
         O           -0.199397000000     1.811129000000    -0.706428000000    15.994914619570
         H           -0.471302000000     2.120332000000    -1.569275000000     1.007825032230
         H           -0.590440000000     2.361535000000    -0.067867000000     1.007825032230

  Running in c1 symmetry.

  Rotational constants: A =      0.15495  B =      0.11395  C =      0.08451 [cm^-1]
  Rotational constants: A =   4645.39512  B =   3416.13996  C =   2533.58226 [MHz]
  Nuclear repulsion =   98.342634208106247

  Charge       = 1
  Multiplicity = 1
  Electrons    = 32
  Nalpha       = 16
  Nbeta        = 16

  ==> Algorithm <==

  SCF Algorithm Type is DF.
  DIIS enabled.
  MOM disabled.
  Fractional occupation disabled.
  Guess Type is SAD.
  Energy threshold   = 1.00e-08
  Density threshold  = 1.00e-08
  Integral threshold = 1.00e-12

  ==> Primary Basis <==

  Basis Set: AUG-CC-PVTZ
    Blend: AUG-CC-PVTZ
    Number of shells: 110
    Number of basis functions: 322
    Number of Cartesian functions: 370
    Spherical Harmonics?: true
    Max angular momentum: 3

   => Loading Basis Set <=

    Name: (AUG-CC-PVTZ AUX)
    Role: JKFIT
    Keyword: DF_BASIS_SCF
    atoms 1              entry LI         line    54 file /ddmfs1b/softs/psi4conda/share/psi4/basis/def2-universal-jkfit.gbs 
    atoms 2, 5, 8        entry O          line   286 file /ddmfs1b/softs/psi4conda/share/psi4/basis/aug-cc-pvtz-jkfit.gbs 
    atoms 3-4, 6-7, 9-10 entry H          line    70 file /ddmfs1b/softs/psi4conda/share/psi4/basis/aug-cc-pvtz-jkfit.gbs 

  ==> Integral Setup <==

  DFHelper Memory: AOs need 0.512 GiB; user supplied 41.910 GiB. 
  Using in-core AOs.

  ==> MemDFJK: Density-Fitted J/K Matrices <==

    J tasked:                   Yes
    K tasked:                   Yes
    wK tasked:                   No
    OpenMP threads:              20
    Memory [MiB]:             42915
    Algorithm:                 Core
    Schwarz Cutoff:           1E-12
    Mask sparsity (%):       4.1742
    Fitting Condition:        1E-10

   => Auxiliary Basis Set <=

  Basis Set: (AUG-CC-PVTZ AUX)
    Blend: AUG-CC-PVTZ-JKFIT + DEF2-UNIVERSAL-JKFIT
    Number of shells: 191
    Number of basis functions: 639
    Number of Cartesian functions: 783
    Spherical Harmonics?: true
    Max angular momentum: 4

  Minimum eigenvalue in the overlap matrix is 2.2990940713E-05.
  Reciprocal condition number of the overlap matrix is 1.8477114603E-06.
    Using symmetric orthogonalization.

  ==> Pre-Iterations <==

  SCF Guess: Superposition of Atomic Densities via on-the-fly atomic UHF (no occupation information).

   -------------------------
    Irrep   Nso     Nmo    
   -------------------------
     A        322     322 
   -------------------------
    Total     322     322
   -------------------------

  ==> Iterations <==

                           Total Energy        Delta E     RMS |[F,P]|

   @DF-RHF iter SAD:  -234.01270215866802   -2.34013e+02   0.00000e+00 
   @DF-RHF iter   1:  -235.28857433393568   -1.27587e+00   2.54386e-03 DIIS/ADIIS
   @DF-RHF iter   2:  -235.45508230494593   -1.66508e-01   1.63764e-03 DIIS/ADIIS
   @DF-RHF iter   3:  -235.53997903784528   -8.48967e-02   1.24443e-04 DIIS/ADIIS
   @DF-RHF iter   4:  -235.54120659545430   -1.22756e-03   3.08843e-05 DIIS
   @DF-RHF iter   5:  -235.54127999939993   -7.34039e-05   8.82073e-06 DIIS
   @DF-RHF iter   6:  -235.54128617357637   -6.17418e-06   3.74243e-06 DIIS
   @DF-RHF iter   7:  -235.54128702814575   -8.54569e-07   7.03219e-07 DIIS
   @DF-RHF iter   8:  -235.54128709500225   -6.68565e-08   1.27980e-07 DIIS
   @DF-RHF iter   9:  -235.54128709691793   -1.91568e-09   3.63346e-08 DIIS
   @DF-RHF iter  10:  -235.54128709699111   -7.31859e-11   1.17508e-08 DIIS
   @DF-RHF iter  11:  -235.54128709699961   -8.49809e-12   2.94743e-09 DIIS
  Energy and wave function converged.


  ==> Post-Iterations <==

    Orbital Energies [Eh]
    ---------------------

    Doubly Occupied:                                                      

       1A    -20.771151     2A    -20.758797     3A    -20.757554  
       4A     -2.585935     5A     -1.572231     6A     -1.543965  
       7A     -1.534314     8A     -0.945447     9A     -0.922494  
      10A     -0.902285    11A     -0.814922    12A     -0.789212  
      13A     -0.780429    14A     -0.727979    15A     -0.708604  
      16A     -0.702212  

    Virtual:                                                              

      17A     -0.109000    18A     -0.083145    19A     -0.079852  
      20A     -0.073131    21A     -0.049829    22A     -0.048776  
      23A     -0.045713    24A     -0.041753    25A     -0.039199  
      26A     -0.034588    27A     -0.032593    28A     -0.029598  
      29A     -0.017760    30A     -0.012588    31A      0.013017  
      32A      0.021273    33A      0.027107    34A      0.031471  
      35A      0.036648    36A      0.043418    37A      0.045756  
      38A      0.046239    39A      0.052358    40A      0.054105  
      41A      0.058348    42A      0.063551    43A      0.071591  
      44A      0.081903    45A      0.090381    46A      0.097656  
      47A      0.110796    48A      0.122628    49A      0.138332  
      50A      0.148479    51A      0.165790    52A      0.173240  
      53A      0.177768    54A      0.188305    55A      0.202514  
      56A      0.207889    57A      0.211719    58A      0.216846  
      59A      0.224465    60A      0.226944    61A      0.231786  
      62A      0.245655    63A      0.249048    64A      0.255119  
      65A      0.267096    66A      0.269781    67A      0.273911  
      68A      0.282569    69A      0.287498    70A      0.290843  
      71A      0.297482    72A      0.301710    73A      0.312557  
      74A      0.316233    75A      0.322915    76A      0.325354  
      77A      0.334589    78A      0.339916    79A      0.343808  
      80A      0.345833    81A      0.355939    82A      0.370192  
      83A      0.382585    84A      0.385611    85A      0.397960  
      86A      0.412263    87A      0.420427    88A      0.436929  
      89A      0.483527    90A      0.486190    91A      0.543768  
      92A      0.564311    93A      0.568232    94A      0.574409  
      95A      0.589381    96A      0.591338    97A      0.607358  
      98A      0.620536    99A      0.625856   100A      0.639181  
     101A      0.641136   102A      0.665577   103A      0.671035  
     104A      0.679567   105A      0.710447   106A      0.713335  
     107A      0.724939   108A      0.732105   109A      0.745681  
     110A      0.752970   111A      0.758342   112A      0.783309  
     113A      0.787098   114A      0.804280   115A      0.808748  
     116A      0.811012   117A      0.821356   118A      0.823045  
     119A      0.826182   120A      0.839477   121A      0.848072  
     122A      0.863726   123A      0.878600   124A      0.890312  
     125A      0.904805   126A      0.919159   127A      0.925606  
     128A      0.927379   129A      0.936723   130A      0.944023  
     131A      0.954725   132A      0.968095   133A      0.970769  
     134A      0.980236   135A      0.988415   136A      0.999603  
     137A      1.013497   138A      1.033773   139A      1.044975  
     140A      1.059626   141A      1.068840   142A      1.082889  
     143A      1.116123   144A      1.123434   145A      1.125879  
     146A      1.138330   147A      1.149874   148A      1.169601  
     149A      1.184600   150A      1.209054   151A      1.245522  
     152A      1.257259   153A      1.280618   154A      1.318237  
     155A      1.330646   156A      1.344818   157A      1.365880  
     158A      1.393942   159A      1.422089   160A      1.468451  
     161A      1.501411   162A      1.529823   163A      1.548122  
     164A      1.551681   165A      1.575536   166A      1.604937  
     167A      1.607022   168A      1.622350   169A      1.645517  
     170A      1.667812   171A      1.700404   172A      1.714614  
     173A      1.734545   174A      1.746964   175A      1.810781  
     176A      1.829173   177A      1.842461   178A      1.865962  
     179A      1.905555   180A      1.930924   181A      2.002093  
     182A      2.019687   183A      2.053226   184A      2.139284  
     185A      2.160645   186A      2.173136   187A      2.194273  
     188A      2.225826   189A      2.231916   190A      2.249585  
     191A      2.304373   192A      2.313048   193A      2.321751  
     194A      2.362876   195A      2.375468   196A      2.401757  
     197A      2.428308   198A      2.447596   199A      2.470345  
     200A      2.479112   201A      2.507744   202A      2.553281  
     203A      2.558046   204A      2.593347   205A      2.607267  
     206A      2.630130   207A      2.636284   208A      2.654070  
     209A      2.661812   210A      2.669069   211A      2.697923  
     212A      2.721561   213A      2.732722   214A      2.774094  
     215A      2.793486   216A      2.811828   217A      2.837476  
     218A      2.893442   219A      2.930209   220A      3.536414  
     221A      3.590516   222A      3.641824   223A      3.691531  
     224A      3.718450   225A      3.806986   226A      3.848439  
     227A      3.884535   228A      3.906157   229A      3.939662  
     230A      4.052054   231A      4.071226   232A      4.093954  
     233A      4.113898   234A      4.124540   235A      4.137442  
     236A      4.150590   237A      4.163517   238A      4.202856  
     239A      4.248264   240A      4.294446   241A      4.320303  
     242A      4.337784   243A      4.350637   244A      4.361262  
     245A      4.376938   246A      4.392963   247A      4.410336  
     248A      4.424216   249A      4.445658   250A      4.457988  
     251A      4.493250   252A      4.513430   253A      4.562353  
     254A      4.617023   255A      4.631310   256A      4.640945  
     257A      4.643209   258A      4.715790   259A      4.779227  
     260A      4.913874   261A      4.951809   262A      4.992035  
     263A      5.019163   264A      5.043691   265A      5.078775  
     266A      5.140802   267A      5.182842   268A      5.208015  
     269A      5.233792   270A      5.256917   271A      5.317161  
     272A      5.321845   273A      5.362650   274A      5.408951  
     275A      5.685953   276A      5.732227   277A      5.779855  
     278A      6.034553   279A      6.096325   280A      6.121152  
     281A      6.430939   282A      6.451871   283A      6.493745  
     284A      6.583741   285A      6.615101   286A      6.623730  
     287A      6.724074   288A      6.746871   289A      6.780791  
     290A      6.957468   291A      7.013066   292A      7.024208  
     293A      7.081989   294A      7.114124   295A      7.136896  
     296A      7.168175   297A      7.169801   298A      7.179080  
     299A      7.199746   300A      7.206516   301A      7.225024  
     302A      7.230108   303A      7.236154   304A      7.261647  
     305A      7.285149   306A      7.295871   307A      7.333098  
     308A      7.448830   309A      7.491064   310A      7.558544  
     311A      7.689845   312A      7.701664   313A      7.772615  
     314A      7.829174   315A      7.837304   316A      7.853544  
     317A      8.555009   318A      8.617789   319A      8.751245  
     320A     15.327994   321A     15.957336   322A     16.484257  

    Final Occupation by Irrep:
              A 
    DOCC [    16 ]
    NA   [    16 ]
    NB   [    16 ]

  @DF-RHF Final Energy:  -235.54128709699961

   => Energetics <=

    Nuclear Repulsion Energy =             98.3426342081062472
    One-Electron Energy =                -514.1327804613841863
    Two-Electron Energy =                 180.2488591562783427
    Total Energy =                       -235.5412870969996106

Computation Completed


Properties will be evaluated at   0.000000,   0.000000,   0.000000 [a0]

Properties computed using the SCF density matrix


 Multipole Moments:

 ------------------------------------------------------------------------------------
     Multipole            Electronic (a.u.)      Nuclear  (a.u.)        Total (a.u.)
 ------------------------------------------------------------------------------------

 L = 1.  Multiply by 2.5417464519 to convert [e a0] to [Debye]
 Dipole X            :        -33.6380265           33.7594281            0.1214016
 Dipole Y            :        -24.0471223           24.8935323            0.8464100
 Dipole Z            :          6.8818999           -7.1923165           -0.3104166
 Magnitude           :                                                    0.9096739

 ------------------------------------------------------------------------------------

*** tstop() called on ddmfs1 at Mon Jan 22 13:45:07 2024
Module time:
	user time   =      38.62 seconds =       0.64 minutes
	system time =       2.01 seconds =       0.03 minutes
	total time  =          3 seconds =       0.05 minutes
Total time:
	user time   =      38.62 seconds =       0.64 minutes
	system time =       2.01 seconds =       0.03 minutes
	total time  =          3 seconds =       0.05 minutes

*** tstart() called on ddmfs1
*** at Mon Jan 22 13:45:07 2024


  //>>>>>>>>>>>>>>>>>>>>>>>>>>>>>>>>>>>//
  //               DFMP2               //
  //<<<<<<<<<<<<<<<<<<<<<<<<<<<<<<<<<<<//

   => Loading Basis Set <=

    Name: (AUG-CC-PVTZ AUX)
    Role: RIFIT
    Keyword: DF_BASIS_MP2
    atoms 1              entry LI         line    90 file /ddmfs1b/softs/psi4conda/share/psi4/basis/def2-qzvpp-ri.gbs 
    atoms 2, 5, 8        entry O          line   264 file /ddmfs1b/softs/psi4conda/share/psi4/basis/aug-cc-pvtz-ri.gbs 
    atoms 3-4, 6-7, 9-10 entry H          line    30 file /ddmfs1b/softs/psi4conda/share/psi4/basis/aug-cc-pvtz-ri.gbs 

	 --------------------------------------------------------
	                          DF-MP2                         
	      2nd-Order Density-Fitted Moller-Plesset Theory     
	              RMP2 Wavefunction,  20 Threads             
	                                                         
	        Rob Parrish, Justin Turney, Andy Simmonett,      
	           Ed Hohenstein, and C. David Sherrill          
	 --------------------------------------------------------

   => Auxiliary Basis Set <=

  Basis Set: (AUG-CC-PVTZ AUX)
    Blend: AUG-CC-PVTZ-RI + DEF2-QZVPP-RI
    Number of shells: 195
    Number of basis functions: 695
    Number of Cartesian functions: 868
    Spherical Harmonics?: true
    Max angular momentum: 4

	 --------------------------------------------------------
	                 NBF =   322, NAUX =   695
	 --------------------------------------------------------
	   CLASS    FOCC     OCC    AOCC    AVIR     VIR    FVIR
	   PAIRS       0      16      16     306     306       0
	 --------------------------------------------------------

	-----------------------------------------------------------
	 ==================> DF-MP2 Energies <==================== 
	-----------------------------------------------------------
	 Reference Energy          =    -235.5412870969996106 [Eh]
	 Singles Energy            =      -0.0000000000000000 [Eh]
	 Same-Spin Energy          =      -0.2055930367430213 [Eh]
	 Opposite-Spin Energy      =      -0.6596169821378627 [Eh]
	 Correlation Energy        =      -0.8652100188808840 [Eh]
	 Total Energy              =    -236.4064971158804838 [Eh]
	-----------------------------------------------------------
	 ================> DF-SCS-MP2 Energies <================== 
	-----------------------------------------------------------
	 SCS Same-Spin Scale       =       0.3333333333333333 [-]
	 SCS Opposite-Spin Scale   =       1.2000000000000000 [-]
	 SCS Same-Spin Energy      =      -0.0685310122476738 [Eh]
	 SCS Opposite-Spin Energy  =      -0.7915403785654352 [Eh]
	 SCS Correlation Energy    =      -0.8600713908131090 [Eh]
	 SCS Total Energy          =    -236.4013584878127290 [Eh]
	-----------------------------------------------------------


*** tstop() called on ddmfs1 at Mon Jan 22 13:45:08 2024
Module time:
	user time   =      13.04 seconds =       0.22 minutes
	system time =       0.66 seconds =       0.01 minutes
	total time  =          1 seconds =       0.02 minutes
Total time:
	user time   =      51.67 seconds =       0.86 minutes
	system time =       2.67 seconds =       0.04 minutes
	total time  =          4 seconds =       0.07 minutes

    Psi4 stopped on: Monday, 22 January 2024 01:45PM
    Psi4 wall time for execution: 0:00:04.20

*** Psi4 exiting successfully. Buy a developer a beer!
