
    -----------------------------------------------------------------------
          Psi4: An Open-Source Ab Initio Electronic Structure Package
                               Psi4 1.8.2 release

                         Git: Rev {} zzzzzzz 


    D. G. A. Smith, L. A. Burns, A. C. Simmonett, R. M. Parrish,
    M. C. Schieber, R. Galvelis, P. Kraus, H. Kruse, R. Di Remigio,
    A. Alenaizan, A. M. James, S. Lehtola, J. P. Misiewicz, M. Scheurer,
    R. A. Shaw, J. B. Schriber, Y. Xie, Z. L. Glick, D. A. Sirianni,
    J. S. O'Brien, J. M. Waldrop, A. Kumar, E. G. Hohenstein,
    B. P. Pritchard, B. R. Brooks, H. F. Schaefer III, A. Yu. Sokolov,
    K. Patkowski, A. E. DePrince III, U. Bozkaya, R. A. King,
    F. A. Evangelista, J. M. Turney, T. D. Crawford, C. D. Sherrill,
    J. Chem. Phys. 152(18) 184108 (2020). https://doi.org/10.1063/5.0006002

                            Additional Code Authors
    E. T. Seidl, C. L. Janssen, E. F. Valeev, M. L. Leininger,
    J. F. Gonthier, R. M. Richard, H. R. McAlexander, M. Saitow, X. Wang,
    P. Verma, M. H. Lechner, A. Jiang, S. Behnle, A. G. Heide,
    M. F. Herbst, and D. L. Poole

             Previous Authors, Complete List of Code Contributors,
                       and Citations for Specific Modules
    https://github.com/psi4/psi4/blob/master/codemeta.json
    https://github.com/psi4/psi4/graphs/contributors
    http://psicode.org/psi4manual/master/introduction.html#citing-psifour

    -----------------------------------------------------------------------


    Psi4 started on: Monday, 22 January 2024 01:45PM

    Process ID: 61972
    Host:       ddmfs1
    PSIDATADIR: /ddmfs1b/softs/psi4conda/share/psi4
    Memory:     500.0 MiB
    Threads:    20
    
  ==> Input File <==

--------------------------------------------------------------------------
MEMORY 60 GB

molecule dimer {
0 1
Gh(Li)     0.000000     0.000000     0.000000
O          1.657941    -1.223362    -0.380746
H          1.563734    -2.109058    -0.739610
H          2.274856    -1.293852     0.367845
Gh(O)     -0.318414     0.739503     1.570188
Gh(H)     -0.230935     0.394084     2.496215
Gh(H)     -1.144386     1.187689     1.648398
Gh(O)      0.086934     1.338117    -1.502778
Gh(H)      0.226770     0.880203    -2.354309
Gh(H)      0.560941     2.175826    -1.600435
Gh(O)     -0.994637    -1.379905    -1.081241
Gh(H)     -1.093316    -1.138620    -1.989274
Gh(H)     -0.474365    -2.168984    -1.125378

units ang
no_reorient
no_com
symmetry c1
}

set {
basis        aug-cc-pVTZ
scf_type     df
}

energy("mp2")
--------------------------------------------------------------------------

  Memory set to  55.879 GiB by Python driver.

Scratch directory: /ddmfs1a/scratch/
   => Libint2 <=

    Primary   basis highest AM E, G, H:  5, 4, 3
    Auxiliary basis highest AM E, G, H:  6, 5, 4
    Onebody   basis highest AM E, G, H:  6, 5, 4
    Solid Harmonics ordering:            gaussian

*** tstart() called on ddmfs1
*** at Mon Jan 22 13:45:15 2024

   => Loading Basis Set <=

    Name: AUG-CC-PVTZ
    Role: ORBITAL
    Keyword: BASIS
    atoms 1                     entry LI         line    85 file /ddmfs1b/softs/psi4conda/share/psi4/basis/aug-cc-pvtz.gbs 
    atoms 2, 5, 8, 11           entry O          line   331 file /ddmfs1b/softs/psi4conda/share/psi4/basis/aug-cc-pvtz.gbs 
    atoms 3-4, 6-7, 9-10, 12-13 entry H          line    40 file /ddmfs1b/softs/psi4conda/share/psi4/basis/aug-cc-pvtz.gbs 


         ---------------------------------------------------------
                                   SCF
               by Justin Turney, Rob Parrish, Andy Simmonett
                          and Daniel G. A. Smith
                              RHF Reference
                       20 Threads,  57220 MiB Core
         ---------------------------------------------------------

  ==> Geometry <==

    Molecular point group: c1
    Full point group: C1

    Geometry (in Angstrom), charge = 0, multiplicity = 1:

       Center              X                  Y                   Z               Mass       
    ------------   -----------------  -----------------  -----------------  -----------------
      Gh(LI)          0.000000000000     0.000000000000     0.000000000000     7.016003436600
         O            1.657941000000    -1.223362000000    -0.380746000000    15.994914619570
         H            1.563734000000    -2.109058000000    -0.739610000000     1.007825032230
         H            2.274856000000    -1.293852000000     0.367845000000     1.007825032230
      Gh(O)          -0.318414000000     0.739503000000     1.570188000000    15.994914619570
      Gh(H)          -0.230935000000     0.394084000000     2.496215000000     1.007825032230
      Gh(H)          -1.144386000000     1.187689000000     1.648398000000     1.007825032230
      Gh(O)           0.086934000000     1.338117000000    -1.502778000000    15.994914619570
      Gh(H)           0.226770000000     0.880203000000    -2.354309000000     1.007825032230
      Gh(H)           0.560941000000     2.175826000000    -1.600435000000     1.007825032230
      Gh(O)          -0.994637000000    -1.379905000000    -1.081241000000    15.994914619570
      Gh(H)          -1.093316000000    -1.138620000000    -1.989274000000     1.007825032230
      Gh(H)          -0.474365000000    -2.168984000000    -1.125378000000     1.007825032230

  Running in c1 symmetry.

  Rotational constants: A =      0.10311  B =      0.08188  C =      0.07111 [cm^-1]
  Rotational constants: A =   3091.03390  B =   2454.55475  C =   2131.79638 [MHz]
  Nuclear repulsion =    9.103095964393567

  Charge       = 0
  Multiplicity = 1
  Electrons    = 10
  Nalpha       = 5
  Nbeta        = 5

  ==> Algorithm <==

  SCF Algorithm Type is DF.
  DIIS enabled.
  MOM disabled.
  Fractional occupation disabled.
  Guess Type is SAD.
  Energy threshold   = 1.00e-08
  Density threshold  = 1.00e-08
  Integral threshold = 1.00e-12

  ==> Primary Basis <==

  Basis Set: AUG-CC-PVTZ
    Blend: AUG-CC-PVTZ
    Number of shells: 142
    Number of basis functions: 414
    Number of Cartesian functions: 475
    Spherical Harmonics?: true
    Max angular momentum: 3

   => Loading Basis Set <=

    Name: (AUG-CC-PVTZ AUX)
    Role: JKFIT
    Keyword: DF_BASIS_SCF
    atoms 1                     entry LI         line    54 file /ddmfs1b/softs/psi4conda/share/psi4/basis/def2-universal-jkfit.gbs 
    atoms 2, 5, 8, 11           entry O          line   286 file /ddmfs1b/softs/psi4conda/share/psi4/basis/aug-cc-pvtz-jkfit.gbs 
    atoms 3-4, 6-7, 9-10, 12-13 entry H          line    70 file /ddmfs1b/softs/psi4conda/share/psi4/basis/aug-cc-pvtz-jkfit.gbs 

  ==> Integral Setup <==

  DFHelper Memory: AOs need 1.082 GiB; user supplied 41.910 GiB. 
  Using in-core AOs.

  ==> MemDFJK: Density-Fitted J/K Matrices <==

    J tasked:                   Yes
    K tasked:                   Yes
    wK tasked:                   No
    OpenMP threads:              20
    Memory [MiB]:             42915
    Algorithm:                 Core
    Schwarz Cutoff:           1E-12
    Mask sparsity (%):       4.6360
    Fitting Condition:        1E-10

   => Auxiliary Basis Set <=

  Basis Set: (AUG-CC-PVTZ AUX)
    Blend: AUG-CC-PVTZ-JKFIT + DEF2-UNIVERSAL-JKFIT
    Number of shells: 249
    Number of basis functions: 835
    Number of Cartesian functions: 1024
    Spherical Harmonics?: true
    Max angular momentum: 4

  Minimum eigenvalue in the overlap matrix is 1.6683213999E-05.
  Reciprocal condition number of the overlap matrix is 1.1339236988E-06.
    Using symmetric orthogonalization.

  ==> Pre-Iterations <==

  SCF Guess: Superposition of Atomic Densities via on-the-fly atomic UHF (no occupation information).

   -------------------------
    Irrep   Nso     Nmo    
   -------------------------
     A        414     414 
   -------------------------
    Total     414     414
   -------------------------

  ==> Iterations <==

                           Total Energy        Delta E     RMS |[F,P]|

   @DF-RHF iter SAD:   -75.46547343976037   -7.54655e+01   0.00000e+00 
   @DF-RHF iter   1:   -75.97546192695069   -5.09988e-01   1.13017e-03 ADIIS/DIIS
   @DF-RHF iter   2:   -76.02767750552771   -5.22156e-02   7.74827e-04 ADIIS/DIIS
   @DF-RHF iter   3:   -76.05948017253664   -3.18027e-02   5.27816e-05 DIIS
   @DF-RHF iter   4:   -76.05988189728923   -4.01725e-04   1.28286e-05 DIIS
   @DF-RHF iter   5:   -76.05990781600930   -2.59187e-05   2.92719e-06 DIIS
   @DF-RHF iter   6:   -76.05990996637719   -2.15037e-06   6.48525e-07 DIIS
   @DF-RHF iter   7:   -76.05991008276185   -1.16385e-07   1.19398e-07 DIIS
   @DF-RHF iter   8:   -76.05991008623081   -3.46897e-09   2.01149e-08 DIIS
   @DF-RHF iter   9:   -76.05991008630946   -7.86429e-11   5.07928e-09 DIIS
  Energy and wave function converged.


  ==> Post-Iterations <==

    Orbital Energies [Eh]
    ---------------------

    Doubly Occupied:                                                      

       1A    -20.567703     2A     -1.347441     3A     -0.716337  
       4A     -0.579312     5A     -0.508979  

    Virtual:                                                              

       6A      0.009067     7A      0.017883     8A      0.018289  
       9A      0.019615    10A      0.043941    11A      0.055068  
      12A      0.057390    13A      0.060713    14A      0.061219  
      15A      0.065573    16A      0.067237    17A      0.069463  
      18A      0.080603    19A      0.089488    20A      0.094232  
      21A      0.097827    22A      0.131951    23A      0.148848  
      24A      0.150226    25A      0.154989    26A      0.158277  
      27A      0.163379    28A      0.164182    29A      0.168802  
      30A      0.169690    31A      0.179451    32A      0.182455  
      33A      0.189914    34A      0.199378    35A      0.211066  
      36A      0.213139    37A      0.223793    38A      0.232281  
      39A      0.240637    40A      0.253938    41A      0.264925  
      42A      0.273438    43A      0.296103    44A      0.304290  
      45A      0.309937    46A      0.313613    47A      0.325394  
      48A      0.334258    49A      0.337594    50A      0.356444  
      51A      0.358589    52A      0.366241    53A      0.369378  
      54A      0.370612    55A      0.376370    56A      0.379625  
      57A      0.386425    58A      0.390628    59A      0.396000  
      60A      0.404731    61A      0.411905    62A      0.416158  
      63A      0.417833    64A      0.420458    65A      0.429010  
      66A      0.431154    67A      0.441042    68A      0.454694  
      69A      0.462163    70A      0.466683    71A      0.471156  
      72A      0.478485    73A      0.484106    74A      0.491101  
      75A      0.494351    76A      0.500796    77A      0.513433  
      78A      0.515700    79A      0.521292    80A      0.532006  
      81A      0.538947    82A      0.548570    83A      0.553221  
      84A      0.567248    85A      0.576013    86A      0.582141  
      87A      0.590133    88A      0.633311    89A      0.640284  
      90A      0.655864    91A      0.685211    92A      0.687377  
      93A      0.726848    94A      0.738425    95A      0.762179  
      96A      0.771697    97A      0.780614    98A      0.793656  
      99A      0.808072   100A      0.820713   101A      0.823795  
     102A      0.846068   103A      0.853888   104A      0.857964  
     105A      0.860851   106A      0.867095   107A      0.876176  
     108A      0.884223   109A      0.899367   110A      0.909284  
     111A      0.923561   112A      0.930287   113A      0.933039  
     114A      0.935631   115A      0.942360   116A      0.949657  
     117A      0.953064   118A      0.959149   119A      0.972585  
     120A      0.987608   121A      1.001694   122A      1.009402  
     123A      1.013934   124A      1.021930   125A      1.026845  
     126A      1.040053   127A      1.049271   128A      1.054456  
     129A      1.058093   130A      1.074831   131A      1.078864  
     132A      1.091463   133A      1.096772   134A      1.104298  
     135A      1.115817   136A      1.120891   137A      1.127266  
     138A      1.136218   139A      1.139058   140A      1.158628  
     141A      1.161448   142A      1.167241   143A      1.182959  
     144A      1.196015   145A      1.202897   146A      1.220061  
     147A      1.225852   148A      1.227491   149A      1.239935  
     150A      1.247464   151A      1.252316   152A      1.266166  
     153A      1.282092   154A      1.293217   155A      1.303143  
     156A      1.307911   157A      1.320641   158A      1.334101  
     159A      1.350485   160A      1.361869   161A      1.376482  
     162A      1.382563   163A      1.402596   164A      1.429208  
     165A      1.434046   166A      1.462251   167A      1.467126  
     168A      1.478968   169A      1.495831   170A      1.514421  
     171A      1.545356   172A      1.559004   173A      1.573473  
     174A      1.586120   175A      1.596126   176A      1.609726  
     177A      1.633593   178A      1.635537   179A      1.643235  
     180A      1.666181   181A      1.689648   182A      1.708976  
     183A      1.727363   184A      1.748134   185A      1.765554  
     186A      1.796735   187A      1.821901   188A      1.839187  
     189A      1.866365   190A      1.884070   191A      1.895881  
     192A      1.910776   193A      1.913861   194A      1.936091  
     195A      1.942470   196A      1.952311   197A      1.958046  
     198A      1.972421   199A      1.999960   200A      2.024920  
     201A      2.038094   202A      2.058619   203A      2.063723  
     204A      2.104501   205A      2.109782   206A      2.128704  
     207A      2.137725   208A      2.171742   209A      2.200953  
     210A      2.242929   211A      2.283270   212A      2.326966  
     213A      2.346378   214A      2.412230   215A      2.441574  
     216A      2.461939   217A      2.488993   218A      2.538639  
     219A      2.573248   220A      2.581323   221A      2.582536  
     222A      2.598869   223A      2.620868   224A      2.646597  
     225A      2.686312   226A      2.695349   227A      2.709556  
     228A      2.716338   229A      2.730060   230A      2.751049  
     231A      2.755742   232A      2.766862   233A      2.797507  
     234A      2.806391   235A      2.822620   236A      2.844238  
     237A      2.865385   238A      2.883264   239A      2.902117  
     240A      2.915157   241A      2.941398   242A      2.966898  
     243A      2.985250   244A      3.005751   245A      3.039933  
     246A      3.059202   247A      3.084447   248A      3.111985  
     249A      3.160466   250A      3.175037   251A      3.214780  
     252A      3.236439   253A      3.254599   254A      3.294041  
     255A      3.304784   256A      3.321641   257A      3.346030  
     258A      3.378849   259A      3.389333   260A      3.400250  
     261A      3.424336   262A      3.441286   263A      3.449775  
     264A      3.484718   265A      3.510905   266A      3.528926  
     267A      3.582575   268A      3.650425   269A      3.688672  
     270A      3.733527   271A      3.791016   272A      3.832972  
     273A      3.840072   274A      3.858396   275A      3.930983  
     276A      3.954602   277A      4.183852   278A      4.307513  
     279A      4.320982   280A      4.405516   281A      4.452973  
     282A      4.462976   283A      4.517907   284A      4.540347  
     285A      4.546524   286A      4.560236   287A      4.588324  
     288A      4.602716   289A      4.612820   290A      4.631973  
     291A      4.650521   292A      4.671576   293A      4.686282  
     294A      4.709244   295A      4.745271   296A      4.762842  
     297A      4.786882   298A      4.802146   299A      4.812003  
     300A      4.840557   301A      4.860907   302A      4.879684  
     303A      4.901556   304A      4.967032   305A      4.996818  
     306A      5.038878   307A      5.045347   308A      5.067311  
     309A      5.100747   310A      5.118480   311A      5.147860  
     312A      5.148534   313A      5.183027   314A      5.200620  
     315A      5.203239   316A      5.278884   317A      5.321582  
     318A      5.343760   319A      5.377451   320A      5.429865  
     321A      5.446363   322A      5.555791   323A      5.600489  
     324A      5.629271   325A      5.660213   326A      5.669262  
     327A      5.694061   328A      5.740104   329A      5.786199  
     330A      5.827936   331A      5.849846   332A      5.903303  
     333A      5.972502   334A      6.054736   335A      6.065349  
     336A      6.298036   337A      6.335738   338A      6.383741  
     339A      6.418463   340A      6.448707   341A      6.478401  
     342A      6.549597   343A      6.662286   344A      6.713770  
     345A      6.774751   346A      6.819438   347A      6.894029  
     348A      6.982266   349A      7.116547   350A      7.154989  
     351A      7.202893   352A      7.237796   353A      7.362402  
     354A      7.398424   355A      7.425926   356A      7.470869  
     357A      7.531248   358A      7.699373   359A      7.794980  
     360A      7.815152   361A      7.842485   362A      7.919343  
     363A      7.959899   364A      7.990139   365A      8.002971  
     366A      8.017537   367A      8.126866   368A      8.144621  
     369A      8.164626   370A      8.213320   371A      8.232766  
     372A      8.311381   373A      8.348459   374A      8.370201  
     375A      8.497569   376A      8.740088   377A      8.795056  
     378A      8.864842   379A      8.877237   380A      8.920926  
     381A      8.933602   382A      9.012679   383A      9.878301  
     384A      9.946814   385A     10.001614   386A     10.023600  
     387A     10.043909   388A     10.051988   389A     10.062324  
     390A     10.095789   391A     10.148247   392A     10.281399  
     393A     10.290303   394A     10.309960   395A     11.219138  
     396A     11.245313   397A     11.404226   398A     11.818662  
     399A     11.888703   400A     12.045980   401A     12.200398  
     402A     12.392332   403A     12.527073   404A     12.997662  
     405A     13.595164   406A     13.704263   407A     13.784918  
     408A     13.959720   409A     14.013985   410A     14.053425  
     411A     16.070404   412A     65.076522   413A     65.616958  
     414A     66.924872  

    Final Occupation by Irrep:
              A 
    DOCC [     5 ]
    NA   [     5 ]
    NB   [     5 ]

  @DF-RHF Final Energy:   -76.05991008630946

   => Energetics <=

    Nuclear Repulsion Energy =              9.1030959643935674
    One-Electron Energy =                -122.8864664714522803
    Two-Electron Energy =                  37.7234604207492694
    Total Energy =                        -76.0599100863094577

Computation Completed


Properties will be evaluated at   0.000000,   0.000000,   0.000000 [a0]

Properties computed using the SCF density matrix


 Multipole Moments:

 ------------------------------------------------------------------------------------
     Multipole            Electronic (a.u.)      Nuclear  (a.u.)        Total (a.u.)
 ------------------------------------------------------------------------------------

 L = 1.  Multiply by 2.5417464519 to convert [e a0] to [Debye]
 Dipole X            :        -31.9715123           32.3183192            0.3468069
 Dipole Y            :         24.2883231          -24.9251210           -0.6367979
 Dipole Z            :          6.7160905           -6.4585793            0.2575111
 Magnitude           :                                                    0.7694794

 ------------------------------------------------------------------------------------

*** tstop() called on ddmfs1 at Mon Jan 22 13:45:19 2024
Module time:
	user time   =      57.11 seconds =       0.95 minutes
	system time =       3.11 seconds =       0.05 minutes
	total time  =          4 seconds =       0.07 minutes
Total time:
	user time   =      57.11 seconds =       0.95 minutes
	system time =       3.11 seconds =       0.05 minutes
	total time  =          4 seconds =       0.07 minutes

*** tstart() called on ddmfs1
*** at Mon Jan 22 13:45:19 2024


  //>>>>>>>>>>>>>>>>>>>>>>>>>>>>>>>>>>>//
  //               DFMP2               //
  //<<<<<<<<<<<<<<<<<<<<<<<<<<<<<<<<<<<//

   => Loading Basis Set <=

    Name: (AUG-CC-PVTZ AUX)
    Role: RIFIT
    Keyword: DF_BASIS_MP2
    atoms 1                     entry LI         line    90 file /ddmfs1b/softs/psi4conda/share/psi4/basis/def2-qzvpp-ri.gbs 
    atoms 2, 5, 8, 11           entry O          line   264 file /ddmfs1b/softs/psi4conda/share/psi4/basis/aug-cc-pvtz-ri.gbs 
    atoms 3-4, 6-7, 9-10, 12-13 entry H          line    30 file /ddmfs1b/softs/psi4conda/share/psi4/basis/aug-cc-pvtz-ri.gbs 

	 --------------------------------------------------------
	                          DF-MP2                         
	      2nd-Order Density-Fitted Moller-Plesset Theory     
	              RMP2 Wavefunction,  20 Threads             
	                                                         
	        Rob Parrish, Justin Turney, Andy Simmonett,      
	           Ed Hohenstein, and C. David Sherrill          
	 --------------------------------------------------------

   => Auxiliary Basis Set <=

  Basis Set: (AUG-CC-PVTZ AUX)
    Blend: AUG-CC-PVTZ-RI + DEF2-QZVPP-RI
    Number of shells: 251
    Number of basis functions: 893
    Number of Cartesian functions: 1114
    Spherical Harmonics?: true
    Max angular momentum: 4

	 --------------------------------------------------------
	                 NBF =   414, NAUX =   893
	 --------------------------------------------------------
	   CLASS    FOCC     OCC    AOCC    AVIR     VIR    FVIR
	   PAIRS       0       5       5     409     409       0
	 --------------------------------------------------------

	-----------------------------------------------------------
	 ==================> DF-MP2 Energies <==================== 
	-----------------------------------------------------------
	 Reference Energy          =     -76.0599100863094577 [Eh]
	 Singles Energy            =      -0.0000000000000000 [Eh]
	 Same-Spin Energy          =      -0.0685552726505863 [Eh]
	 Opposite-Spin Energy      =      -0.2163622705833633 [Eh]
	 Correlation Energy        =      -0.2849175432339496 [Eh]
	 Total Energy              =     -76.3448276295434027 [Eh]
	-----------------------------------------------------------
	 ================> DF-SCS-MP2 Energies <================== 
	-----------------------------------------------------------
	 SCS Same-Spin Scale       =       0.3333333333333333 [-]
	 SCS Opposite-Spin Scale   =       1.2000000000000000 [-]
	 SCS Same-Spin Energy      =      -0.0228517575501954 [Eh]
	 SCS Opposite-Spin Energy  =      -0.2596347247000360 [Eh]
	 SCS Correlation Energy    =      -0.2824864822502314 [Eh]
	 SCS Total Energy          =     -76.3423965685596926 [Eh]
	-----------------------------------------------------------


*** tstop() called on ddmfs1 at Mon Jan 22 13:45:22 2024
Module time:
	user time   =      16.73 seconds =       0.28 minutes
	system time =       0.87 seconds =       0.01 minutes
	total time  =          3 seconds =       0.05 minutes
Total time:
	user time   =      73.86 seconds =       1.23 minutes
	system time =       3.98 seconds =       0.07 minutes
	total time  =          7 seconds =       0.12 minutes

    Psi4 stopped on: Monday, 22 January 2024 01:45PM
    Psi4 wall time for execution: 0:00:06.36

*** Psi4 exiting successfully. Buy a developer a beer!
