
    -----------------------------------------------------------------------
          Psi4: An Open-Source Ab Initio Electronic Structure Package
                               Psi4 1.8.2 release

                         Git: Rev {} zzzzzzz 


    D. G. A. Smith, L. A. Burns, A. C. Simmonett, R. M. Parrish,
    M. C. Schieber, R. Galvelis, P. Kraus, H. Kruse, R. Di Remigio,
    A. Alenaizan, A. M. James, S. Lehtola, J. P. Misiewicz, M. Scheurer,
    R. A. Shaw, J. B. Schriber, Y. Xie, Z. L. Glick, D. A. Sirianni,
    J. S. O'Brien, J. M. Waldrop, A. Kumar, E. G. Hohenstein,
    B. P. Pritchard, B. R. Brooks, H. F. Schaefer III, A. Yu. Sokolov,
    K. Patkowski, A. E. DePrince III, U. Bozkaya, R. A. King,
    F. A. Evangelista, J. M. Turney, T. D. Crawford, C. D. Sherrill,
    J. Chem. Phys. 152(18) 184108 (2020). https://doi.org/10.1063/5.0006002

                            Additional Code Authors
    E. T. Seidl, C. L. Janssen, E. F. Valeev, M. L. Leininger,
    J. F. Gonthier, R. M. Richard, H. R. McAlexander, M. Saitow, X. Wang,
    P. Verma, M. H. Lechner, A. Jiang, S. Behnle, A. G. Heide,
    M. F. Herbst, and D. L. Poole

             Previous Authors, Complete List of Code Contributors,
                       and Citations for Specific Modules
    https://github.com/psi4/psi4/blob/master/codemeta.json
    https://github.com/psi4/psi4/graphs/contributors
    http://psicode.org/psi4manual/master/introduction.html#citing-psifour

    -----------------------------------------------------------------------


    Psi4 started on: Monday, 22 January 2024 01:25PM

    Process ID: 58039
    Host:       ddmfs1
    PSIDATADIR: /ddmfs1b/softs/psi4conda/share/psi4
    Memory:     500.0 MiB
    Threads:    20
    
  ==> Input File <==

--------------------------------------------------------------------------
MEMORY 60 GB

molecule dimer {
1 1
Li         0.000000     0.000000     0.000000
O         -0.428160     1.212107    -1.751504
H          0.387713     1.643643    -1.963741
H         -1.121361     1.575916    -2.325391
O          1.781596    -0.020473     0.442877
H          2.189669     0.324703     1.208714
H          2.203752    -0.870775     0.253747
O         -1.533512     0.539063     0.971746
H         -2.298372     0.645210     0.470736
H         -1.196049     1.459017     1.138273
O         -1.049215    -1.406233    -0.742604
H         -1.939552    -1.034779    -0.873238
H         -1.113130    -2.374025    -0.865088

units ang
no_reorient
no_com
symmetry c1
}

set {
basis        aug-cc-pVTZ
scf_type     df
}

energy("mp2")
--------------------------------------------------------------------------

  Memory set to  55.879 GiB by Python driver.

Scratch directory: /ddmfs1a/scratch/
   => Libint2 <=

    Primary   basis highest AM E, G, H:  5, 4, 3
    Auxiliary basis highest AM E, G, H:  6, 5, 4
    Onebody   basis highest AM E, G, H:  6, 5, 4
    Solid Harmonics ordering:            gaussian

*** tstart() called on ddmfs1
*** at Mon Jan 22 13:25:16 2024

   => Loading Basis Set <=

    Name: AUG-CC-PVTZ
    Role: ORBITAL
    Keyword: BASIS
    atoms 1                     entry LI         line    85 file /ddmfs1b/softs/psi4conda/share/psi4/basis/aug-cc-pvtz.gbs 
    atoms 2, 5, 8, 11           entry O          line   331 file /ddmfs1b/softs/psi4conda/share/psi4/basis/aug-cc-pvtz.gbs 
    atoms 3-4, 6-7, 9-10, 12-13 entry H          line    40 file /ddmfs1b/softs/psi4conda/share/psi4/basis/aug-cc-pvtz.gbs 


         ---------------------------------------------------------
                                   SCF
               by Justin Turney, Rob Parrish, Andy Simmonett
                          and Daniel G. A. Smith
                              RHF Reference
                       20 Threads,  57220 MiB Core
         ---------------------------------------------------------

  ==> Geometry <==

    Molecular point group: c1
    Full point group: C1

    Geometry (in Angstrom), charge = 1, multiplicity = 1:

       Center              X                  Y                   Z               Mass       
    ------------   -----------------  -----------------  -----------------  -----------------
         LI           0.000000000000     0.000000000000     0.000000000000     7.016003436600
         O           -0.428160000000     1.212107000000    -1.751504000000    15.994914619570
         H            0.387713000000     1.643643000000    -1.963741000000     1.007825032230
         H           -1.121361000000     1.575916000000    -2.325391000000     1.007825032230
         O            1.781596000000    -0.020473000000     0.442877000000    15.994914619570
         H            2.189669000000     0.324703000000     1.208714000000     1.007825032230
         H            2.203752000000    -0.870775000000     0.253747000000     1.007825032230
         O           -1.533512000000     0.539063000000     0.971746000000    15.994914619570
         H           -2.298372000000     0.645210000000     0.470736000000     1.007825032230
         H           -1.196049000000     1.459017000000     1.138273000000     1.007825032230
         O           -1.049215000000    -1.406233000000    -0.742604000000    15.994914619570
         H           -1.939552000000    -1.034779000000    -0.873238000000     1.007825032230
         H           -1.113130000000    -2.374025000000    -0.865088000000     1.007825032230

  Running in c1 symmetry.

  Rotational constants: A =      0.10667  B =      0.08142  C =      0.07356 [cm^-1]
  Rotational constants: A =   3197.76318  B =   2440.80249  C =   2205.21134 [MHz]
  Nuclear repulsion =  166.355460811861576

  Charge       = 1
  Multiplicity = 1
  Electrons    = 42
  Nalpha       = 21
  Nbeta        = 21

  ==> Algorithm <==

  SCF Algorithm Type is DF.
  DIIS enabled.
  MOM disabled.
  Fractional occupation disabled.
  Guess Type is SAD.
  Energy threshold   = 1.00e-08
  Density threshold  = 1.00e-08
  Integral threshold = 1.00e-12

  ==> Primary Basis <==

  Basis Set: AUG-CC-PVTZ
    Blend: AUG-CC-PVTZ
    Number of shells: 142
    Number of basis functions: 414
    Number of Cartesian functions: 475
    Spherical Harmonics?: true
    Max angular momentum: 3

   => Loading Basis Set <=

    Name: (AUG-CC-PVTZ AUX)
    Role: JKFIT
    Keyword: DF_BASIS_SCF
    atoms 1                     entry LI         line    54 file /ddmfs1b/softs/psi4conda/share/psi4/basis/def2-universal-jkfit.gbs 
    atoms 2, 5, 8, 11           entry O          line   286 file /ddmfs1b/softs/psi4conda/share/psi4/basis/aug-cc-pvtz-jkfit.gbs 
    atoms 3-4, 6-7, 9-10, 12-13 entry H          line    70 file /ddmfs1b/softs/psi4conda/share/psi4/basis/aug-cc-pvtz-jkfit.gbs 

  ==> Integral Setup <==

  DFHelper Memory: AOs need 1.089 GiB; user supplied 41.910 GiB. 
  Using in-core AOs.

  ==> MemDFJK: Density-Fitted J/K Matrices <==

    J tasked:                   Yes
    K tasked:                   Yes
    wK tasked:                   No
    OpenMP threads:              20
    Memory [MiB]:             42915
    Algorithm:                 Core
    Schwarz Cutoff:           1E-12
    Mask sparsity (%):       4.0188
    Fitting Condition:        1E-10

   => Auxiliary Basis Set <=

  Basis Set: (AUG-CC-PVTZ AUX)
    Blend: AUG-CC-PVTZ-JKFIT + DEF2-UNIVERSAL-JKFIT
    Number of shells: 249
    Number of basis functions: 835
    Number of Cartesian functions: 1024
    Spherical Harmonics?: true
    Max angular momentum: 4

  Minimum eigenvalue in the overlap matrix is 1.3500267703E-05.
  Reciprocal condition number of the overlap matrix is 9.0748810554E-07.
    Using symmetric orthogonalization.

  ==> Pre-Iterations <==

  SCF Guess: Superposition of Atomic Densities via on-the-fly atomic UHF (no occupation information).

   -------------------------
    Irrep   Nso     Nmo    
   -------------------------
     A        414     414 
   -------------------------
    Total     414     414
   -------------------------

  ==> Iterations <==

                           Total Energy        Delta E     RMS |[F,P]|

   @DF-RHF iter SAD:  -309.66057253755849   -3.09661e+02   0.00000e+00 
   @DF-RHF iter   1:  -311.26569254380513   -1.60512e+00   2.30344e-03 ADIIS/DIIS
   @DF-RHF iter   2:  -311.49445154574812   -2.28759e-01   1.47745e-03 ADIIS/DIIS
   @DF-RHF iter   3:  -311.60927054776801   -1.14819e-01   1.13106e-04 ADIIS/DIIS
   @DF-RHF iter   4:  -311.61096413759310   -1.69359e-03   2.83585e-05 DIIS
   @DF-RHF iter   5:  -311.61106935775319   -1.05220e-04   8.20998e-06 DIIS
   @DF-RHF iter   6:  -311.61107883226379   -9.47451e-06   3.43626e-06 DIIS
   @DF-RHF iter   7:  -311.61108003639436   -1.20413e-06   6.67100e-07 DIIS
   @DF-RHF iter   8:  -311.61108012919743   -9.28031e-08   1.27643e-07 DIIS
   @DF-RHF iter   9:  -311.61108013236975   -3.17232e-09   3.05880e-08 DIIS
   @DF-RHF iter  10:  -311.61108013250629   -1.36538e-10   1.12875e-08 DIIS
   @DF-RHF iter  11:  -311.61108013251948   -1.31877e-11   3.59567e-09 DIIS
  Energy and wave function converged.


  ==> Post-Iterations <==

    Orbital Energies [Eh]
    ---------------------

    Doubly Occupied:                                                      

       1A    -20.761345     2A    -20.748489     3A    -20.740596  
       4A    -20.737045     5A     -2.538438     6A     -1.558728  
       7A     -1.547424     8A     -1.526302     9A     -1.520733  
      10A     -0.926743    11A     -0.916250    12A     -0.898714  
      13A     -0.888139    14A     -0.806434    15A     -0.789468  
      16A     -0.779502    17A     -0.757861    18A     -0.717793  
      19A     -0.712899    20A     -0.685024    21A     -0.678562  

    Virtual:                                                              

      22A     -0.100897    23A     -0.080878    24A     -0.075452  
      25A     -0.069046    26A     -0.048435    27A     -0.044939  
      28A     -0.044857    29A     -0.042254    30A     -0.036438  
      31A     -0.032498    32A     -0.031399    33A     -0.026012  
      34A     -0.022948    35A     -0.014674    36A     -0.006378  
      37A      0.009727    38A      0.022579    39A      0.025783  
      40A      0.029410    41A      0.040581    42A      0.044006  
      43A      0.049024    44A      0.050310    45A      0.053038  
      46A      0.058197    47A      0.064513    48A      0.070336  
      49A      0.073384    50A      0.078557    51A      0.085324  
      52A      0.091559    53A      0.099567    54A      0.102940  
      55A      0.114913    56A      0.123421    57A      0.127872  
      58A      0.143084    59A      0.151597    60A      0.160997  
      61A      0.167566    62A      0.176474    63A      0.182799  
      64A      0.194423    65A      0.199399    66A      0.203714  
      67A      0.212828    68A      0.221243    69A      0.225474  
      70A      0.227750    71A      0.242072    72A      0.251323  
      73A      0.257132    74A      0.259942    75A      0.268662  
      76A      0.275988    77A      0.281693    78A      0.287671  
      79A      0.292716    80A      0.298357    81A      0.301790  
      82A      0.304006    83A      0.313478    84A      0.320431  
      85A      0.322364    86A      0.331583    87A      0.337584  
      88A      0.340930    89A      0.349912    90A      0.352123  
      91A      0.354909    92A      0.363004    93A      0.364147  
      94A      0.366979    95A      0.383191    96A      0.387091  
      97A      0.391817    98A      0.394046    99A      0.397393  
     100A      0.411273   101A      0.419605   102A      0.425472  
     103A      0.440330   104A      0.453529   105A      0.464149  
     106A      0.483804   107A      0.502946   108A      0.516777  
     109A      0.540161   110A      0.561415   111A      0.573048  
     112A      0.581117   113A      0.593343   114A      0.594803  
     115A      0.608704   116A      0.619485   117A      0.634799  
     118A      0.645463   119A      0.653137   120A      0.668518  
     121A      0.684333   122A      0.694315   123A      0.700309  
     124A      0.715588   125A      0.720599   126A      0.727582  
     127A      0.736661   128A      0.743519   129A      0.749373  
     130A      0.767048   131A      0.775589   132A      0.788410  
     133A      0.789237   134A      0.801261   135A      0.802599  
     136A      0.813394   137A      0.817182   138A      0.824392  
     139A      0.834541   140A      0.843813   141A      0.850762  
     142A      0.860346   143A      0.869494   144A      0.877288  
     145A      0.893703   146A      0.903243   147A      0.907198  
     148A      0.907875   149A      0.917396   150A      0.926552  
     151A      0.932467   152A      0.946874   153A      0.958791  
     154A      0.964557   155A      0.967514   156A      0.974014  
     157A      0.978490   158A      0.988392   159A      1.001860  
     160A      1.009198   161A      1.013985   162A      1.018217  
     163A      1.031925   164A      1.043357   165A      1.052497  
     166A      1.071777   167A      1.073013   168A      1.079179  
     169A      1.085803   170A      1.107627   171A      1.118323  
     172A      1.136826   173A      1.140757   174A      1.157063  
     175A      1.174517   176A      1.176547   177A      1.186321  
     178A      1.210364   179A      1.217824   180A      1.223152  
     181A      1.245716   182A      1.267425   183A      1.274805  
     184A      1.278923   185A      1.297648   186A      1.306807  
     187A      1.326686   188A      1.338885   189A      1.349748  
     190A      1.373788   191A      1.394087   192A      1.420038  
     193A      1.430129   194A      1.433049   195A      1.469340  
     196A      1.485631   197A      1.507634   198A      1.518902  
     199A      1.539893   200A      1.575669   201A      1.583635  
     202A      1.600951   203A      1.612649   204A      1.624632  
     205A      1.632049   206A      1.644693   207A      1.669198  
     208A      1.685946   209A      1.695788   210A      1.714357  
     211A      1.723180   212A      1.735598   213A      1.755653  
     214A      1.766700   215A      1.790903   216A      1.813525  
     217A      1.854191   218A      1.872255   219A      1.899491  
     220A      1.925925   221A      1.928980   222A      1.944701  
     223A      1.951131   224A      1.999814   225A      2.031872  
     226A      2.062260   227A      2.090191   228A      2.119034  
     229A      2.150517   230A      2.197447   231A      2.221738  
     232A      2.227519   233A      2.230344   234A      2.241180  
     235A      2.253559   236A      2.282592   237A      2.294173  
     238A      2.303448   239A      2.317327   240A      2.354288  
     241A      2.375977   242A      2.394429   243A      2.421628  
     244A      2.432702   245A      2.452374   246A      2.471383  
     247A      2.481610   248A      2.508519   249A      2.527495  
     250A      2.532734   251A      2.551008   252A      2.562980  
     253A      2.595014   254A      2.603496   255A      2.629328  
     256A      2.640906   257A      2.652500   258A      2.673678  
     259A      2.678769   260A      2.707607   261A      2.709257  
     262A      2.717065   263A      2.723140   264A      2.741285  
     265A      2.762739   266A      2.763849   267A      2.800768  
     268A      2.814741   269A      2.839208   270A      2.862443  
     271A      2.876758   272A      2.910415   273A      2.925300  
     274A      2.951007   275A      3.003646   276A      3.024671  
     277A      3.080432   278A      3.653382   279A      3.699606  
     280A      3.703806   281A      3.752812   282A      3.778425  
     283A      3.808578   284A      3.818455   285A      3.866990  
     286A      3.900807   287A      3.959769   288A      3.964938  
     289A      4.038636   290A      4.071460   291A      4.093623  
     292A      4.107000   293A      4.140211   294A      4.143063  
     295A      4.151356   296A      4.161268   297A      4.174681  
     298A      4.189423   299A      4.209988   300A      4.227378  
     301A      4.274726   302A      4.287688   303A      4.311860  
     304A      4.332937   305A      4.338915   306A      4.356983  
     307A      4.369673   308A      4.394979   309A      4.403367  
     310A      4.427657   311A      4.445439   312A      4.449772  
     313A      4.465550   314A      4.482802   315A      4.508087  
     316A      4.517463   317A      4.518629   318A      4.554559  
     319A      4.589543   320A      4.593777   321A      4.643796  
     322A      4.695011   323A      4.697851   324A      4.724628  
     325A      4.727106   326A      4.744591   327A      4.753501  
     328A      4.786071   329A      4.855260   330A      4.956213  
     331A      5.002161   332A      5.022176   333A      5.035997  
     334A      5.055175   335A      5.064461   336A      5.072876  
     337A      5.124178   338A      5.156891   339A      5.172624  
     340A      5.222490   341A      5.263403   342A      5.275989  
     343A      5.305308   344A      5.323514   345A      5.354676  
     346A      5.381619   347A      5.399416   348A      5.403886  
     349A      5.490652   350A      5.539201   351A      5.703887  
     352A      5.728372   353A      5.825733   354A      5.874081  
     355A      6.131044   356A      6.172350   357A      6.192025  
     358A      6.229015   359A      6.456923   360A      6.474480  
     361A      6.492828   362A      6.515530   363A      6.629594  
     364A      6.670700   365A      6.683856   366A      6.698613  
     367A      6.778205   368A      6.815279   369A      6.823574  
     370A      6.838964   371A      7.013291   372A      7.021258  
     373A      7.031898   374A      7.086114   375A      7.120161  
     376A      7.157206   377A      7.158802   378A      7.186911  
     379A      7.188373   380A      7.201360   381A      7.216292  
     382A      7.229698   383A      7.238354   384A      7.241888  
     385A      7.252863   386A      7.272375   387A      7.285575  
     388A      7.302537   389A      7.318154   390A      7.330366  
     391A      7.342180   392A      7.353179   393A      7.393753  
     394A      7.432548   395A      7.553713   396A      7.557471  
     397A      7.603921   398A      7.679376   399A      7.758795  
     400A      7.792035   401A      7.799350   402A      7.813280  
     403A      7.836511   404A      7.840486   405A      7.887235  
     406A      7.944249   407A      8.643244   408A      8.679875  
     409A      8.731827   410A      8.792779   411A     15.680302  
     412A     16.088829   413A     16.447703   414A     16.711207  

    Final Occupation by Irrep:
              A 
    DOCC [    21 ]
    NA   [    21 ]
    NB   [    21 ]

  @DF-RHF Final Energy:  -311.61108013251948

   => Energetics <=

    Nuclear Repulsion Energy =            166.3554608118615761
    One-Electron Energy =                -753.4601010975385407
    Two-Electron Energy =                 275.4935601531574889
    Total Energy =                       -311.6110801325194757

Computation Completed


Properties will be evaluated at   0.000000,   0.000000,   0.000000 [a0]

Properties computed using the SCF density matrix


 Multipole Moments:

 ------------------------------------------------------------------------------------
     Multipole            Electronic (a.u.)      Nuclear  (a.u.)        Total (a.u.)
 ------------------------------------------------------------------------------------

 L = 1.  Multiply by 2.5417464519 to convert [e a0] to [Debye]
 Dipole X            :         23.7010248          -24.0404495           -0.3394247
 Dipole Y            :         -7.0332696            7.4920498            0.4587802
 Dipole Z            :         21.2540769          -21.9054558           -0.6513789
 Magnitude           :                                                    0.8660155

 ------------------------------------------------------------------------------------

*** tstop() called on ddmfs1 at Mon Jan 22 13:25:21 2024
Module time:
	user time   =      72.88 seconds =       1.21 minutes
	system time =       3.70 seconds =       0.06 minutes
	total time  =          5 seconds =       0.08 minutes
Total time:
	user time   =      72.88 seconds =       1.21 minutes
	system time =       3.70 seconds =       0.06 minutes
	total time  =          5 seconds =       0.08 minutes

*** tstart() called on ddmfs1
*** at Mon Jan 22 13:25:21 2024


  //>>>>>>>>>>>>>>>>>>>>>>>>>>>>>>>>>>>//
  //               DFMP2               //
  //<<<<<<<<<<<<<<<<<<<<<<<<<<<<<<<<<<<//

   => Loading Basis Set <=

    Name: (AUG-CC-PVTZ AUX)
    Role: RIFIT
    Keyword: DF_BASIS_MP2
    atoms 1                     entry LI         line    90 file /ddmfs1b/softs/psi4conda/share/psi4/basis/def2-qzvpp-ri.gbs 
    atoms 2, 5, 8, 11           entry O          line   264 file /ddmfs1b/softs/psi4conda/share/psi4/basis/aug-cc-pvtz-ri.gbs 
    atoms 3-4, 6-7, 9-10, 12-13 entry H          line    30 file /ddmfs1b/softs/psi4conda/share/psi4/basis/aug-cc-pvtz-ri.gbs 

	 --------------------------------------------------------
	                          DF-MP2                         
	      2nd-Order Density-Fitted Moller-Plesset Theory     
	              RMP2 Wavefunction,  20 Threads             
	                                                         
	        Rob Parrish, Justin Turney, Andy Simmonett,      
	           Ed Hohenstein, and C. David Sherrill          
	 --------------------------------------------------------

   => Auxiliary Basis Set <=

  Basis Set: (AUG-CC-PVTZ AUX)
    Blend: AUG-CC-PVTZ-RI + DEF2-QZVPP-RI
    Number of shells: 251
    Number of basis functions: 893
    Number of Cartesian functions: 1114
    Spherical Harmonics?: true
    Max angular momentum: 4

	 --------------------------------------------------------
	                 NBF =   414, NAUX =   893
	 --------------------------------------------------------
	   CLASS    FOCC     OCC    AOCC    AVIR     VIR    FVIR
	   PAIRS       0      21      21     393     393       0
	 --------------------------------------------------------

	-----------------------------------------------------------
	 ==================> DF-MP2 Energies <==================== 
	-----------------------------------------------------------
	 Reference Energy          =    -311.6110801325194757 [Eh]
	 Singles Energy            =      -0.0000000000000000 [Eh]
	 Same-Spin Energy          =      -0.2758133270968874 [Eh]
	 Opposite-Spin Energy      =      -0.8785039566057437 [Eh]
	 Correlation Energy        =      -1.1543172837026310 [Eh]
	 Total Energy              =    -312.7653974162221289 [Eh]
	-----------------------------------------------------------
	 ================> DF-SCS-MP2 Energies <================== 
	-----------------------------------------------------------
	 SCS Same-Spin Scale       =       0.3333333333333333 [-]
	 SCS Opposite-Spin Scale   =       1.2000000000000000 [-]
	 SCS Same-Spin Energy      =      -0.0919377756989625 [Eh]
	 SCS Opposite-Spin Energy  =      -1.0542047479268923 [Eh]
	 SCS Correlation Energy    =      -1.1461425236258549 [Eh]
	 SCS Total Energy          =    -312.7572226561453590 [Eh]
	-----------------------------------------------------------


*** tstop() called on ddmfs1 at Mon Jan 22 13:25:24 2024
Module time:
	user time   =      23.19 seconds =       0.39 minutes
	system time =       1.12 seconds =       0.02 minutes
	total time  =          3 seconds =       0.05 minutes
Total time:
	user time   =      96.09 seconds =       1.60 minutes
	system time =       4.82 seconds =       0.08 minutes
	total time  =          8 seconds =       0.13 minutes

    Psi4 stopped on: Monday, 22 January 2024 01:25PM
    Psi4 wall time for execution: 0:00:07.48

*** Psi4 exiting successfully. Buy a developer a beer!
