
    -----------------------------------------------------------------------
          Psi4: An Open-Source Ab Initio Electronic Structure Package
                               Psi4 1.8.2 release

                         Git: Rev {} zzzzzzz 


    D. G. A. Smith, L. A. Burns, A. C. Simmonett, R. M. Parrish,
    M. C. Schieber, R. Galvelis, P. Kraus, H. Kruse, R. Di Remigio,
    A. Alenaizan, A. M. James, S. Lehtola, J. P. Misiewicz, M. Scheurer,
    R. A. Shaw, J. B. Schriber, Y. Xie, Z. L. Glick, D. A. Sirianni,
    J. S. O'Brien, J. M. Waldrop, A. Kumar, E. G. Hohenstein,
    B. P. Pritchard, B. R. Brooks, H. F. Schaefer III, A. Yu. Sokolov,
    K. Patkowski, A. E. DePrince III, U. Bozkaya, R. A. King,
    F. A. Evangelista, J. M. Turney, T. D. Crawford, C. D. Sherrill,
    J. Chem. Phys. 152(18) 184108 (2020). https://doi.org/10.1063/5.0006002

                            Additional Code Authors
    E. T. Seidl, C. L. Janssen, E. F. Valeev, M. L. Leininger,
    J. F. Gonthier, R. M. Richard, H. R. McAlexander, M. Saitow, X. Wang,
    P. Verma, M. H. Lechner, A. Jiang, S. Behnle, A. G. Heide,
    M. F. Herbst, and D. L. Poole

             Previous Authors, Complete List of Code Contributors,
                       and Citations for Specific Modules
    https://github.com/psi4/psi4/blob/master/codemeta.json
    https://github.com/psi4/psi4/graphs/contributors
    http://psicode.org/psi4manual/master/introduction.html#citing-psifour

    -----------------------------------------------------------------------


    Psi4 started on: Monday, 22 January 2024 01:52PM

    Process ID: 63478
    Host:       ddmfs1
    PSIDATADIR: /ddmfs1b/softs/psi4conda/share/psi4
    Memory:     500.0 MiB
    Threads:    20
    
  ==> Input File <==

--------------------------------------------------------------------------
MEMORY 60 GB

molecule dimer {
0 1
Gh(Li)     0.000000     0.000000     0.000000
Gh(O)      0.834436    -0.241329    -1.578276
Gh(H)      1.191917    -1.111872    -1.723723
Gh(H)      1.469698     0.437227    -1.857302
Gh(O)     -1.157150    -1.678256     0.354050
Gh(H)     -2.090219    -1.865260     0.521759
Gh(H)     -0.712408    -2.505514     0.115149
Gh(O)     -1.517712     1.412924    -0.255778
Gh(H)     -1.084382     2.261262    -0.283873
Gh(H)     -1.989995     1.420311     0.576573
O          0.904310     1.187102     1.315687
H          1.168203     0.886967     2.209891
H          0.442074     1.996661     1.434603

units ang
no_reorient
no_com
symmetry c1
}

set {
basis        aug-cc-pVTZ
scf_type     df
}

energy("mp2")
--------------------------------------------------------------------------

  Memory set to  55.879 GiB by Python driver.

Scratch directory: /ddmfs1a/scratch/
   => Libint2 <=

    Primary   basis highest AM E, G, H:  5, 4, 3
    Auxiliary basis highest AM E, G, H:  6, 5, 4
    Onebody   basis highest AM E, G, H:  6, 5, 4
    Solid Harmonics ordering:            gaussian

*** tstart() called on ddmfs1
*** at Mon Jan 22 13:52:52 2024

   => Loading Basis Set <=

    Name: AUG-CC-PVTZ
    Role: ORBITAL
    Keyword: BASIS
    atoms 1                     entry LI         line    85 file /ddmfs1b/softs/psi4conda/share/psi4/basis/aug-cc-pvtz.gbs 
    atoms 2, 5, 8, 11           entry O          line   331 file /ddmfs1b/softs/psi4conda/share/psi4/basis/aug-cc-pvtz.gbs 
    atoms 3-4, 6-7, 9-10, 12-13 entry H          line    40 file /ddmfs1b/softs/psi4conda/share/psi4/basis/aug-cc-pvtz.gbs 


         ---------------------------------------------------------
                                   SCF
               by Justin Turney, Rob Parrish, Andy Simmonett
                          and Daniel G. A. Smith
                              RHF Reference
                       20 Threads,  57220 MiB Core
         ---------------------------------------------------------

  ==> Geometry <==

    Molecular point group: c1
    Full point group: C1

    Geometry (in Angstrom), charge = 0, multiplicity = 1:

       Center              X                  Y                   Z               Mass       
    ------------   -----------------  -----------------  -----------------  -----------------
      Gh(LI)          0.000000000000     0.000000000000     0.000000000000     7.016003436600
      Gh(O)           0.834436000000    -0.241329000000    -1.578276000000    15.994914619570
      Gh(H)           1.191917000000    -1.111872000000    -1.723723000000     1.007825032230
      Gh(H)           1.469698000000     0.437227000000    -1.857302000000     1.007825032230
      Gh(O)          -1.157150000000    -1.678256000000     0.354050000000    15.994914619570
      Gh(H)          -2.090219000000    -1.865260000000     0.521759000000     1.007825032230
      Gh(H)          -0.712408000000    -2.505514000000     0.115149000000     1.007825032230
      Gh(O)          -1.517712000000     1.412924000000    -0.255778000000    15.994914619570
      Gh(H)          -1.084382000000     2.261262000000    -0.283873000000     1.007825032230
      Gh(H)          -1.989995000000     1.420311000000     0.576573000000     1.007825032230
         O            0.904310000000     1.187102000000     1.315687000000    15.994914619570
         H            1.168203000000     0.886967000000     2.209891000000     1.007825032230
         H            0.442074000000     1.996661000000     1.434603000000     1.007825032230

  Running in c1 symmetry.

  Rotational constants: A =      0.09841  B =      0.08167  C =      0.07182 [cm^-1]
  Rotational constants: A =   2950.29173  B =   2448.27940  C =   2153.02335 [MHz]
  Nuclear repulsion =    9.171408620190357

  Charge       = 0
  Multiplicity = 1
  Electrons    = 10
  Nalpha       = 5
  Nbeta        = 5

  ==> Algorithm <==

  SCF Algorithm Type is DF.
  DIIS enabled.
  MOM disabled.
  Fractional occupation disabled.
  Guess Type is SAD.
  Energy threshold   = 1.00e-08
  Density threshold  = 1.00e-08
  Integral threshold = 1.00e-12

  ==> Primary Basis <==

  Basis Set: AUG-CC-PVTZ
    Blend: AUG-CC-PVTZ
    Number of shells: 142
    Number of basis functions: 414
    Number of Cartesian functions: 475
    Spherical Harmonics?: true
    Max angular momentum: 3

   => Loading Basis Set <=

    Name: (AUG-CC-PVTZ AUX)
    Role: JKFIT
    Keyword: DF_BASIS_SCF
    atoms 1                     entry LI         line    54 file /ddmfs1b/softs/psi4conda/share/psi4/basis/def2-universal-jkfit.gbs 
    atoms 2, 5, 8, 11           entry O          line   286 file /ddmfs1b/softs/psi4conda/share/psi4/basis/aug-cc-pvtz-jkfit.gbs 
    atoms 3-4, 6-7, 9-10, 12-13 entry H          line    70 file /ddmfs1b/softs/psi4conda/share/psi4/basis/aug-cc-pvtz-jkfit.gbs 

  ==> Integral Setup <==

  DFHelper Memory: AOs need 1.082 GiB; user supplied 41.910 GiB. 
  Using in-core AOs.

  ==> MemDFJK: Density-Fitted J/K Matrices <==

    J tasked:                   Yes
    K tasked:                   Yes
    wK tasked:                   No
    OpenMP threads:              20
    Memory [MiB]:             42915
    Algorithm:                 Core
    Schwarz Cutoff:           1E-12
    Mask sparsity (%):       4.6139
    Fitting Condition:        1E-10

   => Auxiliary Basis Set <=

  Basis Set: (AUG-CC-PVTZ AUX)
    Blend: AUG-CC-PVTZ-JKFIT + DEF2-UNIVERSAL-JKFIT
    Number of shells: 249
    Number of basis functions: 835
    Number of Cartesian functions: 1024
    Spherical Harmonics?: true
    Max angular momentum: 4

  Minimum eigenvalue in the overlap matrix is 1.5891304346E-05.
  Reciprocal condition number of the overlap matrix is 1.0992824774E-06.
    Using symmetric orthogonalization.

  ==> Pre-Iterations <==

  SCF Guess: Superposition of Atomic Densities via on-the-fly atomic UHF (no occupation information).

   -------------------------
    Irrep   Nso     Nmo    
   -------------------------
     A        414     414 
   -------------------------
    Total     414     414
   -------------------------

  ==> Iterations <==

                           Total Energy        Delta E     RMS |[F,P]|

   @DF-RHF iter SAD:   -75.47306947840141   -7.54731e+01   0.00000e+00 
   @DF-RHF iter   1:   -75.97547705859182   -5.02408e-01   1.13272e-03 DIIS/ADIIS
   @DF-RHF iter   2:   -76.02802972688691   -5.25527e-02   7.71000e-04 DIIS/ADIIS
   @DF-RHF iter   3:   -76.05941231066824   -3.13826e-02   5.25141e-05 DIIS
   @DF-RHF iter   4:   -76.05980742828731   -3.95118e-04   1.26066e-05 DIIS
   @DF-RHF iter   5:   -76.05983223892930   -2.48106e-05   2.87514e-06 DIIS
   @DF-RHF iter   6:   -76.05983429711078   -2.05818e-06   6.38816e-07 DIIS
   @DF-RHF iter   7:   -76.05983440940082   -1.12290e-07   1.17782e-07 DIIS
   @DF-RHF iter   8:   -76.05983441276547   -3.36465e-09   1.97049e-08 DIIS
   @DF-RHF iter   9:   -76.05983441284039   -7.49196e-11   4.96893e-09 DIIS
  Energy and wave function converged.


  ==> Post-Iterations <==

    Orbital Energies [Eh]
    ---------------------

    Doubly Occupied:                                                      

       1A    -20.566482     2A     -1.351330     3A     -0.719978  
       4A     -0.580725     5A     -0.509619  

    Virtual:                                                              

       6A      0.008815     7A      0.017921     8A      0.018308  
       9A      0.019615    10A      0.043931    11A      0.054641  
      12A      0.057686    13A      0.059309    14A      0.062106  
      15A      0.064437    16A      0.065533    17A      0.067248  
      18A      0.072531    19A      0.086383    20A      0.092305  
      21A      0.103025    22A      0.143085    23A      0.149780  
      24A      0.154485    25A      0.155608    26A      0.159319  
      27A      0.161228    28A      0.163996    29A      0.167327  
      30A      0.171348    31A      0.177145    32A      0.181338  
      33A      0.183529    34A      0.192426    35A      0.203851  
      36A      0.214356    37A      0.225673    38A      0.226051  
      39A      0.242999    40A      0.251255    41A      0.258969  
      42A      0.270765    43A      0.295398    44A      0.300939  
      45A      0.313534    46A      0.317456    47A      0.321370  
      48A      0.324565    49A      0.338938    50A      0.353809  
      51A      0.360064    52A      0.362772    53A      0.368222  
      54A      0.371814    55A      0.376799    56A      0.382869  
      57A      0.386461    58A      0.391270    59A      0.402236  
      60A      0.403924    61A      0.410224    62A      0.415711  
      63A      0.418018    64A      0.421189    65A      0.427973  
      66A      0.438093    67A      0.443317    68A      0.446547  
      69A      0.455261    70A      0.463382    71A      0.465442  
      72A      0.473084    73A      0.477591    74A      0.491190  
      75A      0.495422    76A      0.505043    77A      0.510785  
      78A      0.517179    79A      0.518606    80A      0.522833  
      81A      0.536770    82A      0.550754    83A      0.552359  
      84A      0.566282    85A      0.572230    86A      0.591477  
      87A      0.597626    88A      0.604994    89A      0.628792  
      90A      0.629605    91A      0.685727    92A      0.709046  
      93A      0.731073    94A      0.741643    95A      0.754143  
      96A      0.774821    97A      0.799001    98A      0.813762  
      99A      0.824095   100A      0.825316   101A      0.834170  
     102A      0.846317   103A      0.848665   104A      0.852329  
     105A      0.854982   106A      0.860535   107A      0.874871  
     108A      0.881465   109A      0.886412   110A      0.900716  
     111A      0.916122   112A      0.919134   113A      0.926588  
     114A      0.935724   115A      0.938062   116A      0.946195  
     117A      0.960970   118A      0.962275   119A      0.969914  
     120A      0.983288   121A      0.995597   122A      1.001069  
     123A      1.008930   124A      1.016196   125A      1.025282  
     126A      1.028408   127A      1.042716   128A      1.055591  
     129A      1.062145   130A      1.067452   131A      1.080087  
     132A      1.081022   133A      1.087427   134A      1.100219  
     135A      1.103288   136A      1.114520   137A      1.124072  
     138A      1.132123   139A      1.135239   140A      1.144241  
     141A      1.153719   142A      1.171883   143A      1.178232  
     144A      1.184876   145A      1.194070   146A      1.201180  
     147A      1.210732   148A      1.225692   149A      1.233913  
     150A      1.244698   151A      1.254144   152A      1.263161  
     153A      1.277987   154A      1.285238   155A      1.307102  
     156A      1.314189   157A      1.326494   158A      1.333134  
     159A      1.335746   160A      1.346031   161A      1.373940  
     162A      1.376416   163A      1.384189   164A      1.397730  
     165A      1.425681   166A      1.445781   167A      1.453940  
     168A      1.466880   169A      1.480845   170A      1.502638  
     171A      1.523127   172A      1.534324   173A      1.549601  
     174A      1.557069   175A      1.581831   176A      1.583053  
     177A      1.625892   178A      1.641899   179A      1.665929  
     180A      1.687534   181A      1.694656   182A      1.706551  
     183A      1.748703   184A      1.756950   185A      1.773331  
     186A      1.791091   187A      1.808478   188A      1.831558  
     189A      1.849420   190A      1.876432   191A      1.891987  
     192A      1.899901   193A      1.911501   194A      1.922745  
     195A      1.943434   196A      1.949350   197A      1.970780  
     198A      1.983858   199A      1.999409   200A      2.009773  
     201A      2.019148   202A      2.036295   203A      2.055494  
     204A      2.076824   205A      2.099820   206A      2.108985  
     207A      2.131178   208A      2.131476   209A      2.172316  
     210A      2.241546   211A      2.275128   212A      2.329189  
     213A      2.360899   214A      2.436093   215A      2.469729  
     216A      2.477986   217A      2.536953   218A      2.550500  
     219A      2.560986   220A      2.576663   221A      2.587172  
     222A      2.600748   223A      2.619310   224A      2.621183  
     225A      2.640432   226A      2.673703   227A      2.696911  
     228A      2.712599   229A      2.718123   230A      2.734044  
     231A      2.764344   232A      2.779599   233A      2.791413  
     234A      2.808847   235A      2.818378   236A      2.837916  
     237A      2.847703   238A      2.893092   239A      2.897181  
     240A      2.906736   241A      2.941952   242A      2.952343  
     243A      2.970947   244A      3.010596   245A      3.027741  
     246A      3.044017   247A      3.080317   248A      3.111307  
     249A      3.121914   250A      3.146526   251A      3.195089  
     252A      3.219649   253A      3.274093   254A      3.286468  
     255A      3.295916   256A      3.303710   257A      3.320285  
     258A      3.334721   259A      3.349471   260A      3.375224  
     261A      3.396298   262A      3.409857   263A      3.421673  
     264A      3.431687   265A      3.523295   266A      3.531074  
     267A      3.555213   268A      3.571680   269A      3.698819  
     270A      3.735496   271A      3.751072   272A      3.766692  
     273A      3.812292   274A      3.849608   275A      3.948851  
     276A      3.956460   277A      4.166497   278A      4.303000  
     279A      4.353427   280A      4.403949   281A      4.427825  
     282A      4.476613   283A      4.482366   284A      4.507937  
     285A      4.546472   286A      4.587563   287A      4.598298  
     288A      4.617041   289A      4.623362   290A      4.643710  
     291A      4.652859   292A      4.662277   293A      4.682357  
     294A      4.725999   295A      4.760408   296A      4.772578  
     297A      4.776619   298A      4.794617   299A      4.818360  
     300A      4.849301   301A      4.855869   302A      4.866687  
     303A      4.893375   304A      4.899825   305A      4.974953  
     306A      5.027336   307A      5.071637   308A      5.075977  
     309A      5.100794   310A      5.146799   311A      5.163844  
     312A      5.181107   313A      5.190662   314A      5.200064  
     315A      5.230064   316A      5.254986   317A      5.279446  
     318A      5.323891   319A      5.345565   320A      5.395738  
     321A      5.447589   322A      5.551445   323A      5.593024  
     324A      5.601491   325A      5.605968   326A      5.643295  
     327A      5.675363   328A      5.728073   329A      5.752351  
     330A      5.778374   331A      5.831343   332A      5.904531  
     333A      5.925430   334A      5.944407   335A      6.024831  
     336A      6.252367   337A      6.353269   338A      6.375728  
     339A      6.419301   340A      6.432409   341A      6.478534  
     342A      6.495866   343A      6.675694   344A      6.770434  
     345A      6.857967   346A      6.882941   347A      6.938396  
     348A      7.030255   349A      7.102200   350A      7.151037  
     351A      7.183064   352A      7.226100   353A      7.374942  
     354A      7.399630   355A      7.425720   356A      7.458503  
     357A      7.512025   358A      7.727794   359A      7.791229  
     360A      7.803675   361A      7.825808   362A      7.867282  
     363A      7.932222   364A      7.946041   365A      7.965515  
     366A      8.038011   367A      8.133002   368A      8.196367  
     369A      8.219100   370A      8.249334   371A      8.288654  
     372A      8.306275   373A      8.329638   374A      8.390897  
     375A      8.419864   376A      8.809644   377A      8.810278  
     378A      8.848839   379A      8.866101   380A      8.886752  
     381A      8.909939   382A      8.922964   383A      9.893726  
     384A      9.933546   385A      9.973470   386A     10.015354  
     387A     10.020010   388A     10.048640   389A     10.060631  
     390A     10.089768   391A     10.107986   392A     10.239794  
     393A     10.252807   394A     10.258858   395A     11.182322  
     396A     11.215251   397A     11.302172   398A     11.791477  
     399A     11.890711   400A     11.937852   401A     12.230875  
     402A     12.355051   403A     12.398597   404A     12.891884  
     405A     13.592687   406A     13.671023   407A     13.789775  
     408A     13.917889   409A     13.976757   410A     14.057906  
     411A     16.379889   412A     65.113668   413A     65.740956  
     414A     66.280743  

    Final Occupation by Irrep:
              A 
    DOCC [     5 ]
    NA   [     5 ]
    NB   [     5 ]

  @DF-RHF Final Energy:   -76.05983441284039

   => Energetics <=

    Nuclear Repulsion Energy =              9.1714086201903573
    One-Electron Energy =                -123.0062142327671495
    Two-Electron Energy =                  37.7749711997364059
    Total Energy =                        -76.0598344128403880

Computation Completed


Properties will be evaluated at   0.000000,   0.000000,   0.000000 [a0]

Properties computed using the SCF density matrix


 Multipole Moments:

 ------------------------------------------------------------------------------------
     Multipole            Electronic (a.u.)      Nuclear  (a.u.)        Total (a.u.)
 ------------------------------------------------------------------------------------

 L = 1.  Multiply by 2.5417464519 to convert [e a0] to [Debye]
 Dipole X            :        -16.8495000           16.7141684           -0.1353316
 Dipole Y            :        -23.0506078           23.3956485            0.3450407
 Dipole Z            :        -26.1041195           26.7774003            0.6732808
 Magnitude           :                                                    0.7685536

 ------------------------------------------------------------------------------------

*** tstop() called on ddmfs1 at Mon Jan 22 13:52:55 2024
Module time:
	user time   =      53.51 seconds =       0.89 minutes
	system time =       2.89 seconds =       0.05 minutes
	total time  =          3 seconds =       0.05 minutes
Total time:
	user time   =      53.51 seconds =       0.89 minutes
	system time =       2.89 seconds =       0.05 minutes
	total time  =          3 seconds =       0.05 minutes

*** tstart() called on ddmfs1
*** at Mon Jan 22 13:52:55 2024


  //>>>>>>>>>>>>>>>>>>>>>>>>>>>>>>>>>>>//
  //               DFMP2               //
  //<<<<<<<<<<<<<<<<<<<<<<<<<<<<<<<<<<<//

   => Loading Basis Set <=

    Name: (AUG-CC-PVTZ AUX)
    Role: RIFIT
    Keyword: DF_BASIS_MP2
    atoms 1                     entry LI         line    90 file /ddmfs1b/softs/psi4conda/share/psi4/basis/def2-qzvpp-ri.gbs 
    atoms 2, 5, 8, 11           entry O          line   264 file /ddmfs1b/softs/psi4conda/share/psi4/basis/aug-cc-pvtz-ri.gbs 
    atoms 3-4, 6-7, 9-10, 12-13 entry H          line    30 file /ddmfs1b/softs/psi4conda/share/psi4/basis/aug-cc-pvtz-ri.gbs 

	 --------------------------------------------------------
	                          DF-MP2                         
	      2nd-Order Density-Fitted Moller-Plesset Theory     
	              RMP2 Wavefunction,  20 Threads             
	                                                         
	        Rob Parrish, Justin Turney, Andy Simmonett,      
	           Ed Hohenstein, and C. David Sherrill          
	 --------------------------------------------------------

   => Auxiliary Basis Set <=

  Basis Set: (AUG-CC-PVTZ AUX)
    Blend: AUG-CC-PVTZ-RI + DEF2-QZVPP-RI
    Number of shells: 251
    Number of basis functions: 893
    Number of Cartesian functions: 1114
    Spherical Harmonics?: true
    Max angular momentum: 4

	 --------------------------------------------------------
	                 NBF =   414, NAUX =   893
	 --------------------------------------------------------
	   CLASS    FOCC     OCC    AOCC    AVIR     VIR    FVIR
	   PAIRS       0       5       5     409     409       0
	 --------------------------------------------------------

	-----------------------------------------------------------
	 ==================> DF-MP2 Energies <==================== 
	-----------------------------------------------------------
	 Reference Energy          =     -76.0598344128403880 [Eh]
	 Singles Energy            =      -0.0000000000000000 [Eh]
	 Same-Spin Energy          =      -0.0684389264748667 [Eh]
	 Opposite-Spin Energy      =      -0.2160615714130652 [Eh]
	 Correlation Energy        =      -0.2845004978879319 [Eh]
	 Total Energy              =     -76.3443349107283211 [Eh]
	-----------------------------------------------------------
	 ================> DF-SCS-MP2 Energies <================== 
	-----------------------------------------------------------
	 SCS Same-Spin Scale       =       0.3333333333333333 [-]
	 SCS Opposite-Spin Scale   =       1.2000000000000000 [-]
	 SCS Same-Spin Energy      =      -0.0228129754916222 [Eh]
	 SCS Opposite-Spin Energy  =      -0.2592738856956782 [Eh]
	 SCS Correlation Energy    =      -0.2820868611873004 [Eh]
	 SCS Total Energy          =     -76.3419212740276834 [Eh]
	-----------------------------------------------------------


*** tstop() called on ddmfs1 at Mon Jan 22 13:52:58 2024
Module time:
	user time   =      16.58 seconds =       0.28 minutes
	system time =       0.98 seconds =       0.02 minutes
	total time  =          3 seconds =       0.05 minutes
Total time:
	user time   =      70.11 seconds =       1.17 minutes
	system time =       3.87 seconds =       0.06 minutes
	total time  =          6 seconds =       0.10 minutes

    Psi4 stopped on: Monday, 22 January 2024 01:52PM
    Psi4 wall time for execution: 0:00:06.04

*** Psi4 exiting successfully. Buy a developer a beer!
