
    -----------------------------------------------------------------------
          Psi4: An Open-Source Ab Initio Electronic Structure Package
                               Psi4 1.8.2 release

                         Git: Rev {} zzzzzzz 


    D. G. A. Smith, L. A. Burns, A. C. Simmonett, R. M. Parrish,
    M. C. Schieber, R. Galvelis, P. Kraus, H. Kruse, R. Di Remigio,
    A. Alenaizan, A. M. James, S. Lehtola, J. P. Misiewicz, M. Scheurer,
    R. A. Shaw, J. B. Schriber, Y. Xie, Z. L. Glick, D. A. Sirianni,
    J. S. O'Brien, J. M. Waldrop, A. Kumar, E. G. Hohenstein,
    B. P. Pritchard, B. R. Brooks, H. F. Schaefer III, A. Yu. Sokolov,
    K. Patkowski, A. E. DePrince III, U. Bozkaya, R. A. King,
    F. A. Evangelista, J. M. Turney, T. D. Crawford, C. D. Sherrill,
    J. Chem. Phys. 152(18) 184108 (2020). https://doi.org/10.1063/5.0006002

                            Additional Code Authors
    E. T. Seidl, C. L. Janssen, E. F. Valeev, M. L. Leininger,
    J. F. Gonthier, R. M. Richard, H. R. McAlexander, M. Saitow, X. Wang,
    P. Verma, M. H. Lechner, A. Jiang, S. Behnle, A. G. Heide,
    M. F. Herbst, and D. L. Poole

             Previous Authors, Complete List of Code Contributors,
                       and Citations for Specific Modules
    https://github.com/psi4/psi4/blob/master/codemeta.json
    https://github.com/psi4/psi4/graphs/contributors
    http://psicode.org/psi4manual/master/introduction.html#citing-psifour

    -----------------------------------------------------------------------


    Psi4 started on: Monday, 22 January 2024 01:13PM

    Process ID: 55643
    Host:       ddmfs1
    PSIDATADIR: /ddmfs1b/softs/psi4conda/share/psi4
    Memory:     500.0 MiB
    Threads:    20
    
  ==> Input File <==

--------------------------------------------------------------------------
MEMORY 60 GB

molecule dimer {
0 1
Gh(Li)     0.000000     0.000000     0.000000
Gh(O)     -1.680746     0.276584    -0.524122
Gh(H)     -2.436906    -0.277091    -0.431906
Gh(H)     -1.899859     1.075426    -0.063132
O         -0.071560    -1.420903     1.240510
H         -0.473745    -2.213538     0.802591
H         -0.780622    -1.152250     1.882048
Gh(O)      0.700028     1.207376     1.195221
Gh(H)      0.272867     1.039453     2.053918
Gh(H)      0.629594     2.124003     0.978537
Gh(O)      1.186987    -0.149614    -1.450273
Gh(H)      1.341045     0.793609    -1.646914
Gh(H)      0.746015    -0.501685    -2.225984

units ang
no_reorient
no_com
symmetry c1
}

set {
basis        aug-cc-pVTZ
scf_type     df
}

energy("mp2")
--------------------------------------------------------------------------

  Memory set to  55.879 GiB by Python driver.

Scratch directory: /ddmfs1a/scratch/
   => Libint2 <=

    Primary   basis highest AM E, G, H:  5, 4, 3
    Auxiliary basis highest AM E, G, H:  6, 5, 4
    Onebody   basis highest AM E, G, H:  6, 5, 4
    Solid Harmonics ordering:            gaussian

*** tstart() called on ddmfs1
*** at Mon Jan 22 13:13:09 2024

   => Loading Basis Set <=

    Name: AUG-CC-PVTZ
    Role: ORBITAL
    Keyword: BASIS
    atoms 1                     entry LI         line    85 file /ddmfs1b/softs/psi4conda/share/psi4/basis/aug-cc-pvtz.gbs 
    atoms 2, 5, 8, 11           entry O          line   331 file /ddmfs1b/softs/psi4conda/share/psi4/basis/aug-cc-pvtz.gbs 
    atoms 3-4, 6-7, 9-10, 12-13 entry H          line    40 file /ddmfs1b/softs/psi4conda/share/psi4/basis/aug-cc-pvtz.gbs 


         ---------------------------------------------------------
                                   SCF
               by Justin Turney, Rob Parrish, Andy Simmonett
                          and Daniel G. A. Smith
                              RHF Reference
                       20 Threads,  57220 MiB Core
         ---------------------------------------------------------

  ==> Geometry <==

    Molecular point group: c1
    Full point group: C1

    Geometry (in Angstrom), charge = 0, multiplicity = 1:

       Center              X                  Y                   Z               Mass       
    ------------   -----------------  -----------------  -----------------  -----------------
      Gh(LI)          0.000000000000     0.000000000000     0.000000000000     7.016003436600
      Gh(O)          -1.680746000000     0.276584000000    -0.524122000000    15.994914619570
      Gh(H)          -2.436906000000    -0.277091000000    -0.431906000000     1.007825032230
      Gh(H)          -1.899859000000     1.075426000000    -0.063132000000     1.007825032230
         O           -0.071560000000    -1.420903000000     1.240510000000    15.994914619570
         H           -0.473745000000    -2.213538000000     0.802591000000     1.007825032230
         H           -0.780622000000    -1.152250000000     1.882048000000     1.007825032230
      Gh(O)           0.700028000000     1.207376000000     1.195221000000    15.994914619570
      Gh(H)           0.272867000000     1.039453000000     2.053918000000     1.007825032230
      Gh(H)           0.629594000000     2.124003000000     0.978537000000     1.007825032230
      Gh(O)           1.186987000000    -0.149614000000    -1.450273000000    15.994914619570
      Gh(H)           1.341045000000     0.793609000000    -1.646914000000     1.007825032230
      Gh(H)           0.746015000000    -0.501685000000    -2.225984000000     1.007825032230

  Running in c1 symmetry.

  Rotational constants: A =      0.10701  B =      0.09704  C =      0.08652 [cm^-1]
  Rotational constants: A =   3208.22725  B =   2909.31280  C =   2593.77162 [MHz]
  Nuclear repulsion =    8.877341398736601

  Charge       = 0
  Multiplicity = 1
  Electrons    = 10
  Nalpha       = 5
  Nbeta        = 5

  ==> Algorithm <==

  SCF Algorithm Type is DF.
  DIIS enabled.
  MOM disabled.
  Fractional occupation disabled.
  Guess Type is SAD.
  Energy threshold   = 1.00e-08
  Density threshold  = 1.00e-08
  Integral threshold = 1.00e-12

  ==> Primary Basis <==

  Basis Set: AUG-CC-PVTZ
    Blend: AUG-CC-PVTZ
    Number of shells: 142
    Number of basis functions: 414
    Number of Cartesian functions: 475
    Spherical Harmonics?: true
    Max angular momentum: 3

   => Loading Basis Set <=

    Name: (AUG-CC-PVTZ AUX)
    Role: JKFIT
    Keyword: DF_BASIS_SCF
    atoms 1                     entry LI         line    54 file /ddmfs1b/softs/psi4conda/share/psi4/basis/def2-universal-jkfit.gbs 
    atoms 2, 5, 8, 11           entry O          line   286 file /ddmfs1b/softs/psi4conda/share/psi4/basis/aug-cc-pvtz-jkfit.gbs 
    atoms 3-4, 6-7, 9-10, 12-13 entry H          line    70 file /ddmfs1b/softs/psi4conda/share/psi4/basis/aug-cc-pvtz-jkfit.gbs 

  ==> Integral Setup <==

  DFHelper Memory: AOs need 1.102 GiB; user supplied 41.910 GiB. 
  Using in-core AOs.

  ==> MemDFJK: Density-Fitted J/K Matrices <==

    J tasked:                   Yes
    K tasked:                   Yes
    wK tasked:                   No
    OpenMP threads:              20
    Memory [MiB]:             42915
    Algorithm:                 Core
    Schwarz Cutoff:           1E-12
    Mask sparsity (%):       2.8122
    Fitting Condition:        1E-10

   => Auxiliary Basis Set <=

  Basis Set: (AUG-CC-PVTZ AUX)
    Blend: AUG-CC-PVTZ-JKFIT + DEF2-UNIVERSAL-JKFIT
    Number of shells: 249
    Number of basis functions: 835
    Number of Cartesian functions: 1024
    Spherical Harmonics?: true
    Max angular momentum: 4

  Minimum eigenvalue in the overlap matrix is 1.6315094220E-05.
  Reciprocal condition number of the overlap matrix is 1.0512086100E-06.
    Using symmetric orthogonalization.

  ==> Pre-Iterations <==

  SCF Guess: Superposition of Atomic Densities via on-the-fly atomic UHF (no occupation information).

   -------------------------
    Irrep   Nso     Nmo    
   -------------------------
     A        414     414 
   -------------------------
    Total     414     414
   -------------------------

  ==> Iterations <==

                           Total Energy        Delta E     RMS |[F,P]|

   @DF-RHF iter SAD:   -75.43947933919353   -7.54395e+01   0.00000e+00 
   @DF-RHF iter   1:   -75.96993508306721   -5.30456e-01   1.12622e-03 ADIIS/DIIS
   @DF-RHF iter   2:   -76.02142710789953   -5.14920e-02   7.98302e-04 ADIIS/DIIS
   @DF-RHF iter   3:   -76.05567573937242   -3.42486e-02   5.44805e-05 DIIS
   @DF-RHF iter   4:   -76.05611153722393   -4.35798e-04   1.40072e-05 DIIS
   @DF-RHF iter   5:   -76.05614386123408   -3.23240e-05   3.29229e-06 DIIS
   @DF-RHF iter   6:   -76.05614664094708   -2.77971e-06   7.15899e-07 DIIS
   @DF-RHF iter   7:   -76.05614678174919   -1.40802e-07   1.22229e-07 DIIS
   @DF-RHF iter   8:   -76.05614678526651   -3.51731e-09   2.13773e-08 DIIS
   @DF-RHF iter   9:   -76.05614678535376   -8.72546e-11   5.45844e-09 DIIS
  Energy and wave function converged.


  ==> Post-Iterations <==

    Orbital Energies [Eh]
    ---------------------

    Doubly Occupied:                                                      

       1A    -20.573987     2A     -1.337734     3A     -0.694865  
       4A     -0.582500     5A     -0.508278  

    Virtual:                                                              

       6A      0.007856     7A      0.017844     8A      0.017938  
       9A      0.019889    10A      0.041257    11A      0.056255  
      12A      0.057941    13A      0.058324    14A      0.063183  
      15A      0.064032    16A      0.066584    17A      0.069865  
      18A      0.072943    19A      0.086091    20A      0.095679  
      21A      0.105470    22A      0.140173    23A      0.142697  
      24A      0.150961    25A      0.155489    26A      0.157248  
      27A      0.159148    28A      0.162456    29A      0.167507  
      30A      0.172260    31A      0.181832    32A      0.186310  
      33A      0.187695    34A      0.194701    35A      0.206749  
      36A      0.217511    37A      0.223200    38A      0.229506  
      39A      0.239948    40A      0.242518    41A      0.250765  
      42A      0.262563    43A      0.296760    44A      0.306140  
      45A      0.314643    46A      0.322052    47A      0.332655  
      48A      0.335138    49A      0.338491    50A      0.349079  
      51A      0.356605    52A      0.359404    53A      0.368761  
      54A      0.372000    55A      0.378598    56A      0.382340  
      57A      0.384779    58A      0.393230    59A      0.403820  
      60A      0.406686    61A      0.411837    62A      0.415109  
      63A      0.425109    64A      0.429818    65A      0.434810  
      66A      0.442776    67A      0.447415    68A      0.453738  
      69A      0.457322    70A      0.469248    71A      0.481622  
      72A      0.482665    73A      0.489350    74A      0.497252  
      75A      0.498136    76A      0.501027    77A      0.506929  
      78A      0.527101    79A      0.531857    80A      0.552355  
      81A      0.553995    82A      0.556858    83A      0.561810  
      84A      0.578050    85A      0.583709    86A      0.592456  
      87A      0.617486    88A      0.630673    89A      0.643619  
      90A      0.658624    91A      0.691079    92A      0.715026  
      93A      0.734534    94A      0.752762    95A      0.758160  
      96A      0.775381    97A      0.799763    98A      0.808429  
      99A      0.815706   100A      0.823589   101A      0.826773  
     102A      0.834525   103A      0.846640   104A      0.854195  
     105A      0.863414   106A      0.870490   107A      0.873104  
     108A      0.885794   109A      0.900630   110A      0.910701  
     111A      0.915371   112A      0.925148   113A      0.940178  
     114A      0.948717   115A      0.949483   116A      0.967785  
     117A      0.975543   118A      0.991864   119A      0.994318  
     120A      1.004251   121A      1.018299   122A      1.022161  
     123A      1.031627   124A      1.042307   125A      1.050390  
     126A      1.055530   127A      1.066485   128A      1.067849  
     129A      1.079254   130A      1.094594   131A      1.100115  
     132A      1.103505   133A      1.116935   134A      1.124498  
     135A      1.125013   136A      1.132846   137A      1.149662  
     138A      1.161482   139A      1.169844   140A      1.173241  
     141A      1.178978   142A      1.190683   143A      1.204728  
     144A      1.215999   145A      1.223075   146A      1.234386  
     147A      1.241824   148A      1.248585   149A      1.253580  
     150A      1.281829   151A      1.286577   152A      1.298416  
     153A      1.309960   154A      1.328342   155A      1.331558  
     156A      1.361376   157A      1.371857   158A      1.380142  
     159A      1.386104   160A      1.404287   161A      1.425969  
     162A      1.450167   163A      1.452610   164A      1.460482  
     165A      1.479532   166A      1.489628   167A      1.493507  
     168A      1.511067   169A      1.521031   170A      1.532991  
     171A      1.544019   172A      1.573957   173A      1.589719  
     174A      1.598383   175A      1.599671   176A      1.627400  
     177A      1.649000   178A      1.661963   179A      1.663963  
     180A      1.694261   181A      1.724541   182A      1.740073  
     183A      1.758858   184A      1.772361   185A      1.794082  
     186A      1.827122   187A      1.847417   188A      1.857013  
     189A      1.869246   190A      1.876187   191A      1.892942  
     192A      1.911710   193A      1.922445   194A      1.937404  
     195A      1.956773   196A      1.968542   197A      1.986933  
     198A      2.009723   199A      2.022557   200A      2.049165  
     201A      2.050994   202A      2.064210   203A      2.080783  
     204A      2.095465   205A      2.106843   206A      2.133869  
     207A      2.143606   208A      2.171409   209A      2.205179  
     210A      2.270385   211A      2.350389   212A      2.411845  
     213A      2.437424   214A      2.465023   215A      2.480577  
     216A      2.528670   217A      2.543850   218A      2.569580  
     219A      2.586511   220A      2.608921   221A      2.619434  
     222A      2.637902   223A      2.655620   224A      2.674415  
     225A      2.675062   226A      2.713973   227A      2.718521  
     228A      2.736291   229A      2.762754   230A      2.769293  
     231A      2.785622   232A      2.810666   233A      2.830347  
     234A      2.866824   235A      2.867518   236A      2.884575  
     237A      2.913256   238A      2.922808   239A      2.942564  
     240A      2.973942   241A      2.995802   242A      3.001708  
     243A      3.048879   244A      3.090385   245A      3.123939  
     246A      3.133011   247A      3.167076   248A      3.187082  
     249A      3.202392   250A      3.261008   251A      3.282198  
     252A      3.305404   253A      3.310197   254A      3.322966  
     255A      3.336743   256A      3.347281   257A      3.372148  
     258A      3.390690   259A      3.411225   260A      3.431488  
     261A      3.466554   262A      3.499948   263A      3.520500  
     264A      3.567657   265A      3.600231   266A      3.604079  
     267A      3.636587   268A      3.701298   269A      3.732776  
     270A      3.772053   271A      3.793395   272A      3.813502  
     273A      3.842083   274A      3.852739   275A      3.954700  
     276A      3.991948   277A      4.187647   278A      4.303685  
     279A      4.332536   280A      4.372832   281A      4.460299  
     282A      4.498076   283A      4.501274   284A      4.549805  
     285A      4.552882   286A      4.580196   287A      4.611679  
     288A      4.647111   289A      4.662036   290A      4.671984  
     291A      4.691799   292A      4.724031   293A      4.745492  
     294A      4.768942   295A      4.782701   296A      4.793804  
     297A      4.815388   298A      4.816592   299A      4.837585  
     300A      4.874530   301A      4.914152   302A      4.929909  
     303A      4.943266   304A      4.977708   305A      5.002524  
     306A      5.070156   307A      5.093261   308A      5.105048  
     309A      5.127976   310A      5.140729   311A      5.162517  
     312A      5.213535   313A      5.214991   314A      5.234580  
     315A      5.245690   316A      5.269191   317A      5.299859  
     318A      5.338762   319A      5.369161   320A      5.407231  
     321A      5.458547   322A      5.549883   323A      5.607029  
     324A      5.633729   325A      5.660258   326A      5.693306  
     327A      5.718545   328A      5.769275   329A      5.778727  
     330A      5.800734   331A      5.890420   332A      5.899614  
     333A      5.983456   334A      6.015938   335A      6.052647  
     336A      6.348309   337A      6.405121   338A      6.428454  
     339A      6.472904   340A      6.505468   341A      6.542345  
     342A      6.601695   343A      6.696180   344A      6.748357  
     345A      6.849216   346A      6.880923   347A      6.933370  
     348A      7.014327   349A      7.115251   350A      7.183917  
     351A      7.245205   352A      7.248364   353A      7.290426  
     354A      7.366768   355A      7.419928   356A      7.475918  
     357A      7.528406   358A      7.692705   359A      7.814891  
     360A      7.869832   361A      7.882706   362A      7.911899  
     363A      7.939232   364A      7.945862   365A      7.998720  
     366A      8.056610   367A      8.195543   368A      8.233831  
     369A      8.256372   370A      8.269838   371A      8.299513  
     372A      8.339732   373A      8.391641   374A      8.424319  
     375A      8.485419   376A      8.790078   377A      8.810349  
     378A      8.872692   379A      8.888081   380A      8.930959  
     381A      8.944955   382A      8.980833   383A      9.919728  
     384A      9.983542   385A     10.018197   386A     10.045085  
     387A     10.080702   388A     10.088772   389A     10.104909  
     390A     10.122244   391A     10.146720   392A     10.263087  
     393A     10.272668   394A     10.313468   395A     11.213409  
     396A     11.231686   397A     11.379638   398A     11.968230  
     399A     11.987251   400A     12.039071   401A     12.294195  
     402A     12.469824   403A     12.574244   404A     13.370160  
     405A     13.660630   406A     13.737456   407A     13.837961  
     408A     14.016119   409A     14.049915   410A     14.061110  
     411A     15.672818   412A     65.880716   413A     66.315989  
     414A     67.110273  

    Final Occupation by Irrep:
              A 
    DOCC [     5 ]
    NA   [     5 ]
    NB   [     5 ]

  @DF-RHF Final Energy:   -76.05614678535376

   => Energetics <=

    Nuclear Repulsion Energy =              8.8773413987366006
    One-Electron Energy =                -122.4722463204073932
    Two-Electron Energy =                  37.5387581363170355
    Total Energy =                        -76.0561467853537465

Computation Completed


Properties will be evaluated at   0.000000,   0.000000,   0.000000 [a0]

Properties computed using the SCF density matrix


 Multipole Moments:

 ------------------------------------------------------------------------------------
     Multipole            Electronic (a.u.)      Nuclear  (a.u.)        Total (a.u.)
 ------------------------------------------------------------------------------------

 L = 1.  Multiply by 2.5417464519 to convert [e a0] to [Debye]
 Dipole X            :          2.7339819           -3.4522405           -0.7182586
 Dipole Y            :         27.5022308          -27.8413577           -0.3391269
 Dipole Z            :        -23.6956024           23.8270257            0.1314233
 Magnitude           :                                                    0.8050929

 ------------------------------------------------------------------------------------

*** tstop() called on ddmfs1 at Mon Jan 22 13:13:13 2024
Module time:
	user time   =      54.50 seconds =       0.91 minutes
	system time =       2.57 seconds =       0.04 minutes
	total time  =          4 seconds =       0.07 minutes
Total time:
	user time   =      54.50 seconds =       0.91 minutes
	system time =       2.57 seconds =       0.04 minutes
	total time  =          4 seconds =       0.07 minutes

*** tstart() called on ddmfs1
*** at Mon Jan 22 13:13:13 2024


  //>>>>>>>>>>>>>>>>>>>>>>>>>>>>>>>>>>>//
  //               DFMP2               //
  //<<<<<<<<<<<<<<<<<<<<<<<<<<<<<<<<<<<//

   => Loading Basis Set <=

    Name: (AUG-CC-PVTZ AUX)
    Role: RIFIT
    Keyword: DF_BASIS_MP2
    atoms 1                     entry LI         line    90 file /ddmfs1b/softs/psi4conda/share/psi4/basis/def2-qzvpp-ri.gbs 
    atoms 2, 5, 8, 11           entry O          line   264 file /ddmfs1b/softs/psi4conda/share/psi4/basis/aug-cc-pvtz-ri.gbs 
    atoms 3-4, 6-7, 9-10, 12-13 entry H          line    30 file /ddmfs1b/softs/psi4conda/share/psi4/basis/aug-cc-pvtz-ri.gbs 

	 --------------------------------------------------------
	                          DF-MP2                         
	      2nd-Order Density-Fitted Moller-Plesset Theory     
	              RMP2 Wavefunction,  20 Threads             
	                                                         
	        Rob Parrish, Justin Turney, Andy Simmonett,      
	           Ed Hohenstein, and C. David Sherrill          
	 --------------------------------------------------------

   => Auxiliary Basis Set <=

  Basis Set: (AUG-CC-PVTZ AUX)
    Blend: AUG-CC-PVTZ-RI + DEF2-QZVPP-RI
    Number of shells: 251
    Number of basis functions: 893
    Number of Cartesian functions: 1114
    Spherical Harmonics?: true
    Max angular momentum: 4

	 --------------------------------------------------------
	                 NBF =   414, NAUX =   893
	 --------------------------------------------------------
	   CLASS    FOCC     OCC    AOCC    AVIR     VIR    FVIR
	   PAIRS       0       5       5     409     409       0
	 --------------------------------------------------------

	-----------------------------------------------------------
	 ==================> DF-MP2 Energies <==================== 
	-----------------------------------------------------------
	 Reference Energy          =     -76.0561467853537607 [Eh]
	 Singles Energy            =      -0.0000000000000000 [Eh]
	 Same-Spin Energy          =      -0.0691129508293428 [Eh]
	 Opposite-Spin Energy      =      -0.2182515464587531 [Eh]
	 Correlation Energy        =      -0.2873644972880959 [Eh]
	 Total Energy              =     -76.3435112826418560 [Eh]
	-----------------------------------------------------------
	 ================> DF-SCS-MP2 Energies <================== 
	-----------------------------------------------------------
	 SCS Same-Spin Scale       =       0.3333333333333333 [-]
	 SCS Opposite-Spin Scale   =       1.2000000000000000 [-]
	 SCS Same-Spin Energy      =      -0.0230376502764476 [Eh]
	 SCS Opposite-Spin Energy  =      -0.2619018557505037 [Eh]
	 SCS Correlation Energy    =      -0.2849395060269513 [Eh]
	 SCS Total Energy          =     -76.3410862913807051 [Eh]
	-----------------------------------------------------------


*** tstop() called on ddmfs1 at Mon Jan 22 13:13:15 2024
Module time:
	user time   =      16.72 seconds =       0.28 minutes
	system time =       0.80 seconds =       0.01 minutes
	total time  =          2 seconds =       0.03 minutes
Total time:
	user time   =      71.24 seconds =       1.19 minutes
	system time =       3.37 seconds =       0.06 minutes
	total time  =          6 seconds =       0.10 minutes

    Psi4 stopped on: Monday, 22 January 2024 01:13PM
    Psi4 wall time for execution: 0:00:06.14

*** Psi4 exiting successfully. Buy a developer a beer!
