
    -----------------------------------------------------------------------
          Psi4: An Open-Source Ab Initio Electronic Structure Package
                               Psi4 1.8.2 release

                         Git: Rev {} zzzzzzz 


    D. G. A. Smith, L. A. Burns, A. C. Simmonett, R. M. Parrish,
    M. C. Schieber, R. Galvelis, P. Kraus, H. Kruse, R. Di Remigio,
    A. Alenaizan, A. M. James, S. Lehtola, J. P. Misiewicz, M. Scheurer,
    R. A. Shaw, J. B. Schriber, Y. Xie, Z. L. Glick, D. A. Sirianni,
    J. S. O'Brien, J. M. Waldrop, A. Kumar, E. G. Hohenstein,
    B. P. Pritchard, B. R. Brooks, H. F. Schaefer III, A. Yu. Sokolov,
    K. Patkowski, A. E. DePrince III, U. Bozkaya, R. A. King,
    F. A. Evangelista, J. M. Turney, T. D. Crawford, C. D. Sherrill,
    J. Chem. Phys. 152(18) 184108 (2020). https://doi.org/10.1063/5.0006002

                            Additional Code Authors
    E. T. Seidl, C. L. Janssen, E. F. Valeev, M. L. Leininger,
    J. F. Gonthier, R. M. Richard, H. R. McAlexander, M. Saitow, X. Wang,
    P. Verma, M. H. Lechner, A. Jiang, S. Behnle, A. G. Heide,
    M. F. Herbst, and D. L. Poole

             Previous Authors, Complete List of Code Contributors,
                       and Citations for Specific Modules
    https://github.com/psi4/psi4/blob/master/codemeta.json
    https://github.com/psi4/psi4/graphs/contributors
    http://psicode.org/psi4manual/master/introduction.html#citing-psifour

    -----------------------------------------------------------------------


    Psi4 started on: Monday, 22 January 2024 01:53PM

    Process ID: 63566
    Host:       ddmfs1
    PSIDATADIR: /ddmfs1b/softs/psi4conda/share/psi4
    Memory:     500.0 MiB
    Threads:    20
    
  ==> Input File <==

--------------------------------------------------------------------------
MEMORY 60 GB

molecule dimer {
0 1
Gh(Li)     0.000000     0.000000     0.000000
Gh(O)     -0.266443     1.938313    -0.248340
Gh(H)     -0.088316     2.610611    -0.926278
Gh(H)     -0.885622     2.402495     0.339436
O         -1.305581    -1.041945    -1.192735
H         -1.614892    -1.898100    -0.899961
H         -0.845776    -1.154356    -2.000716
Gh(O)      2.066109    -0.498860    -0.290542
Gh(H)      2.623530    -0.650184     0.499648
Gh(H)      2.518418    -0.862145    -1.036711
Gh(O)     -0.099893    -0.786188     1.651962
Gh(H)      0.363831    -1.589227     1.918952
Gh(H)     -1.018921    -0.908196     1.943922

units ang
no_reorient
no_com
symmetry c1
}

set {
basis        aug-cc-pVTZ
scf_type     df
}

energy("mp2")
--------------------------------------------------------------------------

  Memory set to  55.879 GiB by Python driver.

Scratch directory: /ddmfs1a/scratch/
   => Libint2 <=

    Primary   basis highest AM E, G, H:  5, 4, 3
    Auxiliary basis highest AM E, G, H:  6, 5, 4
    Onebody   basis highest AM E, G, H:  6, 5, 4
    Solid Harmonics ordering:            gaussian

*** tstart() called on ddmfs1
*** at Mon Jan 22 13:53:19 2024

   => Loading Basis Set <=

    Name: AUG-CC-PVTZ
    Role: ORBITAL
    Keyword: BASIS
    atoms 1                     entry LI         line    85 file /ddmfs1b/softs/psi4conda/share/psi4/basis/aug-cc-pvtz.gbs 
    atoms 2, 5, 8, 11           entry O          line   331 file /ddmfs1b/softs/psi4conda/share/psi4/basis/aug-cc-pvtz.gbs 
    atoms 3-4, 6-7, 9-10, 12-13 entry H          line    40 file /ddmfs1b/softs/psi4conda/share/psi4/basis/aug-cc-pvtz.gbs 


         ---------------------------------------------------------
                                   SCF
               by Justin Turney, Rob Parrish, Andy Simmonett
                          and Daniel G. A. Smith
                              RHF Reference
                       20 Threads,  57220 MiB Core
         ---------------------------------------------------------

  ==> Geometry <==

    Molecular point group: c1
    Full point group: C1

    Geometry (in Angstrom), charge = 0, multiplicity = 1:

       Center              X                  Y                   Z               Mass       
    ------------   -----------------  -----------------  -----------------  -----------------
      Gh(LI)          0.000000000000     0.000000000000     0.000000000000     7.016003436600
      Gh(O)          -0.266443000000     1.938313000000    -0.248340000000    15.994914619570
      Gh(H)          -0.088316000000     2.610611000000    -0.926278000000     1.007825032230
      Gh(H)          -0.885622000000     2.402495000000     0.339436000000     1.007825032230
         O           -1.305581000000    -1.041945000000    -1.192735000000    15.994914619570
         H           -1.614892000000    -1.898100000000    -0.899961000000     1.007825032230
         H           -0.845776000000    -1.154356000000    -2.000716000000     1.007825032230
      Gh(O)           2.066109000000    -0.498860000000    -0.290542000000    15.994914619570
      Gh(H)           2.623530000000    -0.650184000000     0.499648000000     1.007825032230
      Gh(H)           2.518418000000    -0.862145000000    -1.036711000000     1.007825032230
      Gh(O)          -0.099893000000    -0.786188000000     1.651962000000    15.994914619570
      Gh(H)           0.363831000000    -1.589227000000     1.918952000000     1.007825032230
      Gh(H)          -1.018921000000    -0.908196000000     1.943922000000     1.007825032230

  Running in c1 symmetry.

  Rotational constants: A =      0.08973  B =      0.08362  C =      0.07160 [cm^-1]
  Rotational constants: A =   2690.13561  B =   2506.88440  C =   2146.38256 [MHz]
  Nuclear repulsion =    9.292723415385813

  Charge       = 0
  Multiplicity = 1
  Electrons    = 10
  Nalpha       = 5
  Nbeta        = 5

  ==> Algorithm <==

  SCF Algorithm Type is DF.
  DIIS enabled.
  MOM disabled.
  Fractional occupation disabled.
  Guess Type is SAD.
  Energy threshold   = 1.00e-08
  Density threshold  = 1.00e-08
  Integral threshold = 1.00e-12

  ==> Primary Basis <==

  Basis Set: AUG-CC-PVTZ
    Blend: AUG-CC-PVTZ
    Number of shells: 142
    Number of basis functions: 414
    Number of Cartesian functions: 475
    Spherical Harmonics?: true
    Max angular momentum: 3

   => Loading Basis Set <=

    Name: (AUG-CC-PVTZ AUX)
    Role: JKFIT
    Keyword: DF_BASIS_SCF
    atoms 1                     entry LI         line    54 file /ddmfs1b/softs/psi4conda/share/psi4/basis/def2-universal-jkfit.gbs 
    atoms 2, 5, 8, 11           entry O          line   286 file /ddmfs1b/softs/psi4conda/share/psi4/basis/aug-cc-pvtz-jkfit.gbs 
    atoms 3-4, 6-7, 9-10, 12-13 entry H          line    70 file /ddmfs1b/softs/psi4conda/share/psi4/basis/aug-cc-pvtz-jkfit.gbs 

  ==> Integral Setup <==

  DFHelper Memory: AOs need 1.075 GiB; user supplied 41.910 GiB. 
  Using in-core AOs.

  ==> MemDFJK: Density-Fitted J/K Matrices <==

    J tasked:                   Yes
    K tasked:                   Yes
    wK tasked:                   No
    OpenMP threads:              20
    Memory [MiB]:             42915
    Algorithm:                 Core
    Schwarz Cutoff:           1E-12
    Mask sparsity (%):       5.2918
    Fitting Condition:        1E-10

   => Auxiliary Basis Set <=

  Basis Set: (AUG-CC-PVTZ AUX)
    Blend: AUG-CC-PVTZ-JKFIT + DEF2-UNIVERSAL-JKFIT
    Number of shells: 249
    Number of basis functions: 835
    Number of Cartesian functions: 1024
    Spherical Harmonics?: true
    Max angular momentum: 4

  Minimum eigenvalue in the overlap matrix is 1.4976989579E-05.
  Reciprocal condition number of the overlap matrix is 1.0688701304E-06.
    Using symmetric orthogonalization.

  ==> Pre-Iterations <==

  SCF Guess: Superposition of Atomic Densities via on-the-fly atomic UHF (no occupation information).

   -------------------------
    Irrep   Nso     Nmo    
   -------------------------
     A        414     414 
   -------------------------
    Total     414     414
   -------------------------

  ==> Iterations <==

                           Total Energy        Delta E     RMS |[F,P]|

   @DF-RHF iter SAD:   -75.48647186067309   -7.54865e+01   0.00000e+00 
   @DF-RHF iter   1:   -75.97740298700484   -4.90931e-01   1.13543e-03 DIIS/ADIIS
   @DF-RHF iter   2:   -76.03025907928449   -5.28561e-02   7.59908e-04 DIIS/ADIIS
   @DF-RHF iter   3:   -76.06052190954891   -3.02628e-02   5.16020e-05 DIIS
   @DF-RHF iter   4:   -76.06089852909381   -3.76620e-04   1.19995e-05 DIIS
   @DF-RHF iter   5:   -76.06092038584467   -2.18568e-05   2.67530e-06 DIIS
   @DF-RHF iter   6:   -76.06092214010116   -1.75426e-06   5.94105e-07 DIIS
   @DF-RHF iter   7:   -76.06092223706992   -9.69688e-08   1.13766e-07 DIIS
   @DF-RHF iter   8:   -76.06092224025451   -3.18460e-09   1.86137e-08 DIIS
   @DF-RHF iter   9:   -76.06092224032109   -6.65779e-11   4.53352e-09 DIIS
  Energy and wave function converged.


  ==> Post-Iterations <==

    Orbital Energies [Eh]
    ---------------------

    Doubly Occupied:                                                      

       1A    -20.563294     2A     -1.356491     3A     -0.731306  
       4A     -0.579301     5A     -0.510133  

    Virtual:                                                              

       6A      0.008462     7A      0.017821     8A      0.018197  
       9A      0.019871    10A      0.043074    11A      0.055050  
      12A      0.057021    13A      0.059982    14A      0.060472  
      15A      0.062791    16A      0.065183    17A      0.066861  
      18A      0.072486    19A      0.089141    20A      0.096409  
      21A      0.101207    22A      0.141375    23A      0.147461  
      24A      0.154856    25A      0.155914    26A      0.159116  
      27A      0.159716    28A      0.160941    29A      0.170324  
      30A      0.170999    31A      0.180851    32A      0.180948  
      33A      0.186089    34A      0.189211    35A      0.200066  
      36A      0.213013    37A      0.218161    38A      0.227525  
      39A      0.241700    40A      0.249103    41A      0.264305  
      42A      0.269599    43A      0.290484    44A      0.299749  
      45A      0.319129    46A      0.321311    47A      0.328688  
      48A      0.333154    49A      0.339467    50A      0.351483  
      51A      0.356616    52A      0.362202    53A      0.366760  
      54A      0.371776    55A      0.374218    56A      0.375595  
      57A      0.387280    58A      0.392547    59A      0.400142  
      60A      0.402438    61A      0.406030    62A      0.412838  
      63A      0.419178    64A      0.422820    65A      0.426124  
      66A      0.432134    67A      0.439401    68A      0.442084  
      69A      0.449932    70A      0.457118    71A      0.465324  
      72A      0.473054    73A      0.482246    74A      0.486638  
      75A      0.493953    76A      0.496581    77A      0.499359  
      78A      0.510525    79A      0.516610    80A      0.524711  
      81A      0.529916    82A      0.534876    83A      0.546757  
      84A      0.551540    85A      0.561816    86A      0.579559  
      87A      0.590844    88A      0.608151    89A      0.632559  
      90A      0.664507    91A      0.673192    92A      0.712289  
      93A      0.727815    94A      0.751080    95A      0.751837  
      96A      0.780226    97A      0.793806    98A      0.796911  
      99A      0.824753   100A      0.829339   101A      0.832546  
     102A      0.839135   103A      0.846517   104A      0.853563  
     105A      0.860844   106A      0.865510   107A      0.872892  
     108A      0.875498   109A      0.882281   110A      0.891519  
     111A      0.906194   112A      0.912427   113A      0.919237  
     114A      0.926653   115A      0.942009   116A      0.946229  
     117A      0.952502   118A      0.959992   119A      0.968046  
     120A      0.971715   121A      0.994990   122A      1.001147  
     123A      1.007805   124A      1.016925   125A      1.026640  
     126A      1.033111   127A      1.036497   128A      1.038574  
     129A      1.047782   130A      1.051849   131A      1.061903  
     132A      1.073323   133A      1.085128   134A      1.090262  
     135A      1.104335   136A      1.106903   137A      1.114586  
     138A      1.124815   139A      1.133675   140A      1.141176  
     141A      1.147803   142A      1.162852   143A      1.164559  
     144A      1.176419   145A      1.178411   146A      1.185568  
     147A      1.199306   148A      1.207794   149A      1.215047  
     150A      1.226379   151A      1.240974   152A      1.248907  
     153A      1.252021   154A      1.264984   155A      1.284065  
     156A      1.291338   157A      1.307286   158A      1.323332  
     159A      1.342120   160A      1.346010   161A      1.357639  
     162A      1.378005   163A      1.380173   164A      1.390621  
     165A      1.405146   166A      1.417508   167A      1.427178  
     168A      1.441019   169A      1.451661   170A      1.479676  
     171A      1.491834   172A      1.517790   173A      1.521406  
     174A      1.554696   175A      1.559648   176A      1.575879  
     177A      1.602385   178A      1.617197   179A      1.624161  
     180A      1.634155   181A      1.677742   182A      1.704730  
     183A      1.717644   184A      1.751531   185A      1.761221  
     186A      1.773995   187A      1.813672   188A      1.827323  
     189A      1.845302   190A      1.866436   191A      1.876770  
     192A      1.891472   193A      1.894323   194A      1.913505  
     195A      1.921934   196A      1.933506   197A      1.953519  
     198A      1.982890   199A      1.990699   200A      2.011996  
     201A      2.027671   202A      2.031444   203A      2.063669  
     204A      2.077390   205A      2.093928   206A      2.100814  
     207A      2.111354   208A      2.123047   209A      2.169647  
     210A      2.233288   211A      2.283619   212A      2.336684  
     213A      2.367784   214A      2.418049   215A      2.441009  
     216A      2.470514   217A      2.478849   218A      2.497170  
     219A      2.545312   220A      2.573293   221A      2.575427  
     222A      2.598953   223A      2.627264   224A      2.638993  
     225A      2.643906   226A      2.666149   227A      2.677715  
     228A      2.692551   229A      2.704058   230A      2.734060  
     231A      2.740955   232A      2.751779   233A      2.761064  
     234A      2.781527   235A      2.794480   236A      2.825054  
     237A      2.839419   238A      2.857283   239A      2.874633  
     240A      2.903636   241A      2.938380   242A      2.946246  
     243A      2.958488   244A      2.976628   245A      2.985238  
     246A      3.010036   247A      3.011621   248A      3.034278  
     249A      3.089409   250A      3.125016   251A      3.187250  
     252A      3.189845   253A      3.250377   254A      3.263061  
     255A      3.292798   256A      3.304536   257A      3.317213  
     258A      3.334470   259A      3.353760   260A      3.367017  
     261A      3.384519   262A      3.405464   263A      3.411732  
     264A      3.448520   265A      3.486372   266A      3.498696  
     267A      3.546267   268A      3.598633   269A      3.727358  
     270A      3.748030   271A      3.752688   272A      3.768280  
     273A      3.805228   274A      3.881088   275A      3.984257  
     276A      4.015027   277A      4.154430   278A      4.302955  
     279A      4.356006   280A      4.365483   281A      4.419916  
     282A      4.428316   283A      4.456149   284A      4.514597  
     285A      4.529053   286A      4.555926   287A      4.577813  
     288A      4.584055   289A      4.601128   290A      4.629018  
     291A      4.636645   292A      4.647532   293A      4.676215  
     294A      4.714811   295A      4.734198   296A      4.758105  
     297A      4.772400   298A      4.792854   299A      4.823349  
     300A      4.831733   301A      4.854461   302A      4.870212  
     303A      4.907474   304A      4.919744   305A      4.960847  
     306A      5.031171   307A      5.036110   308A      5.049303  
     309A      5.072738   310A      5.097222   311A      5.121621  
     312A      5.125611   313A      5.165298   314A      5.185215  
     315A      5.230517   316A      5.254959   317A      5.285718  
     318A      5.306731   319A      5.330111   320A      5.437320  
     321A      5.472632   322A      5.548550   323A      5.561244  
     324A      5.588761   325A      5.602241   326A      5.640197  
     327A      5.669242   328A      5.687858   329A      5.721817  
     330A      5.742485   331A      5.820344   332A      5.924760  
     333A      5.929907   334A      5.957103   335A      6.081146  
     336A      6.250026   337A      6.270985   338A      6.325522  
     339A      6.395843   340A      6.442395   341A      6.465295  
     342A      6.473752   343A      6.655092   344A      6.716725  
     345A      6.811364   346A      6.822624   347A      6.856101  
     348A      6.978917   349A      7.067245   350A      7.149990  
     351A      7.164774   352A      7.254243   353A      7.388364  
     354A      7.408466   355A      7.452424   356A      7.460804  
     357A      7.474961   358A      7.712543   359A      7.759300  
     360A      7.810751   361A      7.837037   362A      7.872328  
     363A      7.935602   364A      7.987683   365A      8.000683  
     366A      8.047646   367A      8.097922   368A      8.131747  
     369A      8.164960   370A      8.207809   371A      8.243783  
     372A      8.284101   373A      8.302211   374A      8.324802  
     375A      8.347495   376A      8.720343   377A      8.778385  
     378A      8.820876   379A      8.856390   380A      8.880805  
     381A      8.891105   382A      8.988180   383A      9.895754  
     384A      9.906412   385A      9.959902   386A      9.991246  
     387A     10.024016   388A     10.038927   389A     10.051124  
     390A     10.061325   391A     10.099514   392A     10.252065  
     393A     10.279335   394A     10.302461   395A     11.197518  
     396A     11.211969   397A     11.260383   398A     11.810694  
     399A     11.838124   400A     11.900720   401A     12.178204  
     402A     12.284470   403A     12.322831   404A     12.766099  
     405A     13.568567   406A     13.622204   407A     13.714757  
     408A     13.908844   409A     13.935205   410A     14.027670  
     411A     16.743694   412A     64.860905   413A     65.390488  
     414A     65.479629  

    Final Occupation by Irrep:
              A 
    DOCC [     5 ]
    NA   [     5 ]
    NB   [     5 ]

  @DF-RHF Final Energy:   -76.06092224032109

   => Energetics <=

    Nuclear Repulsion Energy =              9.2927234153858134
    One-Electron Energy =                -123.2262378312715896
    Two-Electron Energy =                  37.8725921755647050
    Total Energy =                        -76.0609222403210765

Computation Completed


Properties will be evaluated at   0.000000,   0.000000,   0.000000 [a0]

Properties computed using the SCF density matrix


 Multipole Moments:

 ------------------------------------------------------------------------------------
     Multipole            Electronic (a.u.)      Nuclear  (a.u.)        Total (a.u.)
 ------------------------------------------------------------------------------------

 L = 1.  Multiply by 2.5417464519 to convert [e a0] to [Debye]
 Dipole X            :         24.4907960          -24.3875128            0.1032832
 Dipole Y            :         20.8652964          -21.5202314           -0.6549350
 Dipole Z            :         23.1615405          -23.5130250           -0.3514846
 Magnitude           :                                                    0.7504323

 ------------------------------------------------------------------------------------

*** tstop() called on ddmfs1 at Mon Jan 22 13:53:23 2024
Module time:
	user time   =      53.37 seconds =       0.89 minutes
	system time =       2.55 seconds =       0.04 minutes
	total time  =          4 seconds =       0.07 minutes
Total time:
	user time   =      53.37 seconds =       0.89 minutes
	system time =       2.55 seconds =       0.04 minutes
	total time  =          4 seconds =       0.07 minutes

*** tstart() called on ddmfs1
*** at Mon Jan 22 13:53:23 2024


  //>>>>>>>>>>>>>>>>>>>>>>>>>>>>>>>>>>>//
  //               DFMP2               //
  //<<<<<<<<<<<<<<<<<<<<<<<<<<<<<<<<<<<//

   => Loading Basis Set <=

    Name: (AUG-CC-PVTZ AUX)
    Role: RIFIT
    Keyword: DF_BASIS_MP2
    atoms 1                     entry LI         line    90 file /ddmfs1b/softs/psi4conda/share/psi4/basis/def2-qzvpp-ri.gbs 
    atoms 2, 5, 8, 11           entry O          line   264 file /ddmfs1b/softs/psi4conda/share/psi4/basis/aug-cc-pvtz-ri.gbs 
    atoms 3-4, 6-7, 9-10, 12-13 entry H          line    30 file /ddmfs1b/softs/psi4conda/share/psi4/basis/aug-cc-pvtz-ri.gbs 

	 --------------------------------------------------------
	                          DF-MP2                         
	      2nd-Order Density-Fitted Moller-Plesset Theory     
	              RMP2 Wavefunction,  20 Threads             
	                                                         
	        Rob Parrish, Justin Turney, Andy Simmonett,      
	           Ed Hohenstein, and C. David Sherrill          
	 --------------------------------------------------------

   => Auxiliary Basis Set <=

  Basis Set: (AUG-CC-PVTZ AUX)
    Blend: AUG-CC-PVTZ-RI + DEF2-QZVPP-RI
    Number of shells: 251
    Number of basis functions: 893
    Number of Cartesian functions: 1114
    Spherical Harmonics?: true
    Max angular momentum: 4

	 --------------------------------------------------------
	                 NBF =   414, NAUX =   893
	 --------------------------------------------------------
	   CLASS    FOCC     OCC    AOCC    AVIR     VIR    FVIR
	   PAIRS       0       5       5     409     409       0
	 --------------------------------------------------------

	-----------------------------------------------------------
	 ==================> DF-MP2 Energies <==================== 
	-----------------------------------------------------------
	 Reference Energy          =     -76.0609222403210907 [Eh]
	 Singles Energy            =      -0.0000000000000000 [Eh]
	 Same-Spin Energy          =      -0.0681759571548374 [Eh]
	 Opposite-Spin Energy      =      -0.2151544279123306 [Eh]
	 Correlation Energy        =      -0.2833303850671680 [Eh]
	 Total Energy              =     -76.3442526253882647 [Eh]
	-----------------------------------------------------------
	 ================> DF-SCS-MP2 Energies <================== 
	-----------------------------------------------------------
	 SCS Same-Spin Scale       =       0.3333333333333333 [-]
	 SCS Opposite-Spin Scale   =       1.2000000000000000 [-]
	 SCS Same-Spin Energy      =      -0.0227253190516125 [Eh]
	 SCS Opposite-Spin Energy  =      -0.2581853134947967 [Eh]
	 SCS Correlation Energy    =      -0.2809106325464091 [Eh]
	 SCS Total Energy          =     -76.3418328728674993 [Eh]
	-----------------------------------------------------------


*** tstop() called on ddmfs1 at Mon Jan 22 13:53:25 2024
Module time:
	user time   =      16.85 seconds =       0.28 minutes
	system time =       0.89 seconds =       0.01 minutes
	total time  =          2 seconds =       0.03 minutes
Total time:
	user time   =      70.24 seconds =       1.17 minutes
	system time =       3.44 seconds =       0.06 minutes
	total time  =          6 seconds =       0.10 minutes

    Psi4 stopped on: Monday, 22 January 2024 01:53PM
    Psi4 wall time for execution: 0:00:06.06

*** Psi4 exiting successfully. Buy a developer a beer!
