
    -----------------------------------------------------------------------
          Psi4: An Open-Source Ab Initio Electronic Structure Package
                               Psi4 1.8.2 release

                         Git: Rev {} zzzzzzz 


    D. G. A. Smith, L. A. Burns, A. C. Simmonett, R. M. Parrish,
    M. C. Schieber, R. Galvelis, P. Kraus, H. Kruse, R. Di Remigio,
    A. Alenaizan, A. M. James, S. Lehtola, J. P. Misiewicz, M. Scheurer,
    R. A. Shaw, J. B. Schriber, Y. Xie, Z. L. Glick, D. A. Sirianni,
    J. S. O'Brien, J. M. Waldrop, A. Kumar, E. G. Hohenstein,
    B. P. Pritchard, B. R. Brooks, H. F. Schaefer III, A. Yu. Sokolov,
    K. Patkowski, A. E. DePrince III, U. Bozkaya, R. A. King,
    F. A. Evangelista, J. M. Turney, T. D. Crawford, C. D. Sherrill,
    J. Chem. Phys. 152(18) 184108 (2020). https://doi.org/10.1063/5.0006002

                            Additional Code Authors
    E. T. Seidl, C. L. Janssen, E. F. Valeev, M. L. Leininger,
    J. F. Gonthier, R. M. Richard, H. R. McAlexander, M. Saitow, X. Wang,
    P. Verma, M. H. Lechner, A. Jiang, S. Behnle, A. G. Heide,
    M. F. Herbst, and D. L. Poole

             Previous Authors, Complete List of Code Contributors,
                       and Citations for Specific Modules
    https://github.com/psi4/psi4/blob/master/codemeta.json
    https://github.com/psi4/psi4/graphs/contributors
    http://psicode.org/psi4manual/master/introduction.html#citing-psifour

    -----------------------------------------------------------------------


    Psi4 started on: Monday, 22 January 2024 01:48PM

    Process ID: 62711
    Host:       ddmfs1
    PSIDATADIR: /ddmfs1b/softs/psi4conda/share/psi4
    Memory:     500.0 MiB
    Threads:    20
    
  ==> Input File <==

--------------------------------------------------------------------------
MEMORY 60 GB

molecule dimer {
1 1
Li         0.000000     0.000000     0.000000
O          0.974801    -1.457324    -0.803063
H          1.616648    -1.821333    -0.185071
H          0.543412    -2.209643    -1.228589
O         -1.022460    -0.705935     1.627113
H         -1.734123    -0.103167     1.913218
H         -1.500284    -1.468483     1.235082
O         -1.471986     0.365186    -1.104744
H         -1.395966     1.135543    -1.703561
H         -2.409858     0.169828    -1.010243
O          1.111405     1.672966    -0.206272
H          1.061116     2.268920     0.588148
H          1.217032     2.358049    -0.946568

units ang
no_reorient
no_com
symmetry c1
}

set {
basis        aug-cc-pVTZ
scf_type     df
}

energy("mp2")
--------------------------------------------------------------------------

  Memory set to  55.879 GiB by Python driver.

Scratch directory: /ddmfs1a/scratch/
   => Libint2 <=

    Primary   basis highest AM E, G, H:  5, 4, 3
    Auxiliary basis highest AM E, G, H:  6, 5, 4
    Onebody   basis highest AM E, G, H:  6, 5, 4
    Solid Harmonics ordering:            gaussian

*** tstart() called on ddmfs1
*** at Mon Jan 22 13:48:51 2024

   => Loading Basis Set <=

    Name: AUG-CC-PVTZ
    Role: ORBITAL
    Keyword: BASIS
    atoms 1                     entry LI         line    85 file /ddmfs1b/softs/psi4conda/share/psi4/basis/aug-cc-pvtz.gbs 
    atoms 2, 5, 8, 11           entry O          line   331 file /ddmfs1b/softs/psi4conda/share/psi4/basis/aug-cc-pvtz.gbs 
    atoms 3-4, 6-7, 9-10, 12-13 entry H          line    40 file /ddmfs1b/softs/psi4conda/share/psi4/basis/aug-cc-pvtz.gbs 


         ---------------------------------------------------------
                                   SCF
               by Justin Turney, Rob Parrish, Andy Simmonett
                          and Daniel G. A. Smith
                              RHF Reference
                       20 Threads,  57220 MiB Core
         ---------------------------------------------------------

  ==> Geometry <==

    Molecular point group: c1
    Full point group: C1

    Geometry (in Angstrom), charge = 1, multiplicity = 1:

       Center              X                  Y                   Z               Mass       
    ------------   -----------------  -----------------  -----------------  -----------------
         LI           0.000000000000     0.000000000000     0.000000000000     7.016003436600
         O            0.974801000000    -1.457324000000    -0.803063000000    15.994914619570
         H            1.616648000000    -1.821333000000    -0.185071000000     1.007825032230
         H            0.543412000000    -2.209643000000    -1.228589000000     1.007825032230
         O           -1.022460000000    -0.705935000000     1.627113000000    15.994914619570
         H           -1.734123000000    -0.103167000000     1.913218000000     1.007825032230
         H           -1.500284000000    -1.468483000000     1.235082000000     1.007825032230
         O           -1.471986000000     0.365186000000    -1.104744000000    15.994914619570
         H           -1.395966000000     1.135543000000    -1.703561000000     1.007825032230
         H           -2.409858000000     0.169828000000    -1.010243000000     1.007825032230
         O            1.111405000000     1.672966000000    -0.206272000000    15.994914619570
         H            1.061116000000     2.268920000000     0.588148000000     1.007825032230
         H            1.217032000000     2.358049000000    -0.946568000000     1.007825032230

  Running in c1 symmetry.

  Rotational constants: A =      0.09902  B =      0.08275  C =      0.07375 [cm^-1]
  Rotational constants: A =   2968.68210  B =   2480.80206  C =   2210.88192 [MHz]
  Nuclear repulsion =  162.064686835791491

  Charge       = 1
  Multiplicity = 1
  Electrons    = 42
  Nalpha       = 21
  Nbeta        = 21

  ==> Algorithm <==

  SCF Algorithm Type is DF.
  DIIS enabled.
  MOM disabled.
  Fractional occupation disabled.
  Guess Type is SAD.
  Energy threshold   = 1.00e-08
  Density threshold  = 1.00e-08
  Integral threshold = 1.00e-12

  ==> Primary Basis <==

  Basis Set: AUG-CC-PVTZ
    Blend: AUG-CC-PVTZ
    Number of shells: 142
    Number of basis functions: 414
    Number of Cartesian functions: 475
    Spherical Harmonics?: true
    Max angular momentum: 3

   => Loading Basis Set <=

    Name: (AUG-CC-PVTZ AUX)
    Role: JKFIT
    Keyword: DF_BASIS_SCF
    atoms 1                     entry LI         line    54 file /ddmfs1b/softs/psi4conda/share/psi4/basis/def2-universal-jkfit.gbs 
    atoms 2, 5, 8, 11           entry O          line   286 file /ddmfs1b/softs/psi4conda/share/psi4/basis/aug-cc-pvtz-jkfit.gbs 
    atoms 3-4, 6-7, 9-10, 12-13 entry H          line    70 file /ddmfs1b/softs/psi4conda/share/psi4/basis/aug-cc-pvtz-jkfit.gbs 

  ==> Integral Setup <==

  DFHelper Memory: AOs need 1.084 GiB; user supplied 41.910 GiB. 
  Using in-core AOs.

  ==> MemDFJK: Density-Fitted J/K Matrices <==

    J tasked:                   Yes
    K tasked:                   Yes
    wK tasked:                   No
    OpenMP threads:              20
    Memory [MiB]:             42915
    Algorithm:                 Core
    Schwarz Cutoff:           1E-12
    Mask sparsity (%):       4.4832
    Fitting Condition:        1E-10

   => Auxiliary Basis Set <=

  Basis Set: (AUG-CC-PVTZ AUX)
    Blend: AUG-CC-PVTZ-JKFIT + DEF2-UNIVERSAL-JKFIT
    Number of shells: 249
    Number of basis functions: 835
    Number of Cartesian functions: 1024
    Spherical Harmonics?: true
    Max angular momentum: 4

  Minimum eigenvalue in the overlap matrix is 1.6556914273E-05.
  Reciprocal condition number of the overlap matrix is 1.1531701265E-06.
    Using symmetric orthogonalization.

  ==> Pre-Iterations <==

  SCF Guess: Superposition of Atomic Densities via on-the-fly atomic UHF (no occupation information).

   -------------------------
    Irrep   Nso     Nmo    
   -------------------------
     A        414     414 
   -------------------------
    Total     414     414
   -------------------------

  ==> Iterations <==

                           Total Energy        Delta E     RMS |[F,P]|

   @DF-RHF iter SAD:  -309.52625270596582   -3.09526e+02   0.00000e+00 
   @DF-RHF iter   1:  -311.26724337132941   -1.74099e+00   2.29985e-03 DIIS/ADIIS
   @DF-RHF iter   2:  -311.49336368940686   -2.26120e-01   1.52161e-03 DIIS/ADIIS
   @DF-RHF iter   3:  -311.61656633137909   -1.23203e-01   1.14788e-04 DIIS/ADIIS
   @DF-RHF iter   4:  -311.61832261800100   -1.75629e-03   3.15425e-05 DIIS
   @DF-RHF iter   5:  -311.61844800490417   -1.25387e-04   1.02453e-05 DIIS
   @DF-RHF iter   6:  -311.61846042783856   -1.24229e-05   3.96201e-06 DIIS
   @DF-RHF iter   7:  -311.61846226985131   -1.84201e-06   6.92882e-07 DIIS
   @DF-RHF iter   8:  -311.61846237635598   -1.06505e-07   1.25681e-07 DIIS
   @DF-RHF iter   9:  -311.61846237929223   -2.93625e-09   3.23819e-08 DIIS
   @DF-RHF iter  10:  -311.61846237940551   -1.13289e-10   1.24037e-08 DIIS
   @DF-RHF iter  11:  -311.61846237941916   -1.36424e-11   3.08086e-09 DIIS
  Energy and wave function converged.


  ==> Post-Iterations <==

    Orbital Energies [Eh]
    ---------------------

    Doubly Occupied:                                                      

       1A    -20.755642     2A    -20.752626     3A    -20.750988  
       4A    -20.741823     5A     -2.533426     6A     -1.540664  
       7A     -1.529214     8A     -1.527607     9A     -1.514834  
      10A     -0.908679    11A     -0.895126    12A     -0.887459  
      13A     -0.864763    14A     -0.799692    15A     -0.781568  
      16A     -0.774057    17A     -0.769157    18A     -0.712515  
      19A     -0.698565    20A     -0.691166    21A     -0.686534  

    Virtual:                                                              

      22A     -0.102983    23A     -0.080907    24A     -0.074325  
      25A     -0.071817    26A     -0.047834    27A     -0.045450  
      28A     -0.043363    29A     -0.042075    30A     -0.040638  
      31A     -0.034019    32A     -0.031204    33A     -0.027178  
      34A     -0.024563    35A     -0.012372    36A     -0.003803  
      37A      0.003461    38A      0.026168    39A      0.027436  
      40A      0.029419    41A      0.039817    42A      0.044164  
      43A      0.048014    44A      0.053628    45A      0.053667  
      46A      0.056112    47A      0.063538    48A      0.070671  
      49A      0.075341    50A      0.080754    51A      0.084342  
      52A      0.093550    53A      0.097107    54A      0.115096  
      55A      0.115940    56A      0.122688    57A      0.126852  
      58A      0.133395    59A      0.147428    60A      0.152766  
      61A      0.169485    62A      0.180578    63A      0.191886  
      64A      0.194951    65A      0.201099    66A      0.206531  
      67A      0.210906    68A      0.217700    69A      0.227025  
      70A      0.237058    71A      0.245616    72A      0.249582  
      73A      0.252228    74A      0.259648    75A      0.263968  
      76A      0.269591    77A      0.273098    78A      0.283018  
      79A      0.287889    80A      0.296905    81A      0.299181  
      82A      0.304322    83A      0.309601    84A      0.319569  
      85A      0.321149    86A      0.329897    87A      0.331630  
      88A      0.336361    89A      0.340223    90A      0.343377  
      91A      0.350542    92A      0.354258    93A      0.368689  
      94A      0.370772    95A      0.374532    96A      0.382442  
      97A      0.387171    98A      0.390595    99A      0.397278  
     100A      0.409144   101A      0.413425   102A      0.425065  
     103A      0.444665   104A      0.461991   105A      0.475692  
     106A      0.486305   107A      0.527637   108A      0.531344  
     109A      0.540593   110A      0.563906   111A      0.578518  
     112A      0.586216   113A      0.594480   114A      0.604879  
     115A      0.609531   116A      0.619898   117A      0.622014  
     118A      0.628370   119A      0.650294   120A      0.660309  
     121A      0.663071   122A      0.678509   123A      0.690225  
     124A      0.706743   125A      0.717677   126A      0.720488  
     127A      0.733362   128A      0.745639   129A      0.750780  
     130A      0.764488   131A      0.771551   132A      0.780542  
     133A      0.790050   134A      0.799370   135A      0.802208  
     136A      0.812028   137A      0.816385   138A      0.822668  
     139A      0.828050   140A      0.839303   141A      0.841728  
     142A      0.849820   143A      0.864220   144A      0.876811  
     145A      0.882667   146A      0.896612   147A      0.899658  
     148A      0.906683   149A      0.912159   150A      0.923994  
     151A      0.929755   152A      0.940286   153A      0.952396  
     154A      0.954577   155A      0.957509   156A      0.960123  
     157A      0.971454   158A      0.978014   159A      0.986832  
     160A      0.996948   161A      1.006499   162A      1.012649  
     163A      1.025041   164A      1.029952   165A      1.040387  
     166A      1.051825   167A      1.069545   168A      1.073599  
     169A      1.081565   170A      1.103053   171A      1.108594  
     172A      1.125486   173A      1.134335   174A      1.145717  
     175A      1.161980   176A      1.168477   177A      1.180812  
     178A      1.186328   179A      1.199268   180A      1.211184  
     181A      1.217523   182A      1.237727   183A      1.243745  
     184A      1.254629   185A      1.286676   186A      1.302783  
     187A      1.313051   188A      1.316474   189A      1.339259  
     190A      1.359066   191A      1.366467   192A      1.394670  
     193A      1.411386   194A      1.433347   195A      1.462443  
     196A      1.482750   197A      1.499752   198A      1.509582  
     199A      1.533036   200A      1.544534   201A      1.547832  
     202A      1.574216   203A      1.591525   204A      1.610774  
     205A      1.620577   206A      1.627289   207A      1.658674  
     208A      1.672893   209A      1.681941   210A      1.694962  
     211A      1.707197   212A      1.720483   213A      1.731376  
     214A      1.743455   215A      1.770437   216A      1.799056  
     217A      1.827824   218A      1.862899   219A      1.875993  
     220A      1.888868   221A      1.906408   222A      1.931576  
     223A      1.945605   224A      1.946330   225A      1.966846  
     226A      2.023901   227A      2.033042   228A      2.061286  
     229A      2.090759   230A      2.194100   231A      2.210779  
     232A      2.221473   233A      2.232298   234A      2.248793  
     235A      2.256904   236A      2.273648   237A      2.280927  
     238A      2.318382   239A      2.338257   240A      2.377138  
     241A      2.385229   242A      2.391102   243A      2.407619  
     244A      2.416035   245A      2.434878   246A      2.458375  
     247A      2.470591   248A      2.489606   249A      2.532554  
     250A      2.535827   251A      2.553516   252A      2.569202  
     253A      2.575686   254A      2.593028   255A      2.612434  
     256A      2.618333   257A      2.624237   258A      2.640557  
     259A      2.654957   260A      2.660780   261A      2.669430  
     262A      2.683861   263A      2.698197   264A      2.704444  
     265A      2.730167   266A      2.761561   267A      2.777794  
     268A      2.783529   269A      2.800789   270A      2.825440  
     271A      2.841934   272A      2.865804   273A      2.880063  
     274A      2.927279   275A      3.008785   276A      3.012445  
     277A      3.074456   278A      3.612692   279A      3.634703  
     280A      3.661755   281A      3.707551   282A      3.746853  
     283A      3.777053   284A      3.785900   285A      3.826688  
     286A      3.898695   287A      3.959608   288A      3.960988  
     289A      3.982451   290A      4.021462   291A      4.041487  
     292A      4.085834   293A      4.101174   294A      4.108992  
     295A      4.120275   296A      4.135377   297A      4.157502  
     298A      4.175215   299A      4.183511   300A      4.197182  
     301A      4.217714   302A      4.268640   303A      4.290051  
     304A      4.314217   305A      4.338376   306A      4.338736  
     307A      4.359263   308A      4.368251   309A      4.383044  
     310A      4.386791   311A      4.410067   312A      4.423913  
     313A      4.438874   314A      4.452812   315A      4.467377  
     316A      4.482906   317A      4.483309   318A      4.511805  
     319A      4.520237   320A      4.528982   321A      4.586866  
     322A      4.628065   323A      4.656525   324A      4.673649  
     325A      4.698116   326A      4.703946   327A      4.712372  
     328A      4.753411   329A      4.781990   330A      4.841287  
     331A      4.919452   332A      4.959919   333A      4.985350  
     334A      5.004188   335A      5.015815   336A      5.029236  
     337A      5.043374   338A      5.073290   339A      5.083756  
     340A      5.144099   341A      5.152514   342A      5.179336  
     343A      5.209653   344A      5.232055   345A      5.265021  
     346A      5.306959   347A      5.319098   348A      5.364629  
     349A      5.436334   350A      5.444755   351A      5.570681  
     352A      5.633923   353A      5.721540   354A      5.777103  
     355A      6.136842   356A      6.165430   357A      6.216053  
     358A      6.249369   359A      6.438029   360A      6.462091  
     361A      6.480536   362A      6.501681   363A      6.634175  
     364A      6.650207   365A      6.674485   366A      6.684932  
     367A      6.760890   368A      6.780001   369A      6.812272  
     370A      6.876452   371A      6.951022   372A      6.992257  
     373A      7.023066   374A      7.036404   375A      7.065783  
     376A      7.081680   377A      7.123617   378A      7.137042  
     379A      7.162845   380A      7.170785   381A      7.182793  
     382A      7.189763   383A      7.197773   384A      7.211394  
     385A      7.217989   386A      7.226684   387A      7.248838  
     388A      7.257024   389A      7.265283   390A      7.277874  
     391A      7.308473   392A      7.321130   393A      7.372764  
     394A      7.387060   395A      7.438107   396A      7.469609  
     397A      7.524800   398A      7.577796   399A      7.661838  
     400A      7.732724   401A      7.745534   402A      7.763187  
     403A      7.779539   404A      7.798602   405A      7.834280  
     406A      7.864440   407A      8.522020   408A      8.651251  
     409A      8.664367   410A      8.726662   411A     14.808328  
     412A     15.644062   413A     15.690168   414A     15.976406  

    Final Occupation by Irrep:
              A 
    DOCC [    21 ]
    NA   [    21 ]
    NB   [    21 ]

  @DF-RHF Final Energy:  -311.61846237941916

   => Energetics <=

    Nuclear Repulsion Energy =            162.0646868357914911
    One-Electron Energy =                -745.1340858394559064
    Two-Electron Energy =                 271.4509366242452870
    Total Energy =                       -311.6184623794191566

Computation Completed


Properties will be evaluated at   0.000000,   0.000000,   0.000000 [a0]

Properties computed using the SCF density matrix


 Multipole Moments:

 ------------------------------------------------------------------------------------
     Multipole            Electronic (a.u.)      Nuclear  (a.u.)        Total (a.u.)
 ------------------------------------------------------------------------------------

 L = 1.  Multiply by 2.5417464519 to convert [e a0] to [Debye]
 Dipole X            :          9.8384375          -11.0888052           -1.2503677
 Dipole Y            :          1.6577997           -1.2682746            0.3895251
 Dipole Z            :          9.5169339           -9.8895264           -0.3725926
 Magnitude           :                                                    1.3616073

 ------------------------------------------------------------------------------------

*** tstop() called on ddmfs1 at Mon Jan 22 13:48:55 2024
Module time:
	user time   =      72.72 seconds =       1.21 minutes
	system time =       3.76 seconds =       0.06 minutes
	total time  =          4 seconds =       0.07 minutes
Total time:
	user time   =      72.72 seconds =       1.21 minutes
	system time =       3.76 seconds =       0.06 minutes
	total time  =          4 seconds =       0.07 minutes

*** tstart() called on ddmfs1
*** at Mon Jan 22 13:48:55 2024


  //>>>>>>>>>>>>>>>>>>>>>>>>>>>>>>>>>>>//
  //               DFMP2               //
  //<<<<<<<<<<<<<<<<<<<<<<<<<<<<<<<<<<<//

   => Loading Basis Set <=

    Name: (AUG-CC-PVTZ AUX)
    Role: RIFIT
    Keyword: DF_BASIS_MP2
    atoms 1                     entry LI         line    90 file /ddmfs1b/softs/psi4conda/share/psi4/basis/def2-qzvpp-ri.gbs 
    atoms 2, 5, 8, 11           entry O          line   264 file /ddmfs1b/softs/psi4conda/share/psi4/basis/aug-cc-pvtz-ri.gbs 
    atoms 3-4, 6-7, 9-10, 12-13 entry H          line    30 file /ddmfs1b/softs/psi4conda/share/psi4/basis/aug-cc-pvtz-ri.gbs 

	 --------------------------------------------------------
	                          DF-MP2                         
	      2nd-Order Density-Fitted Moller-Plesset Theory     
	              RMP2 Wavefunction,  20 Threads             
	                                                         
	        Rob Parrish, Justin Turney, Andy Simmonett,      
	           Ed Hohenstein, and C. David Sherrill          
	 --------------------------------------------------------

   => Auxiliary Basis Set <=

  Basis Set: (AUG-CC-PVTZ AUX)
    Blend: AUG-CC-PVTZ-RI + DEF2-QZVPP-RI
    Number of shells: 251
    Number of basis functions: 893
    Number of Cartesian functions: 1114
    Spherical Harmonics?: true
    Max angular momentum: 4

	 --------------------------------------------------------
	                 NBF =   414, NAUX =   893
	 --------------------------------------------------------
	   CLASS    FOCC     OCC    AOCC    AVIR     VIR    FVIR
	   PAIRS       0      21      21     393     393       0
	 --------------------------------------------------------

	-----------------------------------------------------------
	 ==================> DF-MP2 Energies <==================== 
	-----------------------------------------------------------
	 Reference Energy          =    -311.6184623794191566 [Eh]
	 Singles Energy            =      -0.0000000000000000 [Eh]
	 Same-Spin Energy          =      -0.2767575679301328 [Eh]
	 Opposite-Spin Energy      =      -0.8821054586301745 [Eh]
	 Correlation Energy        =      -1.1588630265603073 [Eh]
	 Total Energy              =    -312.7773254059794681 [Eh]
	-----------------------------------------------------------
	 ================> DF-SCS-MP2 Energies <================== 
	-----------------------------------------------------------
	 SCS Same-Spin Scale       =       0.3333333333333333 [-]
	 SCS Opposite-Spin Scale   =       1.2000000000000000 [-]
	 SCS Same-Spin Energy      =      -0.0922525226433776 [Eh]
	 SCS Opposite-Spin Energy  =      -1.0585265503562094 [Eh]
	 SCS Correlation Energy    =      -1.1507790729995870 [Eh]
	 SCS Total Energy          =    -312.7692414524187257 [Eh]
	-----------------------------------------------------------


*** tstop() called on ddmfs1 at Mon Jan 22 13:48:58 2024
Module time:
	user time   =      23.19 seconds =       0.39 minutes
	system time =       1.10 seconds =       0.02 minutes
	total time  =          3 seconds =       0.05 minutes
Total time:
	user time   =      95.93 seconds =       1.60 minutes
	system time =       4.86 seconds =       0.08 minutes
	total time  =          7 seconds =       0.12 minutes

    Psi4 stopped on: Monday, 22 January 2024 01:48PM
    Psi4 wall time for execution: 0:00:07.42

*** Psi4 exiting successfully. Buy a developer a beer!
