
    -----------------------------------------------------------------------
          Psi4: An Open-Source Ab Initio Electronic Structure Package
                               Psi4 1.9 release

                         Git: Rev {} zzzzzzz 


    D. G. A. Smith, L. A. Burns, A. C. Simmonett, R. M. Parrish,
    M. C. Schieber, R. Galvelis, P. Kraus, H. Kruse, R. Di Remigio,
    A. Alenaizan, A. M. James, S. Lehtola, J. P. Misiewicz, M. Scheurer,
    R. A. Shaw, J. B. Schriber, Y. Xie, Z. L. Glick, D. A. Sirianni,
    J. S. O'Brien, J. M. Waldrop, A. Kumar, E. G. Hohenstein,
    B. P. Pritchard, B. R. Brooks, H. F. Schaefer III, A. Yu. Sokolov,
    K. Patkowski, A. E. DePrince III, U. Bozkaya, R. A. King,
    F. A. Evangelista, J. M. Turney, T. D. Crawford, C. D. Sherrill,
    J. Chem. Phys. 152(18) 184108 (2020). https://doi.org/10.1063/5.0006002

                            Additional Code Authors
    E. T. Seidl, C. L. Janssen, E. F. Valeev, M. L. Leininger,
    J. F. Gonthier, R. M. Richard, H. R. McAlexander, M. Saitow, X. Wang,
    P. Verma, M. H. Lechner, A. Jiang, S. Behnle, A. G. Heide,
    M. F. Herbst, and D. L. Poole

             Previous Authors, Complete List of Code Contributors,
                       and Citations for Specific Modules
    https://github.com/psi4/psi4/blob/master/codemeta.json
    https://github.com/psi4/psi4/graphs/contributors
    http://psicode.org/psi4manual/master/introduction.html#citing-psifour

    -----------------------------------------------------------------------


    Psi4 started on: Saturday, 06 January 2024 05:26PM

    Process ID: 547834
    Host:       moses-razer
    PSIDATADIR: /home/kchung25/anaconda3/envs/psi4_19/share/psi4
    Memory:     500.0 MiB
    Threads:    6
    
  ==> Input File <==

--------------------------------------------------------------------------
MEMORY 60 GB

molecule dimer {
1 1
Li     0.000000     0.000000     0.000000
--
0 1
O      1.248744    -1.546356    -0.063915
H      1.572886    -2.181593    -0.699843
H      1.029516    -2.049213     0.724090
O      0.765829     1.000564     1.387872
H      0.151349     0.926457     2.100303
H      1.657507     0.667016     1.546448
O     -1.671574    -0.529749     0.598972
H     -1.713174    -1.282973     1.185456
H     -2.204628    -0.664548    -0.213532
O     -0.147700     1.539800    -1.361374
H      0.650302     2.003122    -1.769900
H     -0.810619     1.511850    -2.060867

units ang
no_reorient
no_com
symmetry c1
}

set {
basis        aug-cc-pVTZ
scf_type     df
}

energy("mp2", bsse_type="cp")
--------------------------------------------------------------------------

  Memory set to  55.879 GiB by Python driver.

Scratch directory: /scratch/

  //>>>>>>>>>>>>>>>>>>>>>>>>>>>>>>>>>>>>>//
  // ManyBody Setup: N-Body Levels [1, 2]//
  //<<<<<<<<<<<<<<<<<<<<<<<<<<<<<<<<<<<<<//

        Number of 1-body computations:     2
        Number of 2-body computations:     1

    -----------------------------------------------------------------------
          Psi4: An Open-Source Ab Initio Electronic Structure Package
                               Psi4 1.9 release

                         Git: Rev {} zzzzzzz 


    D. G. A. Smith, L. A. Burns, A. C. Simmonett, R. M. Parrish,
    M. C. Schieber, R. Galvelis, P. Kraus, H. Kruse, R. Di Remigio,
    A. Alenaizan, A. M. James, S. Lehtola, J. P. Misiewicz, M. Scheurer,
    R. A. Shaw, J. B. Schriber, Y. Xie, Z. L. Glick, D. A. Sirianni,
    J. S. O'Brien, J. M. Waldrop, A. Kumar, E. G. Hohenstein,
    B. P. Pritchard, B. R. Brooks, H. F. Schaefer III, A. Yu. Sokolov,
    K. Patkowski, A. E. DePrince III, U. Bozkaya, R. A. King,
    F. A. Evangelista, J. M. Turney, T. D. Crawford, C. D. Sherrill,
    J. Chem. Phys. 152(18) 184108 (2020). https://doi.org/10.1063/5.0006002

                            Additional Code Authors
    E. T. Seidl, C. L. Janssen, E. F. Valeev, M. L. Leininger,
    J. F. Gonthier, R. M. Richard, H. R. McAlexander, M. Saitow, X. Wang,
    P. Verma, M. H. Lechner, A. Jiang, S. Behnle, A. G. Heide,
    M. F. Herbst, and D. L. Poole

             Previous Authors, Complete List of Code Contributors,
                       and Citations for Specific Modules
    https://github.com/psi4/psi4/blob/master/codemeta.json
    https://github.com/psi4/psi4/graphs/contributors
    http://psicode.org/psi4manual/master/introduction.html#citing-psifour

    -----------------------------------------------------------------------


    Psi4 started on: Saturday, 06 January 2024 05:26PM

    Process ID: 547834
    Host:       moses-razer
    PSIDATADIR: /home/kchung25/anaconda3/envs/psi4_19/share/psi4
    Memory:     55.9 GiB
    Threads:    6
    
  ==> Input QCSchema <==

--------------------------------------------------------------------------
{'driver': 'energy',
 'extras': {'psiapi': True, 'wfn_qcvars_only': True},
 'id': None,
 'keywords': {'SCF_TYPE': 'DF', 'function_kwargs': {}},
 'model': {'basis': 'aug-cc-pvtz', 'method': 'mp2'},
 'molecule': {'atom_labels': ['', '', '', '', '', '', '', '', '', '', '', '', ''],
              'atomic_numbers': [3, 8, 1, 1, 8, 1, 1, 8, 1, 1, 8, 1, 1],
              'extras': {},
              'fix_com': True,
              'fix_orientation': True,
              'fix_symmetry': 'c1',
              'fragment_charges': [0.0, 0.0],
              'fragment_multiplicities': [1, 1],
              'fragments': [[0], [1, 2, 3, 4, 5, 6, 7, 8, 9, 10, 11, 12]],
              'geometry': [0.0, 0.0, 0.0, 2.3597841608087102, -2.9221893324584656, -0.12078184530863709,
                           2.9723237665668614, -4.12261328721592, -1.3225116008187827, 1.9455032817768416,
                           -3.872451342727812, 1.3683317901827587, 1.447207068933243, 1.8907919309925865,
                           2.622697977191407, 0.28600815936191687, 1.750749997013283, 3.9689974504774526,
                           3.1322342810292283, 1.2604775612983787, 2.9223631872620075, -3.1588170584360435,
                           -1.0010805252351591, 1.1318930368177262, -3.2374296652550894, -2.424467596357006,
                           2.2401871737807353, -4.166143128515841, -1.2558137172207489, -0.403516999021261,
                           -0.2791125487301212, 2.909800287979964, -2.5726240143190253, 1.2288926788374763,
                           3.7853519758793355, -3.34462626944781, -1.531847902092499, 2.8569824427734174,
                           -3.894474210993898],
              'mass_numbers': [7, 16, 1, 1, 16, 1, 1, 16, 1, 1, 16, 1, 1],
              'masses': [7.0160034366, 15.99491461957, 1.00782503223, 1.00782503223, 15.99491461957, 1.00782503223,
                         1.00782503223, 15.99491461957, 1.00782503223, 1.00782503223, 15.99491461957, 1.00782503223,
                         1.00782503223],
              'molecular_charge': 0.0,
              'molecular_multiplicity': 1,
              'name': 'dimer',
              'provenance': {'creator': 'QCElemental',
                             'routine': 'qcelemental.molparse.from_string',
                             'version': '0.27.1'},
              'real': [False, True, True, True, True, True, True, True, True, True, True, True, True],
              'schema_name': 'qcschema_molecule',
              'schema_version': 2,
              'symbols': ['Li', 'O', 'H', 'H', 'O', 'H', 'H', 'O', 'H', 'H', 'O', 'H', 'H'],
              'validated': True},
 'protocols': {'stdout': True},
 'provenance': {'creator': 'QCElemental', 'routine': 'qcelemental.models.results', 'version': '0.27.1'},
 'schema_name': 'qcschema_input',
 'schema_version': 1}
--------------------------------------------------------------------------

Scratch directory: /scratch/
   => Libint2 <=

    Primary   basis highest AM E, G, H:  5, 4, 3
    Auxiliary basis highest AM E, G, H:  6, 5, 4
    Onebody   basis highest AM E, G, H:  6, 5, 4
    Solid Harmonics ordering:            gaussian

*** tstart() called on moses-razer
*** at Sat Jan  6 17:26:40 2024

   => Loading Basis Set <=

    Name: AUG-CC-PVTZ
    Role: ORBITAL
    Keyword: BASIS
    atoms 1                     entry LI         line    85 file /home/kchung25/anaconda3/envs/p415env/share/psi4/basis/aug-cc-pvtz.gbs 
    atoms 2, 5, 8, 11           entry O          line   331 file /home/kchung25/anaconda3/envs/p415env/share/psi4/basis/aug-cc-pvtz.gbs 
    atoms 3-4, 6-7, 9-10, 12-13 entry H          line    40 file /home/kchung25/anaconda3/envs/p415env/share/psi4/basis/aug-cc-pvtz.gbs 


         ---------------------------------------------------------
                                   SCF
               by Justin Turney, Rob Parrish, Andy Simmonett
                          and Daniel G. A. Smith
                              RHF Reference
                        6 Threads,  57220 MiB Core
         ---------------------------------------------------------

  ==> Geometry <==

    Molecular point group: c1
    Full point group: C1

    Geometry (in Bohr), charge = 0, multiplicity = 1:

       Center              X                  Y                   Z               Mass       
    ------------   -----------------  -----------------  -----------------  -----------------
      Gh(LI)          0.000000000000     0.000000000000     0.000000000000     7.016003436600
         O            2.359784160809    -2.922189332458    -0.120781845309    15.994914619570
         H            2.972323766567    -4.122613287216    -1.322511600819     1.007825032230
         H            1.945503281777    -3.872451342728     1.368331790183     1.007825032230
         O            1.447207068933     1.890791930993     2.622697977191    15.994914619570
         H            0.286008159362     1.750749997013     3.968997450477     1.007825032230
         H            3.132234281029     1.260477561298     2.922363187262     1.007825032230
         O           -3.158817058436    -1.001080525235     1.131893036818    15.994914619570
         H           -3.237429665255    -2.424467596357     2.240187173781     1.007825032230
         H           -4.166143128516    -1.255813717221    -0.403516999021     1.007825032230
         O           -0.279112548730     2.909800287980    -2.572624014319    15.994914619570
         H            1.228892678837     3.785351975879    -3.344626269448     1.007825032230
         H           -1.531847902092     2.856982442773    -3.894474210994     1.007825032230

  Running in c1 symmetry.

  Rotational constants: A =      0.10192  B =      0.08372  C =      0.07678 [cm^-1]
  Rotational constants: A =   3055.34628  B =   2509.90634  C =   2301.72995 [MHz]
  Nuclear repulsion =  133.048964671259711

  Charge       = 0
  Multiplicity = 1
  Electrons    = 40
  Nalpha       = 20
  Nbeta        = 20

  ==> Algorithm <==

  SCF Algorithm Type is DF.
  DIIS enabled.
  MOM disabled.
  Fractional occupation disabled.
  Guess Type is SAD.
  Energy threshold   = 1.00e-08
  Density threshold  = 1.00e-08
  Integral threshold = 1.00e-12

  ==> Primary Basis <==

  Basis Set: AUG-CC-PVTZ
    Blend: AUG-CC-PVTZ
    Number of shells: 142
    Number of basis functions: 414
    Number of Cartesian functions: 475
    Spherical Harmonics?: true
    Max angular momentum: 3

   => Loading Basis Set <=

    Name: (AUG-CC-PVTZ AUX)
    Role: JKFIT
    Keyword: DF_BASIS_SCF
    atoms 1                     entry LI         line    54 file /home/kchung25/anaconda3/envs/p415env/share/psi4/basis/def2-universal-jkfit.gbs 
    atoms 2, 5, 8, 11           entry O          line   286 file /home/kchung25/anaconda3/envs/p415env/share/psi4/basis/aug-cc-pvtz-jkfit.gbs 
    atoms 3-4, 6-7, 9-10, 12-13 entry H          line    70 file /home/kchung25/anaconda3/envs/p415env/share/psi4/basis/aug-cc-pvtz-jkfit.gbs 

  ==> Integral Setup <==

  DFHelper Memory: AOs need 1.069 GiB; user supplied 41.910 GiB. 
  Using in-core AOs.

  ==> MemDFJK: Density-Fitted J/K Matrices <==

    J tasked:                   Yes
    K tasked:                   Yes
    wK tasked:                   No
    OpenMP threads:               6
    Memory [MiB]:             42915
    Algorithm:                 Core
    Schwarz Cutoff:           1E-12
    Mask sparsity (%):       4.1576
    Fitting Condition:        1E-10

   => Auxiliary Basis Set <=

  Basis Set: (AUG-CC-PVTZ AUX)
    Blend: AUG-CC-PVTZ-JKFIT + DEF2-UNIVERSAL-JKFIT
    Number of shells: 249
    Number of basis functions: 835
    Number of Cartesian functions: 1024
    Spherical Harmonics?: true
    Max angular momentum: 4

  Minimum eigenvalue in the overlap matrix is 1.9336500269E-05.
  Reciprocal condition number of the overlap matrix is 1.3244350728E-06.
    Using symmetric orthogonalization.

  ==> Pre-Iterations <==

  SCF Guess: Superposition of Atomic Densities via on-the-fly atomic UHF (no occupation information).

   -------------------------
    Irrep   Nso     Nmo    
   -------------------------
     A        414     414 
   -------------------------
    Total     414     414
   -------------------------

  ==> Iterations <==

                           Total Energy        Delta E     RMS |[F,P]|

   @DF-RHF iter SAD:  -301.92413735097739   -3.01924e+02   0.00000e+00 
   @DF-RHF iter   1:  -303.84813126141819   -1.92399e+00   2.31509e-03 DIIS/ADIIS
   @DF-RHF iter   2:  -304.06268951272841   -2.14558e-01   1.63408e-03 DIIS/ADIIS
   @DF-RHF iter   3:  -304.20842317069048   -1.45734e-01   1.11844e-04 DIIS/ADIIS
   @DF-RHF iter   4:  -304.21026548894838   -1.84232e-03   3.09825e-05 DIIS
   @DF-RHF iter   5:  -304.21039695754394   -1.31469e-04   1.10327e-05 DIIS
   @DF-RHF iter   6:  -304.21041274272346   -1.57852e-05   4.10688e-06 DIIS
   @DF-RHF iter   7:  -304.21041510701838   -2.36429e-06   8.61032e-07 DIIS
   @DF-RHF iter   8:  -304.21041530694697   -1.99929e-07   1.74162e-07 DIIS
   @DF-RHF iter   9:  -304.21041531427460   -7.32763e-09   4.23539e-08 DIIS
   @DF-RHF iter  10:  -304.21041531452153   -2.46928e-10   1.75692e-08 DIIS
   @DF-RHF iter  11:  -304.21041531455410   -3.25713e-11   4.89264e-09 DIIS
  Energy and wave function converged.


  ==> Post-Iterations <==

    Orbital Energies [Eh]
    ---------------------

    Doubly Occupied:                                                      

       1A    -20.546920     2A    -20.540539     3A    -20.535658  
       4A    -20.511921     5A     -1.333327     6A     -1.319160  
       7A     -1.303217     8A     -1.298801     9A     -0.704305  
      10A     -0.701075    11A     -0.693203    12A     -0.667769  
      13A     -0.562714    14A     -0.547840    15A     -0.536405  
      16A     -0.506392    17A     -0.495853    18A     -0.476982  
      19A     -0.470306    20A     -0.454671  

    Virtual:                                                              

      21A      0.008268    22A      0.017026    23A      0.019310  
      24A      0.021868    25A      0.047276    26A      0.055034  
      27A      0.056871    28A      0.058439    29A      0.063138  
      30A      0.066589    31A      0.072485    32A      0.074227  
      33A      0.081834    34A      0.087662    35A      0.090694  
      36A      0.122348    37A      0.141187    38A      0.153374  
      39A      0.153996    40A      0.161715    41A      0.169946  
      42A      0.174778    43A      0.175716    44A      0.180301  
      45A      0.185141    46A      0.190632    47A      0.199866  
      48A      0.209671    49A      0.212452    50A      0.218815  
      51A      0.221839    52A      0.231154    53A      0.239129  
      54A      0.245267    55A      0.261491    56A      0.263643  
      57A      0.282050    58A      0.301809    59A      0.311158  
      60A      0.315186    61A      0.328505    62A      0.338132  
      63A      0.347249    64A      0.349855    65A      0.361102  
      66A      0.368903    67A      0.373498    68A      0.378737  
      69A      0.383447    70A      0.393080    71A      0.403783  
      72A      0.411275    73A      0.414122    74A      0.424997  
      75A      0.426737    76A      0.434643    77A      0.437930  
      78A      0.440804    79A      0.446840    80A      0.452601  
      81A      0.456192    82A      0.461491    83A      0.471086  
      84A      0.476374    85A      0.479687    86A      0.487217  
      87A      0.488679    88A      0.495022    89A      0.504459  
      90A      0.511234    91A      0.514875    92A      0.515788  
      93A      0.522839    94A      0.539119    95A      0.542085  
      96A      0.545704    97A      0.555124    98A      0.566742  
      99A      0.580374   100A      0.585604   101A      0.594045  
     102A      0.607163   103A      0.625276   104A      0.659978  
     105A      0.670760   106A      0.714021   107A      0.739337  
     108A      0.767505   109A      0.777598   110A      0.783209  
     111A      0.787121   112A      0.792146   113A      0.796783  
     114A      0.811835   115A      0.818735   116A      0.821727  
     117A      0.826040   118A      0.832075   119A      0.849767  
     120A      0.871629   121A      0.884983   122A      0.888410  
     123A      0.888854   124A      0.899028   125A      0.911696  
     126A      0.924101   127A      0.929796   128A      0.934763  
     129A      0.949678   130A      0.962128   131A      0.969557  
     132A      0.975541   133A      0.976346   134A      0.981117  
     135A      0.999563   136A      1.007111   137A      1.014987  
     138A      1.019076   139A      1.030538   140A      1.040031  
     141A      1.045787   142A      1.061935   143A      1.064601  
     144A      1.070425   145A      1.077273   146A      1.083415  
     147A      1.095556   148A      1.101290   149A      1.111559  
     150A      1.121134   151A      1.125978   152A      1.131775  
     153A      1.140111   154A      1.148078   155A      1.151121  
     156A      1.164328   157A      1.172727   158A      1.180394  
     159A      1.196660   160A      1.207954   161A      1.213160  
     162A      1.224874   163A      1.229964   164A      1.241734  
     165A      1.248015   166A      1.258381   167A      1.278872  
     168A      1.284108   169A      1.293039   170A      1.308052  
     171A      1.324682   172A      1.339120   173A      1.347300  
     174A      1.355119   175A      1.370713   176A      1.380054  
     177A      1.397997   178A      1.409510   179A      1.426535  
     180A      1.440888   181A      1.454569   182A      1.476706  
     183A      1.490523   184A      1.497476   185A      1.501550  
     186A      1.534399   187A      1.564747   188A      1.591263  
     189A      1.596933   190A      1.611034   191A      1.633869  
     192A      1.648234   193A      1.662525   194A      1.696582  
     195A      1.708757   196A      1.726785   197A      1.740236  
     198A      1.762406   199A      1.770447   200A      1.780251  
     201A      1.787792   202A      1.803013   203A      1.817158  
     204A      1.824025   205A      1.841272   206A      1.855309  
     207A      1.874105   208A      1.897769   209A      1.915960  
     210A      1.930983   211A      1.947896   212A      1.948698  
     213A      1.974362   214A      2.037320   215A      2.065699  
     216A      2.070227   217A      2.085624   218A      2.105004  
     219A      2.113537   220A      2.153978   221A      2.187640  
     222A      2.207141   223A      2.221567   224A      2.265861  
     225A      2.290870   226A      2.336431   227A      2.367811  
     228A      2.395150   229A      2.406482   230A      2.426524  
     231A      2.441680   232A      2.463585   233A      2.491306  
     234A      2.508966   235A      2.512840   236A      2.533569  
     237A      2.536914   238A      2.567777   239A      2.576813  
     240A      2.609850   241A      2.634781   242A      2.658719  
     243A      2.678897   244A      2.682239   245A      2.710367  
     246A      2.719718   247A      2.762624   248A      2.773332  
     249A      2.780534   250A      2.793217   251A      2.812766  
     252A      2.817148   253A      2.837858   254A      2.842332  
     255A      2.856645   256A      2.874414   257A      2.890414  
     258A      2.905119   259A      2.908932   260A      2.916967  
     261A      2.920949   262A      2.952413   263A      2.985361  
     264A      2.999177   265A      3.018154   266A      3.023966  
     267A      3.038979   268A      3.062562   269A      3.086954  
     270A      3.098088   271A      3.131583   272A      3.167668  
     273A      3.213415   274A      3.226616   275A      3.255238  
     276A      3.293347   277A      3.379859   278A      3.855869  
     279A      3.871873   280A      3.895980   281A      3.958925  
     282A      3.968799   283A      4.023912   284A      4.045332  
     285A      4.077107   286A      4.131442   287A      4.140336  
     288A      4.186296   289A      4.210227   290A      4.270480  
     291A      4.300133   292A      4.319267   293A      4.329924  
     294A      4.351627   295A      4.376217   296A      4.380024  
     297A      4.411895   298A      4.422898   299A      4.430281  
     300A      4.449899   301A      4.492696   302A      4.518631  
     303A      4.528012   304A      4.534142   305A      4.559421  
     306A      4.567569   307A      4.581795   308A      4.601243  
     309A      4.618389   310A      4.636608   311A      4.637844  
     312A      4.659819   313A      4.663968   314A      4.694963  
     315A      4.718259   316A      4.726873   317A      4.742374  
     318A      4.749446   319A      4.779814   320A      4.796462  
     321A      4.814979   322A      4.849385   323A      4.862564  
     324A      4.873851   325A      4.901414   326A      4.909959  
     327A      4.930682   328A      4.936721   329A      4.971457  
     330A      5.150174   331A      5.188927   332A      5.219673  
     333A      5.249708   334A      5.268281   335A      5.274063  
     336A      5.319505   337A      5.343459   338A      5.375125  
     339A      5.381369   340A      5.432127   341A      5.454317  
     342A      5.474115   343A      5.493812   344A      5.525228  
     345A      5.540457   346A      5.571884   347A      5.603049  
     348A      5.656594   349A      5.741312   350A      5.868170  
     351A      5.934734   352A      5.968560   353A      6.046473  
     354A      6.256968   355A      6.306449   356A      6.377128  
     357A      6.402744   358A      6.682636   359A      6.695091  
     360A      6.727161   361A      6.774050   362A      6.857674  
     363A      6.867597   364A      6.901839   365A      6.919704  
     366A      6.971105   367A      6.979911   368A      7.032382  
     369A      7.041625   370A      7.191722   371A      7.243648  
     372A      7.275086   373A      7.325405   374A      7.338631  
     375A      7.350607   376A      7.367905   377A      7.380760  
     378A      7.394960   379A      7.411211   380A      7.418045  
     381A      7.426976   382A      7.434229   383A      7.449322  
     384A      7.459518   385A      7.469097   386A      7.482344  
     387A      7.489026   388A      7.504547   389A      7.537849  
     390A      7.559524   391A      7.563073   392A      7.614201  
     393A      7.665963   394A      7.709956   395A      7.750622  
     396A      7.781521   397A      7.828268   398A      7.920078  
     399A      7.952215   400A      7.960487   401A      8.001145  
     402A      8.031057   403A      8.040413   404A      8.107624  
     405A      8.183628   406A      8.777481   407A      8.865382  
     408A      8.921550   409A      8.972473   410A     13.072173  
     411A     15.527730   412A     16.150335   413A     16.399752  
     414A     16.757335  

    Final Occupation by Irrep:
              A 
    DOCC [    20 ]
    NA   [    20 ]
    NB   [    20 ]

  @DF-RHF Final Energy:  -304.21041531455410

   => Energetics <=

    Nuclear Repulsion Energy =            133.0489646712597107
    One-Electron Energy =                -686.1046368860027087
    Two-Electron Energy =                 248.8452569001889287
    Total Energy =                       -304.2104153145540977

Computation Completed


Properties will be evaluated at   0.000000,   0.000000,   0.000000 [a0]

Properties computed using the SCF density matrix


 Multipole Moments:

 ------------------------------------------------------------------------------------
     Multipole            Electronic (a.u.)      Nuclear  (a.u.)        Total (a.u.)
 ------------------------------------------------------------------------------------

 L = 1.  Multiply by 2.5417464519 to convert [e a0] to [Debye]
 Dipole X            :         -3.6377968            3.5820345           -0.0557623
 Dipole Y            :         -6.3069532            4.9967949           -1.3101583
 Dipole Z            :        -10.2650174           10.0242318           -0.2407856
 Magnitude           :                                                    1.3332674

 ------------------------------------------------------------------------------------

*** tstop() called on moses-razer at Sat Jan  6 17:26:45 2024
Module time:
	user time   =      24.78 seconds =       0.41 minutes
	system time =       0.99 seconds =       0.02 minutes
	total time  =          5 seconds =       0.08 minutes
Total time:
	user time   =      24.78 seconds =       0.41 minutes
	system time =       0.99 seconds =       0.02 minutes
	total time  =          5 seconds =       0.08 minutes

*** tstart() called on moses-razer
*** at Sat Jan  6 17:26:45 2024


  //>>>>>>>>>>>>>>>>>>>>>>>>>>>>>>>>>>>//
  //               DFMP2               //
  //<<<<<<<<<<<<<<<<<<<<<<<<<<<<<<<<<<<//

   => Loading Basis Set <=

    Name: (AUG-CC-PVTZ AUX)
    Role: RIFIT
    Keyword: DF_BASIS_MP2
    atoms 1                     entry LI         line    90 file /home/kchung25/anaconda3/envs/p415env/share/psi4/basis/def2-qzvpp-ri.gbs 
    atoms 2, 5, 8, 11           entry O          line   264 file /home/kchung25/anaconda3/envs/p415env/share/psi4/basis/aug-cc-pvtz-ri.gbs 
    atoms 3-4, 6-7, 9-10, 12-13 entry H          line    30 file /home/kchung25/anaconda3/envs/p415env/share/psi4/basis/aug-cc-pvtz-ri.gbs 

	 --------------------------------------------------------
	                          DF-MP2                         
	      2nd-Order Density-Fitted Moller-Plesset Theory     
	              RMP2 Wavefunction,   6 Threads             
	                                                         
	        Rob Parrish, Justin Turney, Andy Simmonett,      
	           Ed Hohenstein, and C. David Sherrill          
	 --------------------------------------------------------

   => Auxiliary Basis Set <=

  Basis Set: (AUG-CC-PVTZ AUX)
    Blend: AUG-CC-PVTZ-RI + DEF2-QZVPP-RI
    Number of shells: 251
    Number of basis functions: 893
    Number of Cartesian functions: 1114
    Spherical Harmonics?: true
    Max angular momentum: 4

	 --------------------------------------------------------
	                 NBF =   414, NAUX =   893
	 --------------------------------------------------------
	   CLASS    FOCC     OCC    AOCC    AVIR     VIR    FVIR
	   PAIRS       0      20      20     394     394       0
	 --------------------------------------------------------

	-----------------------------------------------------------
	 ==================> DF-MP2 Energies <==================== 
	-----------------------------------------------------------
	 Reference Energy          =    -304.2104153145540977 [Eh]
	 Singles Energy            =      -0.0000000000000000 [Eh]
	 Same-Spin Energy          =      -0.2775608577870147 [Eh]
	 Opposite-Spin Energy      =      -0.8695690895244589 [Eh]
	 Correlation Energy        =      -1.1471299473114736 [Eh]
	 Total Energy              =    -305.3575452618655959 [Eh]
	-----------------------------------------------------------
	 ================> DF-SCS-MP2 Energies <================== 
	-----------------------------------------------------------
	 SCS Same-Spin Scale       =       0.3333333333333333 [-]
	 SCS Opposite-Spin Scale   =       1.2000000000000000 [-]
	 SCS Same-Spin Energy      =      -0.0925202859290049 [Eh]
	 SCS Opposite-Spin Energy  =      -1.0434829074293506 [Eh]
	 SCS Correlation Energy    =      -1.1360031933583554 [Eh]
	 SCS Total Energy          =    -305.3464185079124604 [Eh]
	-----------------------------------------------------------


*** tstop() called on moses-razer at Sat Jan  6 17:26:47 2024
Module time:
	user time   =       8.96 seconds =       0.15 minutes
	system time =       0.48 seconds =       0.01 minutes
	total time  =          2 seconds =       0.03 minutes
Total time:
	user time   =      33.74 seconds =       0.56 minutes
	system time =       1.47 seconds =       0.02 minutes
	total time  =          7 seconds =       0.12 minutes

    Psi4 stopped on: Saturday, 06 January 2024 05:26PM
    Psi4 wall time for execution: 0:00:06.66


    -----------------------------------------------------------------------
          Psi4: An Open-Source Ab Initio Electronic Structure Package
                               Psi4 1.9 release

                         Git: Rev {} zzzzzzz 


    D. G. A. Smith, L. A. Burns, A. C. Simmonett, R. M. Parrish,
    M. C. Schieber, R. Galvelis, P. Kraus, H. Kruse, R. Di Remigio,
    A. Alenaizan, A. M. James, S. Lehtola, J. P. Misiewicz, M. Scheurer,
    R. A. Shaw, J. B. Schriber, Y. Xie, Z. L. Glick, D. A. Sirianni,
    J. S. O'Brien, J. M. Waldrop, A. Kumar, E. G. Hohenstein,
    B. P. Pritchard, B. R. Brooks, H. F. Schaefer III, A. Yu. Sokolov,
    K. Patkowski, A. E. DePrince III, U. Bozkaya, R. A. King,
    F. A. Evangelista, J. M. Turney, T. D. Crawford, C. D. Sherrill,
    J. Chem. Phys. 152(18) 184108 (2020). https://doi.org/10.1063/5.0006002

                            Additional Code Authors
    E. T. Seidl, C. L. Janssen, E. F. Valeev, M. L. Leininger,
    J. F. Gonthier, R. M. Richard, H. R. McAlexander, M. Saitow, X. Wang,
    P. Verma, M. H. Lechner, A. Jiang, S. Behnle, A. G. Heide,
    M. F. Herbst, and D. L. Poole

             Previous Authors, Complete List of Code Contributors,
                       and Citations for Specific Modules
    https://github.com/psi4/psi4/blob/master/codemeta.json
    https://github.com/psi4/psi4/graphs/contributors
    http://psicode.org/psi4manual/master/introduction.html#citing-psifour

    -----------------------------------------------------------------------


    Psi4 started on: Saturday, 06 January 2024 05:26PM

    Process ID: 547834
    Host:       moses-razer
    PSIDATADIR: /home/kchung25/anaconda3/envs/psi4_19/share/psi4
    Memory:     55.9 GiB
    Threads:    6
    
  ==> Input QCSchema <==

--------------------------------------------------------------------------
{'driver': 'energy',
 'extras': {'psiapi': True, 'wfn_qcvars_only': True},
 'id': None,
 'keywords': {'SCF_TYPE': 'DF', 'function_kwargs': {}},
 'model': {'basis': 'aug-cc-pvtz', 'method': 'mp2'},
 'molecule': {'atom_labels': ['', '', '', '', '', '', '', '', '', '', '', '', ''],
              'atomic_numbers': [3, 8, 1, 1, 8, 1, 1, 8, 1, 1, 8, 1, 1],
              'extras': {},
              'fix_com': True,
              'fix_orientation': True,
              'fix_symmetry': 'c1',
              'fragment_charges': [1.0, 0.0],
              'fragment_multiplicities': [1, 1],
              'fragments': [[0], [1, 2, 3, 4, 5, 6, 7, 8, 9, 10, 11, 12]],
              'geometry': [0.0, 0.0, 0.0, 2.3597841608087102, -2.9221893324584656, -0.12078184530863709,
                           2.9723237665668614, -4.12261328721592, -1.3225116008187827, 1.9455032817768416,
                           -3.872451342727812, 1.3683317901827587, 1.447207068933243, 1.8907919309925865,
                           2.622697977191407, 0.28600815936191687, 1.750749997013283, 3.9689974504774526,
                           3.1322342810292283, 1.2604775612983787, 2.9223631872620075, -3.1588170584360435,
                           -1.0010805252351591, 1.1318930368177262, -3.2374296652550894, -2.424467596357006,
                           2.2401871737807353, -4.166143128515841, -1.2558137172207489, -0.403516999021261,
                           -0.2791125487301212, 2.909800287979964, -2.5726240143190253, 1.2288926788374763,
                           3.7853519758793355, -3.34462626944781, -1.531847902092499, 2.8569824427734174,
                           -3.894474210993898],
              'mass_numbers': [7, 16, 1, 1, 16, 1, 1, 16, 1, 1, 16, 1, 1],
              'masses': [7.0160034366, 15.99491461957, 1.00782503223, 1.00782503223, 15.99491461957, 1.00782503223,
                         1.00782503223, 15.99491461957, 1.00782503223, 1.00782503223, 15.99491461957, 1.00782503223,
                         1.00782503223],
              'molecular_charge': 1.0,
              'molecular_multiplicity': 1,
              'name': 'dimer',
              'provenance': {'creator': 'QCElemental',
                             'routine': 'qcelemental.molparse.from_string',
                             'version': '0.27.1'},
              'real': [True, False, False, False, False, False, False, False, False, False, False, False, False],
              'schema_name': 'qcschema_molecule',
              'schema_version': 2,
              'symbols': ['Li', 'O', 'H', 'H', 'O', 'H', 'H', 'O', 'H', 'H', 'O', 'H', 'H'],
              'validated': True},
 'protocols': {'stdout': True},
 'provenance': {'creator': 'QCElemental', 'routine': 'qcelemental.models.results', 'version': '0.27.1'},
 'schema_name': 'qcschema_input',
 'schema_version': 1}
--------------------------------------------------------------------------

Scratch directory: /scratch/
   => Libint2 <=

    Primary   basis highest AM E, G, H:  5, 4, 3
    Auxiliary basis highest AM E, G, H:  6, 5, 4
    Onebody   basis highest AM E, G, H:  6, 5, 4
    Solid Harmonics ordering:            gaussian

*** tstart() called on moses-razer
*** at Sat Jan  6 17:26:47 2024

   => Loading Basis Set <=

    Name: AUG-CC-PVTZ
    Role: ORBITAL
    Keyword: BASIS
    atoms 1                     entry LI         line    85 file /home/kchung25/anaconda3/envs/p415env/share/psi4/basis/aug-cc-pvtz.gbs 
    atoms 2, 5, 8, 11           entry O          line   331 file /home/kchung25/anaconda3/envs/p415env/share/psi4/basis/aug-cc-pvtz.gbs 
    atoms 3-4, 6-7, 9-10, 12-13 entry H          line    40 file /home/kchung25/anaconda3/envs/p415env/share/psi4/basis/aug-cc-pvtz.gbs 


         ---------------------------------------------------------
                                   SCF
               by Justin Turney, Rob Parrish, Andy Simmonett
                          and Daniel G. A. Smith
                              RHF Reference
                        6 Threads,  57220 MiB Core
         ---------------------------------------------------------

  ==> Geometry <==

    Molecular point group: c1
    Full point group: C1

    Geometry (in Bohr), charge = 1, multiplicity = 1:

       Center              X                  Y                   Z               Mass       
    ------------   -----------------  -----------------  -----------------  -----------------
         LI           0.000000000000     0.000000000000     0.000000000000     7.016003436600
      Gh(O)           2.359784160809    -2.922189332458    -0.120781845309    15.994914619570
      Gh(H)           2.972323766567    -4.122613287216    -1.322511600819     1.007825032230
      Gh(H)           1.945503281777    -3.872451342728     1.368331790183     1.007825032230
      Gh(O)           1.447207068933     1.890791930993     2.622697977191    15.994914619570
      Gh(H)           0.286008159362     1.750749997013     3.968997450477     1.007825032230
      Gh(H)           3.132234281029     1.260477561298     2.922363187262     1.007825032230
      Gh(O)          -3.158817058436    -1.001080525235     1.131893036818    15.994914619570
      Gh(H)          -3.237429665255    -2.424467596357     2.240187173781     1.007825032230
      Gh(H)          -4.166143128516    -1.255813717221    -0.403516999021     1.007825032230
      Gh(O)          -0.279112548730     2.909800287980    -2.572624014319    15.994914619570
      Gh(H)           1.228892678837     3.785351975879    -3.344626269448     1.007825032230
      Gh(H)          -1.531847902092     2.856982442773    -3.894474210994     1.007825032230

  Running in c1 symmetry.

  Rotational constants: A =      0.10192  B =      0.08372  C =      0.07678 [cm^-1]
  Rotational constants: A =   3055.34628  B =   2509.90634  C =   2301.72995 [MHz]
  Nuclear repulsion =    0.000000000000000

  Charge       = 1
  Multiplicity = 1
  Electrons    = 2
  Nalpha       = 1
  Nbeta        = 1

  ==> Algorithm <==

  SCF Algorithm Type is DF.
  DIIS enabled.
  MOM disabled.
  Fractional occupation disabled.
  Guess Type is SAD.
  Energy threshold   = 1.00e-08
  Density threshold  = 1.00e-08
  Integral threshold = 1.00e-12

  ==> Primary Basis <==

  Basis Set: AUG-CC-PVTZ
    Blend: AUG-CC-PVTZ
    Number of shells: 142
    Number of basis functions: 414
    Number of Cartesian functions: 475
    Spherical Harmonics?: true
    Max angular momentum: 3

   => Loading Basis Set <=

    Name: (AUG-CC-PVTZ AUX)
    Role: JKFIT
    Keyword: DF_BASIS_SCF
    atoms 1                     entry LI         line    54 file /home/kchung25/anaconda3/envs/p415env/share/psi4/basis/def2-universal-jkfit.gbs 
    atoms 2, 5, 8, 11           entry O          line   286 file /home/kchung25/anaconda3/envs/p415env/share/psi4/basis/aug-cc-pvtz-jkfit.gbs 
    atoms 3-4, 6-7, 9-10, 12-13 entry H          line    70 file /home/kchung25/anaconda3/envs/p415env/share/psi4/basis/aug-cc-pvtz-jkfit.gbs 

  ==> Integral Setup <==

  DFHelper Memory: AOs need 1.069 GiB; user supplied 41.910 GiB. 
  Using in-core AOs.

  ==> MemDFJK: Density-Fitted J/K Matrices <==

    J tasked:                   Yes
    K tasked:                   Yes
    wK tasked:                   No
    OpenMP threads:               6
    Memory [MiB]:             42915
    Algorithm:                 Core
    Schwarz Cutoff:           1E-12
    Mask sparsity (%):       4.1576
    Fitting Condition:        1E-10

   => Auxiliary Basis Set <=

  Basis Set: (AUG-CC-PVTZ AUX)
    Blend: AUG-CC-PVTZ-JKFIT + DEF2-UNIVERSAL-JKFIT
    Number of shells: 249
    Number of basis functions: 835
    Number of Cartesian functions: 1024
    Spherical Harmonics?: true
    Max angular momentum: 4

  Minimum eigenvalue in the overlap matrix is 1.9336500269E-05.
  Reciprocal condition number of the overlap matrix is 1.3244350728E-06.
    Using symmetric orthogonalization.

  ==> Pre-Iterations <==

  SCF Guess: Superposition of Atomic Densities via on-the-fly atomic UHF (no occupation information).

   -------------------------
    Irrep   Nso     Nmo    
   -------------------------
     A        414     414 
   -------------------------
    Total     414     414
   -------------------------

  ==> Iterations <==

                           Total Energy        Delta E     RMS |[F,P]|

   @DF-RHF iter SAD:    -7.31416355968775   -7.31416e+00   0.00000e+00 
   @DF-RHF iter   1:    -7.23638298252911    7.77806e-02   5.48954e-06 DIIS
   @DF-RHF iter   2:    -7.23638490920670   -1.92668e-06   6.72258e-07 DIIS
   @DF-RHF iter   3:    -7.23638494093346   -3.17268e-08   3.49152e-08 DIIS
   @DF-RHF iter   4:    -7.23638494099577   -6.23031e-11   2.27556e-10 DIIS
  Energy and wave function converged.


  ==> Post-Iterations <==

    Orbital Energies [Eh]
    ---------------------

    Doubly Occupied:                                                      

       1A     -2.792352  

    Virtual:                                                              

       2A     -0.196302     3A     -0.128602     4A     -0.128602  
       5A     -0.128600     6A     -0.073776     7A     -0.056394  
       8A     -0.056392     9A     -0.056390    10A     -0.051373  
      11A     -0.050912    12A     -0.050382    13A     -0.049926  
      14A     -0.042160    15A     -0.027370    16A     -0.010636  
      17A     -0.009200    18A     -0.008885    19A     -0.008497  
      20A     -0.005505    21A      0.001947    22A      0.013005  
      23A      0.013686    24A      0.016705    25A      0.021847  
      26A      0.026407    27A      0.036609    28A      0.040901  
      29A      0.044607    30A      0.054793    31A      0.064610  
      32A      0.075648    33A      0.084259    34A      0.091351  
      35A      0.095559    36A      0.097130    37A      0.110261  
      38A      0.112800    39A      0.129689    40A      0.136492  
      41A      0.139108    42A      0.150436    43A      0.151274  
      44A      0.160534    45A      0.165018    46A      0.171796  
      47A      0.173670    48A      0.177176    49A      0.184780  
      50A      0.189785    51A      0.205870    52A      0.213965  
      53A      0.220969    54A      0.222656    55A      0.229090  
      56A      0.237333    57A      0.244669    58A      0.252211  
      59A      0.258290    60A      0.265023    61A      0.272226  
      62A      0.273535    63A      0.285423    64A      0.290473  
      65A      0.291690    66A      0.298600    67A      0.300816  
      68A      0.306255    69A      0.317138    70A      0.322952  
      71A      0.326564    72A      0.339955    73A      0.348540  
      74A      0.355357    75A      0.358998    76A      0.361291  
      77A      0.367880    78A      0.373447    79A      0.377774  
      80A      0.384185    81A      0.391340    82A      0.395535  
      83A      0.408418    84A      0.416095    85A      0.425809  
      86A      0.440011    87A      0.463808    88A      0.477323  
      89A      0.481201    90A      0.517346    91A      0.544625  
      92A      0.552904    93A      0.567338    94A      0.572381  
      95A      0.586240    96A      0.591986    97A      0.608405  
      98A      0.613109    99A      0.621793   100A      0.635514  
     101A      0.644940   102A      0.661865   103A      0.668190  
     104A      0.673428   105A      0.675236   106A      0.687368  
     107A      0.701350   108A      0.703909   109A      0.714143  
     110A      0.720035   111A      0.730013   112A      0.739539  
     113A      0.746737   114A      0.750941   115A      0.768915  
     116A      0.780648   117A      0.782558   118A      0.789956  
     119A      0.808319   120A      0.812553   121A      0.823121  
     122A      0.828194   123A      0.843524   124A      0.858460  
     125A      0.866544   126A      0.869606   127A      0.879823  
     128A      0.884015   129A      0.892829   130A      0.902837  
     131A      0.912261   132A      0.920933   133A      0.930201  
     134A      0.934406   135A      0.939311   136A      0.948515  
     137A      0.957036   138A      0.967492   139A      0.968516  
     140A      0.982014   141A      0.994613   142A      0.997443  
     143A      1.000289   144A      1.015838   145A      1.022896  
     146A      1.046347   147A      1.062253   148A      1.071277  
     149A      1.076895   150A      1.082513   151A      1.086349  
     152A      1.101611   153A      1.117788   154A      1.119571  
     155A      1.140228   156A      1.150120   157A      1.162400  
     158A      1.163253   159A      1.173546   160A      1.198313  
     161A      1.211151   162A      1.218654   163A      1.237474  
     164A      1.245792   165A      1.250526   166A      1.261584  
     167A      1.280084   168A      1.293343   169A      1.314764  
     170A      1.318113   171A      1.333122   172A      1.333366  
     173A      1.345639   174A      1.354328   175A      1.366200  
     176A      1.410032   177A      1.422839   178A      1.493508  
     179A      1.508147   180A      1.538181   181A      1.555169  
     182A      1.577233   183A      1.589501   184A      1.608210  
     185A      1.617927   186A      1.640534   187A      1.662778  
     188A      1.671842   189A      1.692375   190A      1.704590  
     191A      1.712454   192A      1.722502   193A      1.736016  
     194A      1.742664   195A      1.766707   196A      1.772173  
     197A      1.787948   198A      1.798392   199A      1.813391  
     200A      1.841852   201A      1.855322   202A      1.860865  
     203A      1.872907   204A      1.897514   205A      1.918649  
     206A      1.927662   207A      1.941733   208A      1.960179  
     209A      1.973922   210A      2.198570   211A      2.228151  
     212A      2.238655   213A      2.270336   214A      2.290098  
     215A      2.315922   216A      2.330482   217A      2.339055  
     218A      2.368147   219A      2.373744   220A      2.377803  
     221A      2.405522   222A      2.421242   223A      2.433572  
     224A      2.435958   225A      2.443054   226A      2.459903  
     227A      2.488481   228A      2.500431   229A      2.509109  
     230A      2.543962   231A      2.567302   232A      2.623208  
     233A      2.665692   234A      2.673787   235A      2.693751  
     236A      2.698977   237A      2.757974   238A      2.769468  
     239A      2.787002   240A      2.820045   241A      2.828126  
     242A      2.841096   243A      2.871684   244A      2.906271  
     245A      2.936864   246A      2.969373   247A      2.983382  
     248A      3.012441   249A      3.019368   250A      3.046540  
     251A      3.056065   252A      3.083511   253A      3.090176  
     254A      3.108019   255A      3.123211   256A      3.128164  
     257A      3.133232   258A      3.155787   259A      3.160660  
     260A      3.182772   261A      3.206568   262A      3.229502  
     263A      3.257682   264A      3.298823   265A      3.347652  
     266A      3.431246   267A      3.452469   268A      3.483401  
     269A      3.512778   270A      3.536624   271A      3.559089  
     272A      3.589834   273A      3.623891   274A      4.191877  
     275A      4.204008   276A      4.231436   277A      4.254126  
     278A      4.263888   279A      4.329623   280A      4.359641  
     281A      4.378577   282A      4.403164   283A      4.423619  
     284A      4.427197   285A      4.461326   286A      4.478517  
     287A      4.509729   288A      4.537021   289A      4.569689  
     290A      4.586629   291A      4.590998   292A      4.605399  
     293A      4.614749   294A      4.630503   295A      4.665127  
     296A      4.670200   297A      4.726811   298A      4.779707  
     299A      4.817544   300A      4.838737   301A      4.863378  
     302A      4.871337   303A      4.886557   304A      4.900107  
     305A      4.923705   306A      4.959472   307A      4.995515  
     308A      5.005296   309A      5.018434   310A      5.042135  
     311A      5.054839   312A      5.081800   313A      5.119065  
     314A      5.123633   315A      5.265409   316A      5.312164  
     317A      5.347253   318A      5.363305   319A      5.388098  
     320A      5.415728   321A      5.421290   322A      5.449765  
     323A      5.491763   324A      5.546305   325A      5.574363  
     326A      5.597881   327A      5.630535   328A      5.640893  
     329A      5.734283   330A      5.805365   331A      6.055618  
     332A      6.087629   333A      6.107264   334A      6.127874  
     335A      6.145690   336A      6.192261   337A      6.227750  
     338A      6.291842   339A      6.445613   340A      6.601187  
     341A      6.646750   342A      6.746938   343A      6.826465  
     344A      6.880031   345A      6.929777   346A      6.971605  
     347A      7.478917   348A      7.502088   349A      7.510613  
     350A      7.534204   351A      7.577679   352A      7.583916  
     353A      7.639542   354A      7.668325   355A      7.827555  
     356A      7.883393   357A      7.919291   358A      7.945800  
     359A      7.982641   360A      8.005665   361A      8.023803  
     362A      8.042324   363A      8.065357   364A      8.073223  
     365A      8.113512   366A      8.186338   367A      8.430783  
     368A      8.512501   369A      8.536579   370A      8.545924  
     371A      8.590810   372A      8.636686   373A      8.649254  
     374A      8.733866   375A      9.600314   376A      9.654655  
     377A      9.672420   378A      9.697774   379A      9.728715  
     380A      9.739516   381A      9.747657   382A      9.761116  
     383A      9.788357   384A      9.797199   385A      9.820284  
     386A      9.844360   387A      9.896430   388A      9.922803  
     389A      9.994948   390A     10.014209   391A     10.825711  
     392A     10.842928   393A     10.866379   394A     11.028817  
     395A     11.543820   396A     11.590276   397A     11.643776  
     398A     11.683600   399A     11.851211   400A     12.028828  
     401A     12.094913   402A     12.167437   403A     13.224911  
     404A     13.345137   405A     13.442970   406A     13.456061  
     407A     13.687289   408A     13.698778   409A     13.793417  
     410A     13.794429   411A     64.004081   412A     65.146656  
     413A     65.671117   414A     66.196137  

    Final Occupation by Irrep:
              A 
    DOCC [     1 ]
    NA   [     1 ]
    NB   [     1 ]

  @DF-RHF Final Energy:    -7.23638494099577

   => Energetics <=

    Nuclear Repulsion Energy =              0.0000000000000000
    One-Electron Energy =                  -8.8880662890049411
    Two-Electron Energy =                   1.6516813480091750
    Total Energy =                         -7.2363849409957659

Computation Completed


Properties will be evaluated at   0.000000,   0.000000,   0.000000 [a0]

Properties computed using the SCF density matrix


 Multipole Moments:

 ------------------------------------------------------------------------------------
     Multipole            Electronic (a.u.)      Nuclear  (a.u.)        Total (a.u.)
 ------------------------------------------------------------------------------------

 L = 1.  Multiply by 2.5417464519 to convert [e a0] to [Debye]
 Dipole X            :          0.0000031            0.0000000            0.0000031
 Dipole Y            :         -0.0000009            0.0000000           -0.0000009
 Dipole Z            :         -0.0000112            0.0000000           -0.0000112
 Magnitude           :                                                    0.0000116

 ------------------------------------------------------------------------------------

*** tstop() called on moses-razer at Sat Jan  6 17:26:50 2024
Module time:
	user time   =      15.89 seconds =       0.26 minutes
	system time =       0.71 seconds =       0.01 minutes
	total time  =          3 seconds =       0.05 minutes
Total time:
	user time   =      50.02 seconds =       0.83 minutes
	system time =       2.18 seconds =       0.04 minutes
	total time  =         10 seconds =       0.17 minutes

*** tstart() called on moses-razer
*** at Sat Jan  6 17:26:50 2024


  //>>>>>>>>>>>>>>>>>>>>>>>>>>>>>>>>>>>//
  //               DFMP2               //
  //<<<<<<<<<<<<<<<<<<<<<<<<<<<<<<<<<<<//

   => Loading Basis Set <=

    Name: (AUG-CC-PVTZ AUX)
    Role: RIFIT
    Keyword: DF_BASIS_MP2
    atoms 1                     entry LI         line    90 file /home/kchung25/anaconda3/envs/p415env/share/psi4/basis/def2-qzvpp-ri.gbs 
    atoms 2, 5, 8, 11           entry O          line   264 file /home/kchung25/anaconda3/envs/p415env/share/psi4/basis/aug-cc-pvtz-ri.gbs 
    atoms 3-4, 6-7, 9-10, 12-13 entry H          line    30 file /home/kchung25/anaconda3/envs/p415env/share/psi4/basis/aug-cc-pvtz-ri.gbs 

	 --------------------------------------------------------
	                          DF-MP2                         
	      2nd-Order Density-Fitted Moller-Plesset Theory     
	              RMP2 Wavefunction,   6 Threads             
	                                                         
	        Rob Parrish, Justin Turney, Andy Simmonett,      
	           Ed Hohenstein, and C. David Sherrill          
	 --------------------------------------------------------

   => Auxiliary Basis Set <=

  Basis Set: (AUG-CC-PVTZ AUX)
    Blend: AUG-CC-PVTZ-RI + DEF2-QZVPP-RI
    Number of shells: 251
    Number of basis functions: 893
    Number of Cartesian functions: 1114
    Spherical Harmonics?: true
    Max angular momentum: 4

	 --------------------------------------------------------
	                 NBF =   414, NAUX =   893
	 --------------------------------------------------------
	   CLASS    FOCC     OCC    AOCC    AVIR     VIR    FVIR
	   PAIRS       0       1       1     413     413       0
	 --------------------------------------------------------

	-----------------------------------------------------------
	 ==================> DF-MP2 Energies <==================== 
	-----------------------------------------------------------
	 Reference Energy          =      -7.2363849409957659 [Eh]
	 Singles Energy            =      -0.0000000000000000 [Eh]
	 Same-Spin Energy          =       0.0000000000000000 [Eh]
	 Opposite-Spin Energy      =      -0.0172451591953398 [Eh]
	 Correlation Energy        =      -0.0172451591953398 [Eh]
	 Total Energy              =      -7.2536301001911054 [Eh]
	-----------------------------------------------------------
	 ================> DF-SCS-MP2 Energies <================== 
	-----------------------------------------------------------
	 SCS Same-Spin Scale       =       0.3333333333333333 [-]
	 SCS Opposite-Spin Scale   =       1.2000000000000000 [-]
	 SCS Same-Spin Energy      =       0.0000000000000000 [Eh]
	 SCS Opposite-Spin Energy  =      -0.0206941910344077 [Eh]
	 SCS Correlation Energy    =      -0.0206941910344077 [Eh]
	 SCS Total Energy          =      -7.2570791320301735 [Eh]
	-----------------------------------------------------------


*** tstop() called on moses-razer at Sat Jan  6 17:26:51 2024
Module time:
	user time   =       6.07 seconds =       0.10 minutes
	system time =       0.31 seconds =       0.01 minutes
	total time  =          1 seconds =       0.02 minutes
Total time:
	user time   =      56.09 seconds =       0.93 minutes
	system time =       2.49 seconds =       0.04 minutes
	total time  =         11 seconds =       0.18 minutes

    Psi4 stopped on: Saturday, 06 January 2024 05:26PM
    Psi4 wall time for execution: 0:00:04.53


    -----------------------------------------------------------------------
          Psi4: An Open-Source Ab Initio Electronic Structure Package
                               Psi4 1.9 release

                         Git: Rev {} zzzzzzz 


    D. G. A. Smith, L. A. Burns, A. C. Simmonett, R. M. Parrish,
    M. C. Schieber, R. Galvelis, P. Kraus, H. Kruse, R. Di Remigio,
    A. Alenaizan, A. M. James, S. Lehtola, J. P. Misiewicz, M. Scheurer,
    R. A. Shaw, J. B. Schriber, Y. Xie, Z. L. Glick, D. A. Sirianni,
    J. S. O'Brien, J. M. Waldrop, A. Kumar, E. G. Hohenstein,
    B. P. Pritchard, B. R. Brooks, H. F. Schaefer III, A. Yu. Sokolov,
    K. Patkowski, A. E. DePrince III, U. Bozkaya, R. A. King,
    F. A. Evangelista, J. M. Turney, T. D. Crawford, C. D. Sherrill,
    J. Chem. Phys. 152(18) 184108 (2020). https://doi.org/10.1063/5.0006002

                            Additional Code Authors
    E. T. Seidl, C. L. Janssen, E. F. Valeev, M. L. Leininger,
    J. F. Gonthier, R. M. Richard, H. R. McAlexander, M. Saitow, X. Wang,
    P. Verma, M. H. Lechner, A. Jiang, S. Behnle, A. G. Heide,
    M. F. Herbst, and D. L. Poole

             Previous Authors, Complete List of Code Contributors,
                       and Citations for Specific Modules
    https://github.com/psi4/psi4/blob/master/codemeta.json
    https://github.com/psi4/psi4/graphs/contributors
    http://psicode.org/psi4manual/master/introduction.html#citing-psifour

    -----------------------------------------------------------------------


    Psi4 started on: Saturday, 06 January 2024 05:26PM

    Process ID: 547834
    Host:       moses-razer
    PSIDATADIR: /home/kchung25/anaconda3/envs/psi4_19/share/psi4
    Memory:     55.9 GiB
    Threads:    6
    
  ==> Input QCSchema <==

--------------------------------------------------------------------------
{'driver': 'energy',
 'extras': {'psiapi': True, 'wfn_qcvars_only': True},
 'id': None,
 'keywords': {'SCF_TYPE': 'DF', 'function_kwargs': {}},
 'model': {'basis': 'aug-cc-pvtz', 'method': 'mp2'},
 'molecule': {'atom_labels': ['', '', '', '', '', '', '', '', '', '', '', '', ''],
              'atomic_numbers': [3, 8, 1, 1, 8, 1, 1, 8, 1, 1, 8, 1, 1],
              'extras': {},
              'fix_com': True,
              'fix_orientation': True,
              'fix_symmetry': 'c1',
              'fragment_charges': [1.0, 0.0],
              'fragment_multiplicities': [1, 1],
              'fragments': [[0], [1, 2, 3, 4, 5, 6, 7, 8, 9, 10, 11, 12]],
              'geometry': [0.0, 0.0, 0.0, 2.3597841608087102, -2.9221893324584656, -0.12078184530863709,
                           2.9723237665668614, -4.12261328721592, -1.3225116008187827, 1.9455032817768416,
                           -3.872451342727812, 1.3683317901827587, 1.447207068933243, 1.8907919309925865,
                           2.622697977191407, 0.28600815936191687, 1.750749997013283, 3.9689974504774526,
                           3.1322342810292283, 1.2604775612983787, 2.9223631872620075, -3.1588170584360435,
                           -1.0010805252351591, 1.1318930368177262, -3.2374296652550894, -2.424467596357006,
                           2.2401871737807353, -4.166143128515841, -1.2558137172207489, -0.403516999021261,
                           -0.2791125487301212, 2.909800287979964, -2.5726240143190253, 1.2288926788374763,
                           3.7853519758793355, -3.34462626944781, -1.531847902092499, 2.8569824427734174,
                           -3.894474210993898],
              'mass_numbers': [7, 16, 1, 1, 16, 1, 1, 16, 1, 1, 16, 1, 1],
              'masses': [7.0160034366, 15.99491461957, 1.00782503223, 1.00782503223, 15.99491461957, 1.00782503223,
                         1.00782503223, 15.99491461957, 1.00782503223, 1.00782503223, 15.99491461957, 1.00782503223,
                         1.00782503223],
              'molecular_charge': 1.0,
              'molecular_multiplicity': 1,
              'name': 'dimer',
              'provenance': {'creator': 'QCElemental',
                             'routine': 'qcelemental.molparse.from_string',
                             'version': '0.27.1'},
              'real': [True, True, True, True, True, True, True, True, True, True, True, True, True],
              'schema_name': 'qcschema_molecule',
              'schema_version': 2,
              'symbols': ['Li', 'O', 'H', 'H', 'O', 'H', 'H', 'O', 'H', 'H', 'O', 'H', 'H'],
              'validated': True},
 'protocols': {'stdout': True},
 'provenance': {'creator': 'QCElemental', 'routine': 'qcelemental.models.results', 'version': '0.27.1'},
 'schema_name': 'qcschema_input',
 'schema_version': 1}
--------------------------------------------------------------------------

Scratch directory: /scratch/
   => Libint2 <=

    Primary   basis highest AM E, G, H:  5, 4, 3
    Auxiliary basis highest AM E, G, H:  6, 5, 4
    Onebody   basis highest AM E, G, H:  6, 5, 4
    Solid Harmonics ordering:            gaussian

*** tstart() called on moses-razer
*** at Sat Jan  6 17:26:52 2024

   => Loading Basis Set <=

    Name: AUG-CC-PVTZ
    Role: ORBITAL
    Keyword: BASIS
    atoms 1                     entry LI         line    85 file /home/kchung25/anaconda3/envs/p415env/share/psi4/basis/aug-cc-pvtz.gbs 
    atoms 2, 5, 8, 11           entry O          line   331 file /home/kchung25/anaconda3/envs/p415env/share/psi4/basis/aug-cc-pvtz.gbs 
    atoms 3-4, 6-7, 9-10, 12-13 entry H          line    40 file /home/kchung25/anaconda3/envs/p415env/share/psi4/basis/aug-cc-pvtz.gbs 


         ---------------------------------------------------------
                                   SCF
               by Justin Turney, Rob Parrish, Andy Simmonett
                          and Daniel G. A. Smith
                              RHF Reference
                        6 Threads,  57220 MiB Core
         ---------------------------------------------------------

  ==> Geometry <==

    Molecular point group: c1
    Full point group: C1

    Geometry (in Bohr), charge = 1, multiplicity = 1:

       Center              X                  Y                   Z               Mass       
    ------------   -----------------  -----------------  -----------------  -----------------
         LI           0.000000000000     0.000000000000     0.000000000000     7.016003436600
         O            2.359784160809    -2.922189332458    -0.120781845309    15.994914619570
         H            2.972323766567    -4.122613287216    -1.322511600819     1.007825032230
         H            1.945503281777    -3.872451342728     1.368331790183     1.007825032230
         O            1.447207068933     1.890791930993     2.622697977191    15.994914619570
         H            0.286008159362     1.750749997013     3.968997450477     1.007825032230
         H            3.132234281029     1.260477561298     2.922363187262     1.007825032230
         O           -3.158817058436    -1.001080525235     1.131893036818    15.994914619570
         H           -3.237429665255    -2.424467596357     2.240187173781     1.007825032230
         H           -4.166143128516    -1.255813717221    -0.403516999021     1.007825032230
         O           -0.279112548730     2.909800287980    -2.572624014319    15.994914619570
         H            1.228892678837     3.785351975879    -3.344626269448     1.007825032230
         H           -1.531847902092     2.856982442773    -3.894474210994     1.007825032230

  Running in c1 symmetry.

  Rotational constants: A =      0.10192  B =      0.08372  C =      0.07678 [cm^-1]
  Rotational constants: A =   3055.34628  B =   2509.90634  C =   2301.72995 [MHz]
  Nuclear repulsion =  164.325622335832207

  Charge       = 1
  Multiplicity = 1
  Electrons    = 42
  Nalpha       = 21
  Nbeta        = 21

  ==> Algorithm <==

  SCF Algorithm Type is DF.
  DIIS enabled.
  MOM disabled.
  Fractional occupation disabled.
  Guess Type is SAD.
  Energy threshold   = 1.00e-08
  Density threshold  = 1.00e-08
  Integral threshold = 1.00e-12

  ==> Primary Basis <==

  Basis Set: AUG-CC-PVTZ
    Blend: AUG-CC-PVTZ
    Number of shells: 142
    Number of basis functions: 414
    Number of Cartesian functions: 475
    Spherical Harmonics?: true
    Max angular momentum: 3

   => Loading Basis Set <=

    Name: (AUG-CC-PVTZ AUX)
    Role: JKFIT
    Keyword: DF_BASIS_SCF
    atoms 1                     entry LI         line    54 file /home/kchung25/anaconda3/envs/p415env/share/psi4/basis/def2-universal-jkfit.gbs 
    atoms 2, 5, 8, 11           entry O          line   286 file /home/kchung25/anaconda3/envs/p415env/share/psi4/basis/aug-cc-pvtz-jkfit.gbs 
    atoms 3-4, 6-7, 9-10, 12-13 entry H          line    70 file /home/kchung25/anaconda3/envs/p415env/share/psi4/basis/aug-cc-pvtz-jkfit.gbs 

  ==> Integral Setup <==

  DFHelper Memory: AOs need 1.069 GiB; user supplied 41.910 GiB. 
  Using in-core AOs.

  ==> MemDFJK: Density-Fitted J/K Matrices <==

    J tasked:                   Yes
    K tasked:                   Yes
    wK tasked:                   No
    OpenMP threads:               6
    Memory [MiB]:             42915
    Algorithm:                 Core
    Schwarz Cutoff:           1E-12
    Mask sparsity (%):       4.1576
    Fitting Condition:        1E-10

   => Auxiliary Basis Set <=

  Basis Set: (AUG-CC-PVTZ AUX)
    Blend: AUG-CC-PVTZ-JKFIT + DEF2-UNIVERSAL-JKFIT
    Number of shells: 249
    Number of basis functions: 835
    Number of Cartesian functions: 1024
    Spherical Harmonics?: true
    Max angular momentum: 4

  Minimum eigenvalue in the overlap matrix is 1.9336500269E-05.
  Reciprocal condition number of the overlap matrix is 1.3244350728E-06.
    Using symmetric orthogonalization.

  ==> Pre-Iterations <==

  SCF Guess: Superposition of Atomic Densities via on-the-fly atomic UHF (no occupation information).

   -------------------------
    Irrep   Nso     Nmo    
   -------------------------
     A        414     414 
   -------------------------
    Total     414     414
   -------------------------

  ==> Iterations <==

                           Total Energy        Delta E     RMS |[F,P]|

   @DF-RHF iter SAD:  -309.58918658478450   -3.09589e+02   0.00000e+00 
   @DF-RHF iter   1:  -311.27150288551491   -1.68232e+00   2.29794e-03 DIIS/ADIIS
   @DF-RHF iter   2:  -311.49743414928241   -2.25931e-01   1.48841e-03 DIIS/ADIIS
   @DF-RHF iter   3:  -311.61435395816778   -1.16920e-01   1.13250e-04 DIIS/ADIIS
   @DF-RHF iter   4:  -311.61605865777381   -1.70470e-03   3.05960e-05 DIIS
   @DF-RHF iter   5:  -311.61617293646555   -1.14279e-04   9.91702e-06 DIIS
   @DF-RHF iter   6:  -311.61618452968219   -1.15932e-05   3.72590e-06 DIIS
   @DF-RHF iter   7:  -311.61618617934869   -1.64967e-06   6.72869e-07 DIIS
   @DF-RHF iter   8:  -311.61618628329785   -1.03949e-07   1.30730e-07 DIIS
   @DF-RHF iter   9:  -311.61618628668873   -3.39088e-09   3.44832e-08 DIIS
   @DF-RHF iter  10:  -311.61618628682419   -1.35458e-10   1.29688e-08 DIIS
   @DF-RHF iter  11:  -311.61618628684073   -1.65414e-11   3.38047e-09 DIIS
  Energy and wave function converged.


  ==> Post-Iterations <==

    Orbital Energies [Eh]
    ---------------------

    Doubly Occupied:                                                      

       1A    -20.762858     2A    -20.758083     3A    -20.739071  
       4A    -20.733623     5A     -2.531194     6A     -1.550144  
       7A     -1.547899     8A     -1.528030     9A     -1.510418  
      10A     -0.928629    11A     -0.919911    12A     -0.913268  
      13A     -0.872828    14A     -0.795777    15A     -0.788977  
      16A     -0.770984    17A     -0.742491    18A     -0.724800  
      19A     -0.704775    20A     -0.691772    21A     -0.681645  

    Virtual:                                                              

      22A     -0.105777    23A     -0.081170    24A     -0.074947  
      25A     -0.070741    26A     -0.048465    27A     -0.046635  
      28A     -0.044507    29A     -0.041925    30A     -0.039697  
      31A     -0.033053    32A     -0.029870    33A     -0.027776  
      34A     -0.020557    35A     -0.011976    36A     -0.008416  
      37A      0.005257    38A      0.019021    39A      0.024552  
      40A      0.028330    41A      0.036578    42A      0.047052  
      43A      0.048320    44A      0.049500    45A      0.052815  
      46A      0.056899    47A      0.058284    48A      0.070887  
      49A      0.076727    50A      0.085468    51A      0.089443  
      52A      0.092615    53A      0.098350    54A      0.108165  
      55A      0.113951    56A      0.121081    57A      0.127948  
      58A      0.138645    59A      0.154180    60A      0.161604  
      61A      0.170129    62A      0.180931    63A      0.187210  
      64A      0.194391    65A      0.200378    66A      0.201904  
      67A      0.203653    68A      0.215611    69A      0.228296  
      70A      0.232711    71A      0.237641    72A      0.245147  
      73A      0.255552    74A      0.262023    75A      0.267459  
      76A      0.269810    77A      0.279229    78A      0.287969  
      79A      0.291565    80A      0.294962    81A      0.301038  
      82A      0.303452    83A      0.308001    84A      0.321516  
      85A      0.322713    86A      0.327864    87A      0.334440  
      88A      0.342736    89A      0.343895    90A      0.355316  
      91A      0.360378    92A      0.363477    93A      0.366959  
      94A      0.370972    95A      0.380374    96A      0.383342  
      97A      0.387273    98A      0.397751    99A      0.411287  
     100A      0.417185   101A      0.418100   102A      0.422055  
     103A      0.435483   104A      0.441234   105A      0.465565  
     106A      0.487863   107A      0.500069   108A      0.521874  
     109A      0.530863   110A      0.565664   111A      0.575949  
     112A      0.587589   113A      0.601473   114A      0.606788  
     115A      0.607506   116A      0.624970   117A      0.631926  
     118A      0.643919   119A      0.652914   120A      0.656515  
     121A      0.667730   122A      0.691745   123A      0.696763  
     124A      0.701204   125A      0.704304   126A      0.724719  
     127A      0.735558   128A      0.748178   129A      0.758770  
     130A      0.772261   131A      0.776087   132A      0.782805  
     133A      0.788778   134A      0.801683   135A      0.802504  
     136A      0.814529   137A      0.827337   138A      0.831250  
     139A      0.837941   140A      0.840814   141A      0.852491  
     142A      0.859785   143A      0.869126   144A      0.878825  
     145A      0.885477   146A      0.895177   147A      0.907652  
     148A      0.908847   149A      0.912744   150A      0.926587  
     151A      0.938743   152A      0.940847   153A      0.949683  
     154A      0.956975   155A      0.961706   156A      0.973125  
     157A      0.980114   158A      0.985480   159A      0.990200  
     160A      0.996515   161A      1.016570   162A      1.028850  
     163A      1.031879   164A      1.035743   165A      1.049229  
     166A      1.054666   167A      1.064980   168A      1.085539  
     169A      1.093181   170A      1.096958   171A      1.102284  
     172A      1.112750   173A      1.134592   174A      1.145584  
     175A      1.156160   176A      1.168111   177A      1.174301  
     178A      1.184858   179A      1.193771   180A      1.225041  
     181A      1.229242   182A      1.247729   183A      1.256174  
     184A      1.279886   185A      1.288981   186A      1.292813  
     187A      1.318902   188A      1.332322   189A      1.348050  
     190A      1.386457   191A      1.390196   192A      1.418272  
     193A      1.424807   194A      1.437711   195A      1.460266  
     196A      1.469540   197A      1.511507   198A      1.534330  
     199A      1.541570   200A      1.571995   201A      1.575883  
     202A      1.587296   203A      1.597173   204A      1.612546  
     205A      1.631411   206A      1.636461   207A      1.650835  
     208A      1.680448   209A      1.698832   210A      1.710950  
     211A      1.719968   212A      1.741159   213A      1.754358  
     214A      1.774783   215A      1.781701   216A      1.843791  
     217A      1.853480   218A      1.879725   219A      1.883800  
     220A      1.900262   221A      1.911875   222A      1.924477  
     223A      1.962232   224A      1.973664   225A      1.992758  
     226A      2.016231   227A      2.055292   228A      2.082747  
     229A      2.110247   230A      2.188512   231A      2.197663  
     232A      2.217119   233A      2.243092   234A      2.259653  
     235A      2.267318   236A      2.276714   237A      2.281894  
     238A      2.296954   239A      2.340623   240A      2.348917  
     241A      2.385278   242A      2.393419   243A      2.413074  
     244A      2.431854   245A      2.449287   246A      2.470327  
     247A      2.499626   248A      2.518223   249A      2.527031  
     250A      2.532826   251A      2.548600   252A      2.580707  
     253A      2.591218   254A      2.604883   255A      2.616111  
     256A      2.631267   257A      2.643908   258A      2.651414  
     259A      2.669145   260A      2.670242   261A      2.686579  
     262A      2.694069   263A      2.710056   264A      2.733723  
     265A      2.747029   266A      2.761058   267A      2.788858  
     268A      2.800134   269A      2.823520   270A      2.843670  
     271A      2.860256   272A      2.873072   273A      2.890394  
     274A      2.918692   275A      2.952176   276A      2.987623  
     277A      3.025990   278A      3.648176   279A      3.655671  
     280A      3.688302   281A      3.748350   282A      3.756784  
     283A      3.804548   284A      3.824908   285A      3.868641  
     286A      3.930512   287A      3.934574   288A      3.973632  
     289A      3.997269   290A      4.065688   291A      4.088712  
     292A      4.097890   293A      4.115186   294A      4.135928  
     295A      4.149150   296A      4.173167   297A      4.188289  
     298A      4.206814   299A      4.210018   300A      4.217365  
     301A      4.263154   302A      4.288461   303A      4.307539  
     304A      4.316602   305A      4.343519   306A      4.359750  
     307A      4.372655   308A      4.385774   309A      4.411546  
     310A      4.420845   311A      4.432954   312A      4.435606  
     313A      4.452192   314A      4.480833   315A      4.506697  
     316A      4.513893   317A      4.524945   318A      4.532959  
     319A      4.559152   320A      4.577646   321A      4.600884  
     322A      4.629218   323A      4.637452   324A      4.661929  
     325A      4.669043   326A      4.697737   327A      4.717080  
     328A      4.722492   329A      4.754965   330A      4.907353  
     331A      4.958600   332A      4.981823   333A      5.011516  
     334A      5.035319   335A      5.054713   336A      5.069023  
     337A      5.106717   338A      5.129701   339A      5.163722  
     340A      5.175430   341A      5.231878   342A      5.255943  
     343A      5.271543   344A      5.287915   345A      5.304537  
     346A      5.325130   347A      5.361858   348A      5.388711  
     349A      5.468635   350A      5.519565   351A      5.661247  
     352A      5.719801   353A      5.754930   354A      5.836751  
     355A      6.035212   356A      6.076912   357A      6.159122  
     358A      6.191440   359A      6.470866   360A      6.480796  
     361A      6.506939   362A      6.546750   363A      6.635897  
     364A      6.638762   365A      6.668978   366A      6.686705  
     367A      6.743130   368A      6.768037   369A      6.804714  
     370A      6.818797   371A      6.981126   372A      7.025624  
     373A      7.045057   374A      7.103526   375A      7.120271  
     376A      7.128328   377A      7.144152   378A      7.159125  
     379A      7.173936   380A      7.187096   381A      7.199117  
     382A      7.204177   383A      7.209594   384A      7.228437  
     385A      7.243344   386A      7.248079   387A      7.256371  
     388A      7.268323   389A      7.281971   390A      7.312788  
     391A      7.334208   392A      7.344910   393A      7.391983  
     394A      7.442152   395A      7.493859   396A      7.532959  
     397A      7.560000   398A      7.650181   399A      7.701217  
     400A      7.735731   401A      7.737708   402A      7.782558  
     403A      7.813923   404A      7.816404   405A      7.884152  
     406A      7.957373   407A      8.574915   408A      8.645828  
     409A      8.704578   410A      8.758243   411A     15.309287  
     412A     15.926121   413A     16.177397   414A     16.529219  

    Final Occupation by Irrep:
              A 
    DOCC [    21 ]
    NA   [    21 ]
    NB   [    21 ]

  @DF-RHF Final Energy:  -311.61618628684073

   => Energetics <=

    Nuclear Repulsion Energy =            164.3256223358322075
    One-Electron Energy =                -749.4892645272725531
    Two-Electron Energy =                 273.5474559045995875
    Total Energy =                       -311.6161862868407297

Computation Completed


Properties will be evaluated at   0.000000,   0.000000,   0.000000 [a0]

Properties computed using the SCF density matrix


 Multipole Moments:

 ------------------------------------------------------------------------------------
     Multipole            Electronic (a.u.)      Nuclear  (a.u.)        Total (a.u.)
 ------------------------------------------------------------------------------------

 L = 1.  Multiply by 2.5417464519 to convert [e a0] to [Debye]
 Dipole X            :         -3.6129364            3.5820345           -0.0309019
 Dipole Y            :         -6.3275905            4.9967949           -1.3307956
 Dipole Z            :        -10.1516373           10.0242318           -0.1274055
 Magnitude           :                                                    1.3372374

 ------------------------------------------------------------------------------------

*** tstop() called on moses-razer at Sat Jan  6 17:26:56 2024
Module time:
	user time   =      24.71 seconds =       0.41 minutes
	system time =       0.65 seconds =       0.01 minutes
	total time  =          4 seconds =       0.07 minutes
Total time:
	user time   =      81.20 seconds =       1.35 minutes
	system time =       3.15 seconds =       0.05 minutes
	total time  =         16 seconds =       0.27 minutes

*** tstart() called on moses-razer
*** at Sat Jan  6 17:26:56 2024


  //>>>>>>>>>>>>>>>>>>>>>>>>>>>>>>>>>>>//
  //               DFMP2               //
  //<<<<<<<<<<<<<<<<<<<<<<<<<<<<<<<<<<<//

   => Loading Basis Set <=

    Name: (AUG-CC-PVTZ AUX)
    Role: RIFIT
    Keyword: DF_BASIS_MP2
    atoms 1                     entry LI         line    90 file /home/kchung25/anaconda3/envs/p415env/share/psi4/basis/def2-qzvpp-ri.gbs 
    atoms 2, 5, 8, 11           entry O          line   264 file /home/kchung25/anaconda3/envs/p415env/share/psi4/basis/aug-cc-pvtz-ri.gbs 
    atoms 3-4, 6-7, 9-10, 12-13 entry H          line    30 file /home/kchung25/anaconda3/envs/p415env/share/psi4/basis/aug-cc-pvtz-ri.gbs 

	 --------------------------------------------------------
	                          DF-MP2                         
	      2nd-Order Density-Fitted Moller-Plesset Theory     
	              RMP2 Wavefunction,   6 Threads             
	                                                         
	        Rob Parrish, Justin Turney, Andy Simmonett,      
	           Ed Hohenstein, and C. David Sherrill          
	 --------------------------------------------------------

   => Auxiliary Basis Set <=

  Basis Set: (AUG-CC-PVTZ AUX)
    Blend: AUG-CC-PVTZ-RI + DEF2-QZVPP-RI
    Number of shells: 251
    Number of basis functions: 893
    Number of Cartesian functions: 1114
    Spherical Harmonics?: true
    Max angular momentum: 4

	 --------------------------------------------------------
	                 NBF =   414, NAUX =   893
	 --------------------------------------------------------
	   CLASS    FOCC     OCC    AOCC    AVIR     VIR    FVIR
	   PAIRS       0      21      21     393     393       0
	 --------------------------------------------------------

	-----------------------------------------------------------
	 ==================> DF-MP2 Energies <==================== 
	-----------------------------------------------------------
	 Reference Energy          =    -311.6161862868407297 [Eh]
	 Singles Energy            =      -0.0000000000000000 [Eh]
	 Same-Spin Energy          =      -0.2759614190529051 [Eh]
	 Opposite-Spin Energy      =      -0.8792650771061199 [Eh]
	 Correlation Energy        =      -1.1552264961590251 [Eh]
	 Total Energy              =    -312.7714127829997324 [Eh]
	-----------------------------------------------------------
	 ================> DF-SCS-MP2 Energies <================== 
	-----------------------------------------------------------
	 SCS Same-Spin Scale       =       0.3333333333333333 [-]
	 SCS Opposite-Spin Scale   =       1.2000000000000000 [-]
	 SCS Same-Spin Energy      =      -0.0919871396843017 [Eh]
	 SCS Opposite-Spin Energy  =      -1.0551180925273438 [Eh]
	 SCS Correlation Energy    =      -1.1471052322116455 [Eh]
	 SCS Total Energy          =    -312.7632915190523590 [Eh]
	-----------------------------------------------------------


*** tstop() called on moses-razer at Sat Jan  6 17:26:58 2024
Module time:
	user time   =       9.33 seconds =       0.16 minutes
	system time =       0.48 seconds =       0.01 minutes
	total time  =          2 seconds =       0.03 minutes
Total time:
	user time   =      90.53 seconds =       1.51 minutes
	system time =       3.63 seconds =       0.06 minutes
	total time  =         18 seconds =       0.30 minutes

    Psi4 stopped on: Saturday, 06 January 2024 05:26PM
    Psi4 wall time for execution: 0:00:06.57


  //>>>>>>>>>>>>>>>>>>>>>>>>>>>>>>>>>>>//
  //          ManyBody Results         //
  //<<<<<<<<<<<<<<<<<<<<<<<<<<<<<<<<<<<//


   ==> N-Body: Counterpoise Corrected (CP) energies <==

        n-Body     Total Energy            Interaction Energy                          N-body Contribution to Interaction Energy
                   [Eh]                    [Eh]                  [kcal/mol]            [Eh]                  [kcal/mol]
             1  N/A                         0.000000000000        0.000000000000        0.000000000000        0.000000000000
  FULL/RTN   2  N/A                        -0.160237420943     -100.550499695424       -0.160237420943     -100.550499695424


    Psi4 stopped on: Saturday, 06 January 2024 05:26PM
    Psi4 wall time for execution: 0:00:19.42

*** Psi4 exiting successfully. Buy a developer a beer!
