
    -----------------------------------------------------------------------
          Psi4: An Open-Source Ab Initio Electronic Structure Package
                               Psi4 1.8.2 release

                         Git: Rev {} zzzzzzz 


    D. G. A. Smith, L. A. Burns, A. C. Simmonett, R. M. Parrish,
    M. C. Schieber, R. Galvelis, P. Kraus, H. Kruse, R. Di Remigio,
    A. Alenaizan, A. M. James, S. Lehtola, J. P. Misiewicz, M. Scheurer,
    R. A. Shaw, J. B. Schriber, Y. Xie, Z. L. Glick, D. A. Sirianni,
    J. S. O'Brien, J. M. Waldrop, A. Kumar, E. G. Hohenstein,
    B. P. Pritchard, B. R. Brooks, H. F. Schaefer III, A. Yu. Sokolov,
    K. Patkowski, A. E. DePrince III, U. Bozkaya, R. A. King,
    F. A. Evangelista, J. M. Turney, T. D. Crawford, C. D. Sherrill,
    J. Chem. Phys. 152(18) 184108 (2020). https://doi.org/10.1063/5.0006002

                            Additional Code Authors
    E. T. Seidl, C. L. Janssen, E. F. Valeev, M. L. Leininger,
    J. F. Gonthier, R. M. Richard, H. R. McAlexander, M. Saitow, X. Wang,
    P. Verma, M. H. Lechner, A. Jiang, S. Behnle, A. G. Heide,
    M. F. Herbst, and D. L. Poole

             Previous Authors, Complete List of Code Contributors,
                       and Citations for Specific Modules
    https://github.com/psi4/psi4/blob/master/codemeta.json
    https://github.com/psi4/psi4/graphs/contributors
    http://psicode.org/psi4manual/master/introduction.html#citing-psifour

    -----------------------------------------------------------------------


    Psi4 started on: Monday, 22 January 2024 01:39PM

    Process ID: 60782
    Host:       ddmfs1
    PSIDATADIR: /ddmfs1b/softs/psi4conda/share/psi4
    Memory:     500.0 MiB
    Threads:    20
    
  ==> Input File <==

--------------------------------------------------------------------------
MEMORY 60 GB

molecule dimer {
1 1
Li         0.000000     0.000000     0.000000
O          1.401258    -0.552767    -1.148847
H          2.222717    -0.099344    -1.190559
H          1.562451    -1.490832    -1.304563
O         -0.330704     1.780111     0.510752
H         -0.929458     1.795993     1.257868
H         -0.397182     2.647959     0.120718
O          0.494746    -0.773349     1.790483
H          1.287530    -0.312464     2.047423
H         -0.132202    -0.417194     2.419929
O         -1.664275    -0.879300    -0.710838
H         -2.365985    -1.429029    -0.223341
H         -2.197362    -0.354210    -1.323729

units ang
no_reorient
no_com
symmetry c1
}

set {
basis        aug-cc-pVTZ
scf_type     df
}

energy("mp2")
--------------------------------------------------------------------------

  Memory set to  55.879 GiB by Python driver.

Scratch directory: /ddmfs1a/scratch/
   => Libint2 <=

    Primary   basis highest AM E, G, H:  5, 4, 3
    Auxiliary basis highest AM E, G, H:  6, 5, 4
    Onebody   basis highest AM E, G, H:  6, 5, 4
    Solid Harmonics ordering:            gaussian

*** tstart() called on ddmfs1
*** at Mon Jan 22 13:39:27 2024

   => Loading Basis Set <=

    Name: AUG-CC-PVTZ
    Role: ORBITAL
    Keyword: BASIS
    atoms 1                     entry LI         line    85 file /ddmfs1b/softs/psi4conda/share/psi4/basis/aug-cc-pvtz.gbs 
    atoms 2, 5, 8, 11           entry O          line   331 file /ddmfs1b/softs/psi4conda/share/psi4/basis/aug-cc-pvtz.gbs 
    atoms 3-4, 6-7, 9-10, 12-13 entry H          line    40 file /ddmfs1b/softs/psi4conda/share/psi4/basis/aug-cc-pvtz.gbs 


         ---------------------------------------------------------
                                   SCF
               by Justin Turney, Rob Parrish, Andy Simmonett
                          and Daniel G. A. Smith
                              RHF Reference
                       20 Threads,  57220 MiB Core
         ---------------------------------------------------------

  ==> Geometry <==

    Molecular point group: c1
    Full point group: C1

    Geometry (in Angstrom), charge = 1, multiplicity = 1:

       Center              X                  Y                   Z               Mass       
    ------------   -----------------  -----------------  -----------------  -----------------
         LI           0.000000000000     0.000000000000     0.000000000000     7.016003436600
         O            1.401258000000    -0.552767000000    -1.148847000000    15.994914619570
         H            2.222717000000    -0.099344000000    -1.190559000000     1.007825032230
         H            1.562451000000    -1.490832000000    -1.304563000000     1.007825032230
         O           -0.330704000000     1.780111000000     0.510752000000    15.994914619570
         H           -0.929458000000     1.795993000000     1.257868000000     1.007825032230
         H           -0.397182000000     2.647959000000     0.120718000000     1.007825032230
         O            0.494746000000    -0.773349000000     1.790483000000    15.994914619570
         H            1.287530000000    -0.312464000000     2.047423000000     1.007825032230
         H           -0.132202000000    -0.417194000000     2.419929000000     1.007825032230
         O           -1.664275000000    -0.879300000000    -0.710838000000    15.994914619570
         H           -2.365985000000    -1.429029000000    -0.223341000000     1.007825032230
         H           -2.197362000000    -0.354210000000    -1.323729000000     1.007825032230

  Running in c1 symmetry.

  Rotational constants: A =      0.09261  B =      0.08800  C =      0.07725 [cm^-1]
  Rotational constants: A =   2776.34451  B =   2638.11395  C =   2315.94857 [MHz]
  Nuclear repulsion =  163.223939901900309

  Charge       = 1
  Multiplicity = 1
  Electrons    = 42
  Nalpha       = 21
  Nbeta        = 21

  ==> Algorithm <==

  SCF Algorithm Type is DF.
  DIIS enabled.
  MOM disabled.
  Fractional occupation disabled.
  Guess Type is SAD.
  Energy threshold   = 1.00e-08
  Density threshold  = 1.00e-08
  Integral threshold = 1.00e-12

  ==> Primary Basis <==

  Basis Set: AUG-CC-PVTZ
    Blend: AUG-CC-PVTZ
    Number of shells: 142
    Number of basis functions: 414
    Number of Cartesian functions: 475
    Spherical Harmonics?: true
    Max angular momentum: 3

   => Loading Basis Set <=

    Name: (AUG-CC-PVTZ AUX)
    Role: JKFIT
    Keyword: DF_BASIS_SCF
    atoms 1                     entry LI         line    54 file /ddmfs1b/softs/psi4conda/share/psi4/basis/def2-universal-jkfit.gbs 
    atoms 2, 5, 8, 11           entry O          line   286 file /ddmfs1b/softs/psi4conda/share/psi4/basis/aug-cc-pvtz-jkfit.gbs 
    atoms 3-4, 6-7, 9-10, 12-13 entry H          line    70 file /ddmfs1b/softs/psi4conda/share/psi4/basis/aug-cc-pvtz-jkfit.gbs 

  ==> Integral Setup <==

  DFHelper Memory: AOs need 1.085 GiB; user supplied 41.910 GiB. 
  Using in-core AOs.

  ==> MemDFJK: Density-Fitted J/K Matrices <==

    J tasked:                   Yes
    K tasked:                   Yes
    wK tasked:                   No
    OpenMP threads:              20
    Memory [MiB]:             42915
    Algorithm:                 Core
    Schwarz Cutoff:           1E-12
    Mask sparsity (%):       4.3922
    Fitting Condition:        1E-10

   => Auxiliary Basis Set <=

  Basis Set: (AUG-CC-PVTZ AUX)
    Blend: AUG-CC-PVTZ-JKFIT + DEF2-UNIVERSAL-JKFIT
    Number of shells: 249
    Number of basis functions: 835
    Number of Cartesian functions: 1024
    Spherical Harmonics?: true
    Max angular momentum: 4

  Minimum eigenvalue in the overlap matrix is 1.3142004992E-05.
  Reciprocal condition number of the overlap matrix is 9.1267334993E-07.
    Using symmetric orthogonalization.

  ==> Pre-Iterations <==

  SCF Guess: Superposition of Atomic Densities via on-the-fly atomic UHF (no occupation information).

   -------------------------
    Irrep   Nso     Nmo    
   -------------------------
     A        414     414 
   -------------------------
    Total     414     414
   -------------------------

  ==> Iterations <==

                           Total Energy        Delta E     RMS |[F,P]|

   @DF-RHF iter SAD:  -309.60600502797467   -3.09606e+02   0.00000e+00 
   @DF-RHF iter   1:  -311.27842252977700   -1.67242e+00   2.30528e-03 DIIS/ADIIS
   @DF-RHF iter   2:  -311.50632031864484   -2.27898e-01   1.49658e-03 DIIS/ADIIS
   @DF-RHF iter   3:  -311.62444178071138   -1.18121e-01   1.13414e-04 DIIS/ADIIS
   @DF-RHF iter   4:  -311.62611115676413   -1.66938e-03   3.06152e-05 DIIS
   @DF-RHF iter   5:  -311.62622307332128   -1.11917e-04   9.97875e-06 DIIS
   @DF-RHF iter   6:  -311.62623427814975   -1.12048e-05   3.70992e-06 DIIS
   @DF-RHF iter   7:  -311.62623589729571   -1.61915e-06   6.52564e-07 DIIS
   @DF-RHF iter   8:  -311.62623599180233   -9.45066e-08   1.18523e-07 DIIS
   @DF-RHF iter   9:  -311.62623599447159   -2.66925e-09   2.66520e-08 DIIS
   @DF-RHF iter  10:  -311.62623599455867   -8.70841e-11   1.02819e-08 DIIS
   @DF-RHF iter  11:  -311.62623599456765   -8.98126e-12   2.89634e-09 DIIS
  Energy and wave function converged.


  ==> Post-Iterations <==

    Orbital Energies [Eh]
    ---------------------

    Doubly Occupied:                                                      

       1A    -20.761091     2A    -20.746563     3A    -20.746393  
       4A    -20.739695     5A     -2.529907     6A     -1.555597  
       7A     -1.541077     8A     -1.534988     9A     -1.516379  
      10A     -0.919893    11A     -0.906401    12A     -0.892105  
      13A     -0.871214    14A     -0.807462    15A     -0.790037  
      16A     -0.778370    17A     -0.769841    18A     -0.718165  
      19A     -0.702448    20A     -0.691005    21A     -0.686170  

    Virtual:                                                              

      22A     -0.102266    23A     -0.077568    24A     -0.074605  
      25A     -0.072194    26A     -0.048453    27A     -0.044965  
      28A     -0.042560    29A     -0.041103    30A     -0.039899  
      31A     -0.031701    32A     -0.030796    33A     -0.026119  
      34A     -0.024174    35A     -0.010363    36A     -0.009266  
      37A      0.000805    38A      0.023757    39A      0.026674  
      40A      0.032206    41A      0.039132    42A      0.048098  
      43A      0.049294    44A      0.052148    45A      0.055381  
      46A      0.061675    47A      0.063792    48A      0.071338  
      49A      0.075297    50A      0.077168    51A      0.090283  
      52A      0.097324    53A      0.103245    54A      0.105263  
      55A      0.117209    56A      0.123837    57A      0.131368  
      58A      0.136538    59A      0.149347    60A      0.168497  
      61A      0.171598    62A      0.183708    63A      0.189730  
      64A      0.195032    65A      0.202041    66A      0.206359  
      67A      0.208724    68A      0.221048    69A      0.225767  
      70A      0.230974    71A      0.242251    72A      0.250926  
      73A      0.256801    74A      0.263963    75A      0.267506  
      76A      0.267569    77A      0.273556    78A      0.285740  
      79A      0.286766    80A      0.293339    81A      0.300643  
      82A      0.306963    83A      0.314856    84A      0.317369  
      85A      0.320933    86A      0.332010    87A      0.335384  
      88A      0.343745    89A      0.346716    90A      0.350967  
      91A      0.353281    92A      0.362964    93A      0.363991  
      94A      0.367874    95A      0.370427    96A      0.377386  
      97A      0.396079    98A      0.396755    99A      0.404969  
     100A      0.410867   101A      0.416461   102A      0.438425  
     103A      0.453223   104A      0.459198   105A      0.478574  
     106A      0.487500   107A      0.517968   108A      0.529376  
     109A      0.540791   110A      0.561344   111A      0.572218  
     112A      0.581534   113A      0.595945   114A      0.606269  
     115A      0.609851   116A      0.623700   117A      0.630356  
     118A      0.633522   119A      0.640456   120A      0.651839  
     121A      0.661753   122A      0.674108   123A      0.681155  
     124A      0.691800   125A      0.700818   126A      0.721650  
     127A      0.733989   128A      0.750913   129A      0.753619  
     130A      0.781805   131A      0.786282   132A      0.795959  
     133A      0.798706   134A      0.808456   135A      0.816500  
     136A      0.823651   137A      0.826983   138A      0.829410  
     139A      0.841293   140A      0.851295   141A      0.852340  
     142A      0.860670   143A      0.875131   144A      0.877390  
     145A      0.884159   146A      0.891669   147A      0.899240  
     148A      0.904553   149A      0.914711   150A      0.924013  
     151A      0.931305   152A      0.945176   153A      0.951571  
     154A      0.957703   155A      0.966156   156A      0.973721  
     157A      0.982495   158A      0.988818   159A      0.992550  
     160A      0.999792   161A      1.004917   162A      1.024024  
     163A      1.028008   164A      1.035715   165A      1.039058  
     166A      1.047121   167A      1.053425   168A      1.081316  
     169A      1.091967   170A      1.096172   171A      1.100916  
     172A      1.116668   173A      1.135184   174A      1.147181  
     175A      1.157355   176A      1.166652   177A      1.185365  
     178A      1.188969   179A      1.200739   180A      1.209998  
     181A      1.220375   182A      1.234112   183A      1.260603  
     184A      1.276652   185A      1.288611   186A      1.304281  
     187A      1.331990   188A      1.338254   189A      1.356317  
     190A      1.367080   191A      1.380165   192A      1.408569  
     193A      1.416314   194A      1.445885   195A      1.458061  
     196A      1.461536   197A      1.486635   198A      1.516280  
     199A      1.527155   200A      1.553246   201A      1.581051  
     202A      1.597452   203A      1.605698   204A      1.616097  
     205A      1.639475   206A      1.658757   207A      1.672999  
     208A      1.689677   209A      1.698072   210A      1.699909  
     211A      1.717872   212A      1.724873   213A      1.741374  
     214A      1.766414   215A      1.777453   216A      1.792142  
     217A      1.841595   218A      1.855516   219A      1.868953  
     220A      1.903452   221A      1.922906   222A      1.924227  
     223A      1.954093   224A      1.964619   225A      1.995500  
     226A      2.030050   227A      2.070244   228A      2.087332  
     229A      2.103343   230A      2.175865   231A      2.207314  
     232A      2.218143   233A      2.235766   234A      2.251914  
     235A      2.263927   236A      2.288042   237A      2.312295  
     238A      2.322420   239A      2.342165   240A      2.364364  
     241A      2.375242   242A      2.396571   243A      2.412153  
     244A      2.435226   245A      2.444929   246A      2.463863  
     247A      2.468798   248A      2.495539   249A      2.502361  
     250A      2.520864   251A      2.541955   252A      2.550150  
     253A      2.571086   254A      2.579755   255A      2.594586  
     256A      2.628090   257A      2.645195   258A      2.653731  
     259A      2.672185   260A      2.673767   261A      2.688293  
     262A      2.693339   263A      2.714992   264A      2.726474  
     265A      2.732000   266A      2.760766   267A      2.767777  
     268A      2.794436   269A      2.814361   270A      2.815325  
     271A      2.826133   272A      2.871430   273A      2.901801  
     274A      2.928890   275A      2.993211   276A      3.026781  
     277A      3.051695   278A      3.644162   279A      3.667914  
     280A      3.689983   281A      3.727854   282A      3.745540  
     283A      3.806240   284A      3.816644   285A      3.858782  
     286A      3.922063   287A      3.941814   288A      3.957047  
     289A      4.005133   290A      4.042136   291A      4.084351  
     292A      4.103473   293A      4.122214   294A      4.134597  
     295A      4.145157   296A      4.151919   297A      4.167080  
     298A      4.189965   299A      4.210691   300A      4.225032  
     301A      4.242151   302A      4.253478   303A      4.313670  
     304A      4.323818   305A      4.338929   306A      4.356308  
     307A      4.372241   308A      4.383304   309A      4.396693  
     310A      4.414185   311A      4.421109   312A      4.433127  
     313A      4.442253   314A      4.447487   315A      4.467604  
     316A      4.493532   317A      4.504080   318A      4.533074  
     319A      4.545757   320A      4.564057   321A      4.568182  
     322A      4.645306   323A      4.698269   324A      4.706929  
     325A      4.714039   326A      4.741997   327A      4.759914  
     328A      4.799371   329A      4.850406   330A      4.916662  
     331A      4.952450   332A      4.992249   333A      5.036914  
     334A      5.048418   335A      5.068868   336A      5.080321  
     337A      5.101186   338A      5.101716   339A      5.119606  
     340A      5.155853   341A      5.193269   342A      5.222871  
     343A      5.260700   344A      5.281257   345A      5.314774  
     346A      5.357641   347A      5.408011   348A      5.412922  
     349A      5.446518   350A      5.537121   351A      5.636907  
     352A      5.672107   353A      5.755227   354A      5.795761  
     355A      6.136216   356A      6.170489   357A      6.253617  
     358A      6.257631   359A      6.429920   360A      6.464399  
     361A      6.482396   362A      6.499918   363A      6.615596  
     364A      6.644932   365A      6.661862   366A      6.707823  
     367A      6.784365   368A      6.805234   369A      6.873007  
     370A      6.920979   371A      6.960312   372A      7.029527  
     373A      7.049318   374A      7.083885   375A      7.105032  
     376A      7.116720   377A      7.152055   378A      7.157476  
     379A      7.166480   380A      7.180709   381A      7.200431  
     382A      7.208887   383A      7.217875   384A      7.230960  
     385A      7.240464   386A      7.253402   387A      7.258343  
     388A      7.272297   389A      7.283984   390A      7.293272  
     391A      7.314526   392A      7.345148   393A      7.382716  
     394A      7.390718   395A      7.477532   396A      7.526833  
     397A      7.533036   398A      7.655114   399A      7.691024  
     400A      7.733366   401A      7.757790   402A      7.784071  
     403A      7.812686   404A      7.843100   405A      7.866130  
     406A      7.922631   407A      8.573837   408A      8.735345  
     409A      8.776251   410A      8.821664   411A     15.188778  
     412A     16.158487   413A     16.354655   414A     16.444735  

    Final Occupation by Irrep:
              A 
    DOCC [    21 ]
    NA   [    21 ]
    NB   [    21 ]

  @DF-RHF Final Energy:  -311.62623599456765

   => Energetics <=

    Nuclear Repulsion Energy =            163.2239399019003088
    One-Electron Energy =                -747.2907459691286931
    Two-Electron Energy =                 272.4405700726607620
    Total Energy =                       -311.6262359945676508

Computation Completed


Properties will be evaluated at   0.000000,   0.000000,   0.000000 [a0]

Properties computed using the SCF density matrix


 Multipole Moments:

 ------------------------------------------------------------------------------------
     Multipole            Electronic (a.u.)      Nuclear  (a.u.)        Total (a.u.)
 ------------------------------------------------------------------------------------

 L = 1.  Multiply by 2.5417464519 to convert [e a0] to [Debye]
 Dipole X            :          2.7989421           -3.2905631           -0.4916210
 Dipole Y            :          6.5599010           -5.7855118            0.7743891
 Dipole Z            :         -9.4630920           10.0838545            0.6207625
 Magnitude           :                                                    1.1075721

 ------------------------------------------------------------------------------------

*** tstop() called on ddmfs1 at Mon Jan 22 13:39:31 2024
Module time:
	user time   =      73.01 seconds =       1.22 minutes
	system time =       3.76 seconds =       0.06 minutes
	total time  =          4 seconds =       0.07 minutes
Total time:
	user time   =      73.01 seconds =       1.22 minutes
	system time =       3.76 seconds =       0.06 minutes
	total time  =          4 seconds =       0.07 minutes

*** tstart() called on ddmfs1
*** at Mon Jan 22 13:39:31 2024


  //>>>>>>>>>>>>>>>>>>>>>>>>>>>>>>>>>>>//
  //               DFMP2               //
  //<<<<<<<<<<<<<<<<<<<<<<<<<<<<<<<<<<<//

   => Loading Basis Set <=

    Name: (AUG-CC-PVTZ AUX)
    Role: RIFIT
    Keyword: DF_BASIS_MP2
    atoms 1                     entry LI         line    90 file /ddmfs1b/softs/psi4conda/share/psi4/basis/def2-qzvpp-ri.gbs 
    atoms 2, 5, 8, 11           entry O          line   264 file /ddmfs1b/softs/psi4conda/share/psi4/basis/aug-cc-pvtz-ri.gbs 
    atoms 3-4, 6-7, 9-10, 12-13 entry H          line    30 file /ddmfs1b/softs/psi4conda/share/psi4/basis/aug-cc-pvtz-ri.gbs 

	 --------------------------------------------------------
	                          DF-MP2                         
	      2nd-Order Density-Fitted Moller-Plesset Theory     
	              RMP2 Wavefunction,  20 Threads             
	                                                         
	        Rob Parrish, Justin Turney, Andy Simmonett,      
	           Ed Hohenstein, and C. David Sherrill          
	 --------------------------------------------------------

   => Auxiliary Basis Set <=

  Basis Set: (AUG-CC-PVTZ AUX)
    Blend: AUG-CC-PVTZ-RI + DEF2-QZVPP-RI
    Number of shells: 251
    Number of basis functions: 893
    Number of Cartesian functions: 1114
    Spherical Harmonics?: true
    Max angular momentum: 4

	 --------------------------------------------------------
	                 NBF =   414, NAUX =   893
	 --------------------------------------------------------
	   CLASS    FOCC     OCC    AOCC    AVIR     VIR    FVIR
	   PAIRS       0      21      21     393     393       0
	 --------------------------------------------------------

	-----------------------------------------------------------
	 ==================> DF-MP2 Energies <==================== 
	-----------------------------------------------------------
	 Reference Energy          =    -311.6262359945676508 [Eh]
	 Singles Energy            =      -0.0000000000000000 [Eh]
	 Same-Spin Energy          =      -0.2755326474643955 [Eh]
	 Opposite-Spin Energy      =      -0.8788202166057532 [Eh]
	 Correlation Energy        =      -1.1543528640701486 [Eh]
	 Total Energy              =    -312.7805888586378273 [Eh]
	-----------------------------------------------------------
	 ================> DF-SCS-MP2 Energies <================== 
	-----------------------------------------------------------
	 SCS Same-Spin Scale       =       0.3333333333333333 [-]
	 SCS Opposite-Spin Scale   =       1.2000000000000000 [-]
	 SCS Same-Spin Energy      =      -0.0918442158214652 [Eh]
	 SCS Opposite-Spin Energy  =      -1.0545842599269037 [Eh]
	 SCS Correlation Energy    =      -1.1464284757483689 [Eh]
	 SCS Total Energy          =    -312.7726644703160446 [Eh]
	-----------------------------------------------------------


*** tstop() called on ddmfs1 at Mon Jan 22 13:39:34 2024
Module time:
	user time   =      23.16 seconds =       0.39 minutes
	system time =       1.10 seconds =       0.02 minutes
	total time  =          3 seconds =       0.05 minutes
Total time:
	user time   =      96.19 seconds =       1.60 minutes
	system time =       4.86 seconds =       0.08 minutes
	total time  =          7 seconds =       0.12 minutes

    Psi4 stopped on: Monday, 22 January 2024 01:39PM
    Psi4 wall time for execution: 0:00:07.42

*** Psi4 exiting successfully. Buy a developer a beer!
