
    -----------------------------------------------------------------------
          Psi4: An Open-Source Ab Initio Electronic Structure Package
                               Psi4 1.9 release

                         Git: Rev {} zzzzzzz 


    D. G. A. Smith, L. A. Burns, A. C. Simmonett, R. M. Parrish,
    M. C. Schieber, R. Galvelis, P. Kraus, H. Kruse, R. Di Remigio,
    A. Alenaizan, A. M. James, S. Lehtola, J. P. Misiewicz, M. Scheurer,
    R. A. Shaw, J. B. Schriber, Y. Xie, Z. L. Glick, D. A. Sirianni,
    J. S. O'Brien, J. M. Waldrop, A. Kumar, E. G. Hohenstein,
    B. P. Pritchard, B. R. Brooks, H. F. Schaefer III, A. Yu. Sokolov,
    K. Patkowski, A. E. DePrince III, U. Bozkaya, R. A. King,
    F. A. Evangelista, J. M. Turney, T. D. Crawford, C. D. Sherrill,
    J. Chem. Phys. 152(18) 184108 (2020). https://doi.org/10.1063/5.0006002

                            Additional Code Authors
    E. T. Seidl, C. L. Janssen, E. F. Valeev, M. L. Leininger,
    J. F. Gonthier, R. M. Richard, H. R. McAlexander, M. Saitow, X. Wang,
    P. Verma, M. H. Lechner, A. Jiang, S. Behnle, A. G. Heide,
    M. F. Herbst, and D. L. Poole

             Previous Authors, Complete List of Code Contributors,
                       and Citations for Specific Modules
    https://github.com/psi4/psi4/blob/master/codemeta.json
    https://github.com/psi4/psi4/graphs/contributors
    http://psicode.org/psi4manual/master/introduction.html#citing-psifour

    -----------------------------------------------------------------------


    Psi4 started on: Saturday, 06 January 2024 05:49PM

    Process ID: 549595
    Host:       moses-razer
    PSIDATADIR: /home/kchung25/anaconda3/envs/psi4_19/share/psi4
    Memory:     500.0 MiB
    Threads:    6
    
  ==> Input File <==

--------------------------------------------------------------------------
MEMORY 60 GB

molecule dimer {
1 1
Li     0.000000     0.000000     0.000000
--
0 1
O     -0.726839    -0.118102     1.911175
H     -0.115967    -0.212325     2.688357
H     -1.622471    -0.399297     2.175709
O      0.992835     1.593091     0.218464
H      0.702150     2.401769     0.685617
H      1.134015     1.873018    -0.713415
O      0.978893    -1.627265    -0.419354
H      0.322428    -2.297315    -0.615808
H      1.423814    -1.960308     0.436537
O     -1.645151    -0.250685    -1.119639
H     -1.834142     0.556153    -1.664355
H     -2.442203    -0.433569    -0.617930

units ang
no_reorient
no_com
symmetry c1
}

set {
basis        aug-cc-pVTZ
scf_type     df
}

energy("mp2", bsse_type="cp")
--------------------------------------------------------------------------

  Memory set to  55.879 GiB by Python driver.

Scratch directory: /scratch/

  //>>>>>>>>>>>>>>>>>>>>>>>>>>>>>>>>>>>>>//
  // ManyBody Setup: N-Body Levels [1, 2]//
  //<<<<<<<<<<<<<<<<<<<<<<<<<<<<<<<<<<<<<//

        Number of 1-body computations:     2
        Number of 2-body computations:     1

    -----------------------------------------------------------------------
          Psi4: An Open-Source Ab Initio Electronic Structure Package
                               Psi4 1.9 release

                         Git: Rev {} zzzzzzz 


    D. G. A. Smith, L. A. Burns, A. C. Simmonett, R. M. Parrish,
    M. C. Schieber, R. Galvelis, P. Kraus, H. Kruse, R. Di Remigio,
    A. Alenaizan, A. M. James, S. Lehtola, J. P. Misiewicz, M. Scheurer,
    R. A. Shaw, J. B. Schriber, Y. Xie, Z. L. Glick, D. A. Sirianni,
    J. S. O'Brien, J. M. Waldrop, A. Kumar, E. G. Hohenstein,
    B. P. Pritchard, B. R. Brooks, H. F. Schaefer III, A. Yu. Sokolov,
    K. Patkowski, A. E. DePrince III, U. Bozkaya, R. A. King,
    F. A. Evangelista, J. M. Turney, T. D. Crawford, C. D. Sherrill,
    J. Chem. Phys. 152(18) 184108 (2020). https://doi.org/10.1063/5.0006002

                            Additional Code Authors
    E. T. Seidl, C. L. Janssen, E. F. Valeev, M. L. Leininger,
    J. F. Gonthier, R. M. Richard, H. R. McAlexander, M. Saitow, X. Wang,
    P. Verma, M. H. Lechner, A. Jiang, S. Behnle, A. G. Heide,
    M. F. Herbst, and D. L. Poole

             Previous Authors, Complete List of Code Contributors,
                       and Citations for Specific Modules
    https://github.com/psi4/psi4/blob/master/codemeta.json
    https://github.com/psi4/psi4/graphs/contributors
    http://psicode.org/psi4manual/master/introduction.html#citing-psifour

    -----------------------------------------------------------------------


    Psi4 started on: Saturday, 06 January 2024 05:49PM

    Process ID: 549595
    Host:       moses-razer
    PSIDATADIR: /home/kchung25/anaconda3/envs/psi4_19/share/psi4
    Memory:     55.9 GiB
    Threads:    6
    
  ==> Input QCSchema <==

--------------------------------------------------------------------------
{'driver': 'energy',
 'extras': {'psiapi': True, 'wfn_qcvars_only': True},
 'id': None,
 'keywords': {'SCF_TYPE': 'DF', 'function_kwargs': {}},
 'model': {'basis': 'aug-cc-pvtz', 'method': 'mp2'},
 'molecule': {'atom_labels': ['', '', '', '', '', '', '', '', '', '', '', '', ''],
              'atomic_numbers': [3, 8, 1, 1, 8, 1, 1, 8, 1, 1, 8, 1, 1],
              'extras': {},
              'fix_com': True,
              'fix_orientation': True,
              'fix_symmetry': 'c1',
              'fragment_charges': [0.0, 0.0],
              'fragment_multiplicities': [1, 1],
              'fragments': [[0], [1, 2, 3, 4, 5, 6, 7, 8, 9, 10, 11, 12]],
              'geometry': [0.0, 0.0, 0.0, -1.3735266473016423, -0.22318043486882042, 3.611597327821865,
                           -0.21914586959096796, -0.4012360995878334, 5.08025845745743, -3.066025836497688,
                           -0.7545619727169345, 4.111494138693725, 1.876186237768923, 3.010505682931737,
                           0.41283712827201896, 1.3268711989902142, 4.538685626614722, 1.2956283569580198,
                           2.1429777721610583, 3.5394910480527706, -1.3481589637934965, 1.8498396761277898,
                           -3.0750851835431328, -0.7924642096152421, 0.6093006151791166, -4.341296173906151,
                           -1.1637084658659342, 2.690618513592612, -3.704445241543984, 0.824935373628984,
                           -3.1088848250230714, -0.47372599376039565, -2.1158110693814773, -3.4660260551994715,
                           1.0509768538517474, -3.1451751255363636, -4.615094812771485, -0.8193266664886251,
                           -1.1677184647041556],
              'mass_numbers': [7, 16, 1, 1, 16, 1, 1, 16, 1, 1, 16, 1, 1],
              'masses': [7.0160034366, 15.99491461957, 1.00782503223, 1.00782503223, 15.99491461957, 1.00782503223,
                         1.00782503223, 15.99491461957, 1.00782503223, 1.00782503223, 15.99491461957, 1.00782503223,
                         1.00782503223],
              'molecular_charge': 0.0,
              'molecular_multiplicity': 1,
              'name': 'dimer',
              'provenance': {'creator': 'QCElemental',
                             'routine': 'qcelemental.molparse.from_string',
                             'version': '0.27.1'},
              'real': [False, True, True, True, True, True, True, True, True, True, True, True, True],
              'schema_name': 'qcschema_molecule',
              'schema_version': 2,
              'symbols': ['Li', 'O', 'H', 'H', 'O', 'H', 'H', 'O', 'H', 'H', 'O', 'H', 'H'],
              'validated': True},
 'protocols': {'stdout': True},
 'provenance': {'creator': 'QCElemental', 'routine': 'qcelemental.models.results', 'version': '0.27.1'},
 'schema_name': 'qcschema_input',
 'schema_version': 1}
--------------------------------------------------------------------------

Scratch directory: /scratch/
   => Libint2 <=

    Primary   basis highest AM E, G, H:  5, 4, 3
    Auxiliary basis highest AM E, G, H:  6, 5, 4
    Onebody   basis highest AM E, G, H:  6, 5, 4
    Solid Harmonics ordering:            gaussian

*** tstart() called on moses-razer
*** at Sat Jan  6 17:49:01 2024

   => Loading Basis Set <=

    Name: AUG-CC-PVTZ
    Role: ORBITAL
    Keyword: BASIS
    atoms 1                     entry LI         line    85 file /home/kchung25/anaconda3/envs/p415env/share/psi4/basis/aug-cc-pvtz.gbs 
    atoms 2, 5, 8, 11           entry O          line   331 file /home/kchung25/anaconda3/envs/p415env/share/psi4/basis/aug-cc-pvtz.gbs 
    atoms 3-4, 6-7, 9-10, 12-13 entry H          line    40 file /home/kchung25/anaconda3/envs/p415env/share/psi4/basis/aug-cc-pvtz.gbs 


         ---------------------------------------------------------
                                   SCF
               by Justin Turney, Rob Parrish, Andy Simmonett
                          and Daniel G. A. Smith
                              RHF Reference
                        6 Threads,  57220 MiB Core
         ---------------------------------------------------------

  ==> Geometry <==

    Molecular point group: c1
    Full point group: C1

    Geometry (in Bohr), charge = 0, multiplicity = 1:

       Center              X                  Y                   Z               Mass       
    ------------   -----------------  -----------------  -----------------  -----------------
      Gh(LI)          0.000000000000     0.000000000000     0.000000000000     7.016003436600
         O           -1.373526647302    -0.223180434869     3.611597327822    15.994914619570
         H           -0.219145869591    -0.401236099588     5.080258457457     1.007825032230
         H           -3.066025836498    -0.754561972717     4.111494138694     1.007825032230
         O            1.876186237769     3.010505682932     0.412837128272    15.994914619570
         H            1.326871198990     4.538685626615     1.295628356958     1.007825032230
         H            2.142977772161     3.539491048053    -1.348158963793     1.007825032230
         O            1.849839676128    -3.075085183543    -0.792464209615    15.994914619570
         H            0.609300615179    -4.341296173906    -1.163708465866     1.007825032230
         H            2.690618513593    -3.704445241544     0.824935373629     1.007825032230
         O           -3.108884825023    -0.473725993760    -2.115811069381    15.994914619570
         H           -3.466026055199     1.050976853852    -3.145175125536     1.007825032230
         H           -4.615094812771    -0.819326666489    -1.167718464704     1.007825032230

  Running in c1 symmetry.

  Rotational constants: A =      0.09397  B =      0.08175  C =      0.07782 [cm^-1]
  Rotational constants: A =   2817.17625  B =   2450.77118  C =   2333.06249 [MHz]
  Nuclear repulsion =  131.023875884697361

  Charge       = 0
  Multiplicity = 1
  Electrons    = 40
  Nalpha       = 20
  Nbeta        = 20

  ==> Algorithm <==

  SCF Algorithm Type is DF.
  DIIS enabled.
  MOM disabled.
  Fractional occupation disabled.
  Guess Type is SAD.
  Energy threshold   = 1.00e-08
  Density threshold  = 1.00e-08
  Integral threshold = 1.00e-12

  ==> Primary Basis <==

  Basis Set: AUG-CC-PVTZ
    Blend: AUG-CC-PVTZ
    Number of shells: 142
    Number of basis functions: 414
    Number of Cartesian functions: 475
    Spherical Harmonics?: true
    Max angular momentum: 3

   => Loading Basis Set <=

    Name: (AUG-CC-PVTZ AUX)
    Role: JKFIT
    Keyword: DF_BASIS_SCF
    atoms 1                     entry LI         line    54 file /home/kchung25/anaconda3/envs/p415env/share/psi4/basis/def2-universal-jkfit.gbs 
    atoms 2, 5, 8, 11           entry O          line   286 file /home/kchung25/anaconda3/envs/p415env/share/psi4/basis/aug-cc-pvtz-jkfit.gbs 
    atoms 3-4, 6-7, 9-10, 12-13 entry H          line    70 file /home/kchung25/anaconda3/envs/p415env/share/psi4/basis/aug-cc-pvtz-jkfit.gbs 

  ==> Integral Setup <==

  DFHelper Memory: AOs need 1.067 GiB; user supplied 41.910 GiB. 
  Using in-core AOs.

  ==> MemDFJK: Density-Fitted J/K Matrices <==

    J tasked:                   Yes
    K tasked:                   Yes
    wK tasked:                   No
    OpenMP threads:               6
    Memory [MiB]:             42915
    Algorithm:                 Core
    Schwarz Cutoff:           1E-12
    Mask sparsity (%):       4.3828
    Fitting Condition:        1E-10

   => Auxiliary Basis Set <=

  Basis Set: (AUG-CC-PVTZ AUX)
    Blend: AUG-CC-PVTZ-JKFIT + DEF2-UNIVERSAL-JKFIT
    Number of shells: 249
    Number of basis functions: 835
    Number of Cartesian functions: 1024
    Spherical Harmonics?: true
    Max angular momentum: 4

  Minimum eigenvalue in the overlap matrix is 1.9174959073E-05.
  Reciprocal condition number of the overlap matrix is 1.3319188748E-06.
    Using symmetric orthogonalization.

  ==> Pre-Iterations <==

  SCF Guess: Superposition of Atomic Densities via on-the-fly atomic UHF (no occupation information).

   -------------------------
    Irrep   Nso     Nmo    
   -------------------------
     A        414     414 
   -------------------------
    Total     414     414
   -------------------------

  ==> Iterations <==

                           Total Energy        Delta E     RMS |[F,P]|

   @DF-RHF iter SAD:  -301.84769834360640   -3.01848e+02   0.00000e+00 
   @DF-RHF iter   1:  -303.84479592319929   -1.99710e+00   2.30333e-03 ADIIS/DIIS
   @DF-RHF iter   2:  -304.05708400819702   -2.12288e-01   1.65496e-03 ADIIS/DIIS
   @DF-RHF iter   3:  -304.20735115610978   -1.50267e-01   1.12784e-04 ADIIS/DIIS
   @DF-RHF iter   4:  -304.20926629688461   -1.91514e-03   2.93334e-05 DIIS
   @DF-RHF iter   5:  -304.20940605981275   -1.39763e-04   7.82416e-06 DIIS
   @DF-RHF iter   6:  -304.20941893353944   -1.28737e-05   3.31286e-06 DIIS
   @DF-RHF iter   7:  -304.20942016975403   -1.23621e-06   9.31777e-07 DIIS
   @DF-RHF iter   8:  -304.20942035394779   -1.84194e-07   1.69808e-07 DIIS
   @DF-RHF iter   9:  -304.20942036080680   -6.85901e-09   3.30791e-08 DIIS
   @DF-RHF iter  10:  -304.20942036104231   -2.35502e-10   9.34051e-09 DIIS
  Energy and wave function converged.


  ==> Post-Iterations <==

    Orbital Energies [Eh]
    ---------------------

    Doubly Occupied:                                                      

       1A    -20.548984     2A    -20.545519     3A    -20.536261  
       4A    -20.528927     5A     -1.320523     6A     -1.316888  
       7A     -1.306778     8A     -1.295088     9A     -0.693604  
      10A     -0.687518    11A     -0.671665    12A     -0.657144  
      13A     -0.559572    14A     -0.550447    15A     -0.538342  
      16A     -0.531719    17A     -0.488478    18A     -0.484290  
      19A     -0.470173    20A     -0.459998  

    Virtual:                                                              

      21A      0.008597    22A      0.016864    23A      0.019525  
      24A      0.021977    25A      0.047852    26A      0.055181  
      27A      0.056303    28A      0.057151    29A      0.063427  
      30A      0.065847    31A      0.068128    32A      0.076083  
      33A      0.081026    34A      0.085174    35A      0.090943  
      36A      0.119817    37A      0.152740    38A      0.155048  
      39A      0.158540    40A      0.165314    41A      0.169943  
      42A      0.173417    43A      0.176275    44A      0.181170  
      45A      0.186933    46A      0.194511    47A      0.199180  
      48A      0.202415    49A      0.207865    50A      0.215728  
      51A      0.223303    52A      0.231885    53A      0.236875  
      54A      0.244849    55A      0.255625    56A      0.263275  
      57A      0.277529    58A      0.302834    59A      0.306296  
      60A      0.314212    61A      0.328086    62A      0.334106  
      63A      0.348139    64A      0.352481    65A      0.356612  
      66A      0.361868    67A      0.375647    68A      0.379629  
      69A      0.380512    70A      0.397303    71A      0.401948  
      72A      0.408160    73A      0.412388    74A      0.420038  
      75A      0.426762    76A      0.431947    77A      0.436216  
      78A      0.439577    79A      0.444864    80A      0.450756  
      81A      0.456864    82A      0.459866    83A      0.469843  
      84A      0.474246    85A      0.480924    86A      0.485612  
      87A      0.490823    88A      0.497142    89A      0.500905  
      90A      0.509048    91A      0.511429    92A      0.515739  
      93A      0.520059    94A      0.525159    95A      0.529793  
      96A      0.542529    97A      0.554080    98A      0.558108  
      99A      0.562134   100A      0.579298   101A      0.596619  
     102A      0.616316   103A      0.634048   104A      0.655720  
     105A      0.685127   106A      0.721760   107A      0.750384  
     108A      0.760095   109A      0.764961   110A      0.775316  
     111A      0.781116   112A      0.793452   113A      0.800457  
     114A      0.804330   115A      0.814632   116A      0.820081  
     117A      0.828532   118A      0.850274   119A      0.859063  
     120A      0.866247   121A      0.886680   122A      0.889587  
     123A      0.901328   124A      0.905647   125A      0.914798  
     126A      0.925840   127A      0.930172   128A      0.939083  
     129A      0.948294   130A      0.956549   131A      0.961963  
     132A      0.965545   133A      0.973550   134A      0.982866  
     135A      0.984283   136A      0.993859   137A      1.007294  
     138A      1.013218   139A      1.024925   140A      1.026571  
     141A      1.033851   142A      1.039857   143A      1.054460  
     144A      1.068991   145A      1.076328   146A      1.087595  
     147A      1.098170   148A      1.100998   149A      1.104976  
     150A      1.113365   151A      1.127893   152A      1.129923  
     153A      1.138089   154A      1.146153   155A      1.146483  
     156A      1.164289   157A      1.172094   158A      1.175521  
     159A      1.200363   160A      1.211192   161A      1.215946  
     162A      1.220754   163A      1.233799   164A      1.240262  
     165A      1.255114   166A      1.258361   167A      1.275918  
     168A      1.284662   169A      1.295160   170A      1.301573  
     171A      1.314960   172A      1.324963   173A      1.333295  
     174A      1.340616   175A      1.358522   176A      1.366319  
     177A      1.377971   178A      1.381681   179A      1.401336  
     180A      1.413375   181A      1.434426   182A      1.443468  
     183A      1.473826   184A      1.478906   185A      1.510735  
     186A      1.534083   187A      1.543675   188A      1.555686  
     189A      1.596099   190A      1.598062   191A      1.630833  
     192A      1.638678   193A      1.653026   194A      1.673882  
     195A      1.687360   196A      1.697672   197A      1.715740  
     198A      1.736044   199A      1.742684   200A      1.771053  
     201A      1.785628   202A      1.794692   203A      1.800271  
     204A      1.840840   205A      1.849391   206A      1.863203  
     207A      1.871778   208A      1.882840   209A      1.885721  
     210A      1.906257   211A      1.915492   212A      1.935063  
     213A      1.966425   214A      2.021628   215A      2.056241  
     216A      2.065481   217A      2.082719   218A      2.094063  
     219A      2.099612   220A      2.127871   221A      2.165643  
     222A      2.213022   223A      2.246225   224A      2.250318  
     225A      2.268350   226A      2.318035   227A      2.343554  
     228A      2.385941   229A      2.416451   230A      2.434258  
     231A      2.445104   232A      2.456957   233A      2.480361  
     234A      2.488373   235A      2.511888   236A      2.529288  
     237A      2.556313   238A      2.567685   239A      2.595433  
     240A      2.601351   241A      2.621230   242A      2.650952  
     243A      2.664344   244A      2.675711   245A      2.689377  
     246A      2.708997   247A      2.726642   248A      2.737493  
     249A      2.760768   250A      2.770381   251A      2.800339  
     252A      2.807141   253A      2.818749   254A      2.826302  
     255A      2.832210   256A      2.848289   257A      2.849546  
     258A      2.855039   259A      2.878481   260A      2.902360  
     261A      2.908357   262A      2.942411   263A      2.946070  
     264A      2.950981   265A      2.991942   266A      3.003613  
     267A      3.020966   268A      3.041855   269A      3.047792  
     270A      3.089202   271A      3.108922   272A      3.137466  
     273A      3.154716   274A      3.179941   275A      3.288738  
     276A      3.303550   277A      3.362067   278A      3.835048  
     279A      3.888418   280A      3.918657   281A      3.936172  
     282A      3.940269   283A      3.971654   284A      3.988847  
     285A      4.013710   286A      4.111435   287A      4.146466  
     288A      4.160352   289A      4.194036   290A      4.263831  
     291A      4.273249   292A      4.289227   293A      4.313833  
     294A      4.323618   295A      4.327343   296A      4.342752  
     297A      4.356205   298A      4.372710   299A      4.395915  
     300A      4.433565   301A      4.459646   302A      4.502542  
     303A      4.525438   304A      4.529012   305A      4.540688  
     306A      4.552804   307A      4.565794   308A      4.574925  
     309A      4.596074   310A      4.615992   311A      4.619991  
     312A      4.629351   313A      4.650542   314A      4.657466  
     315A      4.671067   316A      4.697770   317A      4.717246  
     318A      4.723284   319A      4.736928   320A      4.743980  
     321A      4.778287   322A      4.829901   323A      4.837292  
     324A      4.867550   325A      4.874595   326A      4.894618  
     327A      4.919619   328A      4.933834   329A      4.997280  
     330A      5.124296   331A      5.159057   332A      5.171049  
     333A      5.180614   334A      5.190730   335A      5.197940  
     336A      5.248401   337A      5.291873   338A      5.327202  
     339A      5.342612   340A      5.362598   341A      5.371307  
     342A      5.385612   343A      5.394810   344A      5.443766  
     345A      5.452702   346A      5.520738   347A      5.611655  
     348A      5.638130   349A      5.676397   350A      5.822262  
     351A      5.854948   352A      5.873717   353A      5.913086  
     354A      6.336573   355A      6.369230   356A      6.400104  
     357A      6.425417   358A      6.657811   359A      6.687952  
     360A      6.704056   361A      6.732721   362A      6.828784  
     363A      6.878691   364A      6.887687   365A      6.910909  
     366A      6.971183   367A      6.987007   368A      7.022079  
     369A      7.044353   370A      7.200886   371A      7.211272  
     372A      7.227000   373A      7.239302   374A      7.298845  
     375A      7.345940   376A      7.352302   377A      7.357570  
     378A      7.365986   379A      7.382039   380A      7.393473  
     381A      7.403710   382A      7.406917   383A      7.437292  
     384A      7.439236   385A      7.445598   386A      7.459100  
     387A      7.474937   388A      7.486334   389A      7.491558  
     390A      7.518707   391A      7.551648   392A      7.561256  
     393A      7.581934   394A      7.668914   395A      7.685410  
     396A      7.709103   397A      7.763634   398A      7.920807  
     399A      7.929971   400A      7.953553   401A      7.963909  
     402A      7.971646   403A      8.020882   404A      8.040780  
     405A      8.078385   406A      8.747527   407A      8.815192  
     408A      8.851571   409A      8.881504   410A     12.874815  
     411A     15.501256   412A     15.676088   413A     15.751979  
     414A     15.999793  

    Final Occupation by Irrep:
              A 
    DOCC [    20 ]
    NA   [    20 ]
    NB   [    20 ]

  @DF-RHF Final Energy:  -304.20942036104231

   => Energetics <=

    Nuclear Repulsion Energy =            131.0238758846973610
    One-Electron Energy =                -682.0827449432553067
    Two-Electron Energy =                 246.8494486975156690
    Total Energy =                       -304.2094203610423619

Computation Completed


Properties will be evaluated at   0.000000,   0.000000,   0.000000 [a0]

Properties computed using the SCF density matrix


 Multipole Moments:

 ------------------------------------------------------------------------------------
     Multipole            Electronic (a.u.)      Nuclear  (a.u.)        Total (a.u.)
 ------------------------------------------------------------------------------------

 L = 1.  Multiply by 2.5417464519 to convert [e a0] to [Debye]
 Dipole X            :          9.5828689          -10.6476089           -1.0647400
 Dipole Y            :          7.2354719           -6.9836001            0.2518718
 Dipole Z            :        -12.6679780           13.4168287            0.7488507
 Magnitude           :                                                    1.3258537

 ------------------------------------------------------------------------------------

*** tstop() called on moses-razer at Sat Jan  6 17:49:06 2024
Module time:
	user time   =      23.74 seconds =       0.40 minutes
	system time =       0.94 seconds =       0.02 minutes
	total time  =          5 seconds =       0.08 minutes
Total time:
	user time   =      23.74 seconds =       0.40 minutes
	system time =       0.94 seconds =       0.02 minutes
	total time  =          5 seconds =       0.08 minutes

*** tstart() called on moses-razer
*** at Sat Jan  6 17:49:06 2024


  //>>>>>>>>>>>>>>>>>>>>>>>>>>>>>>>>>>>//
  //               DFMP2               //
  //<<<<<<<<<<<<<<<<<<<<<<<<<<<<<<<<<<<//

   => Loading Basis Set <=

    Name: (AUG-CC-PVTZ AUX)
    Role: RIFIT
    Keyword: DF_BASIS_MP2
    atoms 1                     entry LI         line    90 file /home/kchung25/anaconda3/envs/p415env/share/psi4/basis/def2-qzvpp-ri.gbs 
    atoms 2, 5, 8, 11           entry O          line   264 file /home/kchung25/anaconda3/envs/p415env/share/psi4/basis/aug-cc-pvtz-ri.gbs 
    atoms 3-4, 6-7, 9-10, 12-13 entry H          line    30 file /home/kchung25/anaconda3/envs/p415env/share/psi4/basis/aug-cc-pvtz-ri.gbs 

	 --------------------------------------------------------
	                          DF-MP2                         
	      2nd-Order Density-Fitted Moller-Plesset Theory     
	              RMP2 Wavefunction,   6 Threads             
	                                                         
	        Rob Parrish, Justin Turney, Andy Simmonett,      
	           Ed Hohenstein, and C. David Sherrill          
	 --------------------------------------------------------

   => Auxiliary Basis Set <=

  Basis Set: (AUG-CC-PVTZ AUX)
    Blend: AUG-CC-PVTZ-RI + DEF2-QZVPP-RI
    Number of shells: 251
    Number of basis functions: 893
    Number of Cartesian functions: 1114
    Spherical Harmonics?: true
    Max angular momentum: 4

	 --------------------------------------------------------
	                 NBF =   414, NAUX =   893
	 --------------------------------------------------------
	   CLASS    FOCC     OCC    AOCC    AVIR     VIR    FVIR
	   PAIRS       0      20      20     394     394       0
	 --------------------------------------------------------

	-----------------------------------------------------------
	 ==================> DF-MP2 Energies <==================== 
	-----------------------------------------------------------
	 Reference Energy          =    -304.2094203610423051 [Eh]
	 Singles Energy            =      -0.0000000000000000 [Eh]
	 Same-Spin Energy          =      -0.2783058358497023 [Eh]
	 Opposite-Spin Energy      =      -0.8730249159177668 [Eh]
	 Correlation Energy        =      -1.1513307517674691 [Eh]
	 Total Energy              =    -305.3607511128097940 [Eh]
	-----------------------------------------------------------
	 ================> DF-SCS-MP2 Energies <================== 
	-----------------------------------------------------------
	 SCS Same-Spin Scale       =       0.3333333333333333 [-]
	 SCS Opposite-Spin Scale   =       1.2000000000000000 [-]
	 SCS Same-Spin Energy      =      -0.0927686119499008 [Eh]
	 SCS Opposite-Spin Energy  =      -1.0476298991013200 [Eh]
	 SCS Correlation Energy    =      -1.1403985110512207 [Eh]
	 SCS Total Energy          =    -305.3498188720935218 [Eh]
	-----------------------------------------------------------


*** tstop() called on moses-razer at Sat Jan  6 17:49:08 2024
Module time:
	user time   =       9.06 seconds =       0.15 minutes
	system time =       0.50 seconds =       0.01 minutes
	total time  =          2 seconds =       0.03 minutes
Total time:
	user time   =      32.80 seconds =       0.55 minutes
	system time =       1.44 seconds =       0.02 minutes
	total time  =          7 seconds =       0.12 minutes

    Psi4 stopped on: Saturday, 06 January 2024 05:49PM
    Psi4 wall time for execution: 0:00:06.46


    -----------------------------------------------------------------------
          Psi4: An Open-Source Ab Initio Electronic Structure Package
                               Psi4 1.9 release

                         Git: Rev {} zzzzzzz 


    D. G. A. Smith, L. A. Burns, A. C. Simmonett, R. M. Parrish,
    M. C. Schieber, R. Galvelis, P. Kraus, H. Kruse, R. Di Remigio,
    A. Alenaizan, A. M. James, S. Lehtola, J. P. Misiewicz, M. Scheurer,
    R. A. Shaw, J. B. Schriber, Y. Xie, Z. L. Glick, D. A. Sirianni,
    J. S. O'Brien, J. M. Waldrop, A. Kumar, E. G. Hohenstein,
    B. P. Pritchard, B. R. Brooks, H. F. Schaefer III, A. Yu. Sokolov,
    K. Patkowski, A. E. DePrince III, U. Bozkaya, R. A. King,
    F. A. Evangelista, J. M. Turney, T. D. Crawford, C. D. Sherrill,
    J. Chem. Phys. 152(18) 184108 (2020). https://doi.org/10.1063/5.0006002

                            Additional Code Authors
    E. T. Seidl, C. L. Janssen, E. F. Valeev, M. L. Leininger,
    J. F. Gonthier, R. M. Richard, H. R. McAlexander, M. Saitow, X. Wang,
    P. Verma, M. H. Lechner, A. Jiang, S. Behnle, A. G. Heide,
    M. F. Herbst, and D. L. Poole

             Previous Authors, Complete List of Code Contributors,
                       and Citations for Specific Modules
    https://github.com/psi4/psi4/blob/master/codemeta.json
    https://github.com/psi4/psi4/graphs/contributors
    http://psicode.org/psi4manual/master/introduction.html#citing-psifour

    -----------------------------------------------------------------------


    Psi4 started on: Saturday, 06 January 2024 05:49PM

    Process ID: 549595
    Host:       moses-razer
    PSIDATADIR: /home/kchung25/anaconda3/envs/psi4_19/share/psi4
    Memory:     55.9 GiB
    Threads:    6
    
  ==> Input QCSchema <==

--------------------------------------------------------------------------
{'driver': 'energy',
 'extras': {'psiapi': True, 'wfn_qcvars_only': True},
 'id': None,
 'keywords': {'SCF_TYPE': 'DF', 'function_kwargs': {}},
 'model': {'basis': 'aug-cc-pvtz', 'method': 'mp2'},
 'molecule': {'atom_labels': ['', '', '', '', '', '', '', '', '', '', '', '', ''],
              'atomic_numbers': [3, 8, 1, 1, 8, 1, 1, 8, 1, 1, 8, 1, 1],
              'extras': {},
              'fix_com': True,
              'fix_orientation': True,
              'fix_symmetry': 'c1',
              'fragment_charges': [1.0, 0.0],
              'fragment_multiplicities': [1, 1],
              'fragments': [[0], [1, 2, 3, 4, 5, 6, 7, 8, 9, 10, 11, 12]],
              'geometry': [0.0, 0.0, 0.0, -1.3735266473016423, -0.22318043486882042, 3.611597327821865,
                           -0.21914586959096796, -0.4012360995878334, 5.08025845745743, -3.066025836497688,
                           -0.7545619727169345, 4.111494138693725, 1.876186237768923, 3.010505682931737,
                           0.41283712827201896, 1.3268711989902142, 4.538685626614722, 1.2956283569580198,
                           2.1429777721610583, 3.5394910480527706, -1.3481589637934965, 1.8498396761277898,
                           -3.0750851835431328, -0.7924642096152421, 0.6093006151791166, -4.341296173906151,
                           -1.1637084658659342, 2.690618513592612, -3.704445241543984, 0.824935373628984,
                           -3.1088848250230714, -0.47372599376039565, -2.1158110693814773, -3.4660260551994715,
                           1.0509768538517474, -3.1451751255363636, -4.615094812771485, -0.8193266664886251,
                           -1.1677184647041556],
              'mass_numbers': [7, 16, 1, 1, 16, 1, 1, 16, 1, 1, 16, 1, 1],
              'masses': [7.0160034366, 15.99491461957, 1.00782503223, 1.00782503223, 15.99491461957, 1.00782503223,
                         1.00782503223, 15.99491461957, 1.00782503223, 1.00782503223, 15.99491461957, 1.00782503223,
                         1.00782503223],
              'molecular_charge': 1.0,
              'molecular_multiplicity': 1,
              'name': 'dimer',
              'provenance': {'creator': 'QCElemental',
                             'routine': 'qcelemental.molparse.from_string',
                             'version': '0.27.1'},
              'real': [True, False, False, False, False, False, False, False, False, False, False, False, False],
              'schema_name': 'qcschema_molecule',
              'schema_version': 2,
              'symbols': ['Li', 'O', 'H', 'H', 'O', 'H', 'H', 'O', 'H', 'H', 'O', 'H', 'H'],
              'validated': True},
 'protocols': {'stdout': True},
 'provenance': {'creator': 'QCElemental', 'routine': 'qcelemental.models.results', 'version': '0.27.1'},
 'schema_name': 'qcschema_input',
 'schema_version': 1}
--------------------------------------------------------------------------

Scratch directory: /scratch/
   => Libint2 <=

    Primary   basis highest AM E, G, H:  5, 4, 3
    Auxiliary basis highest AM E, G, H:  6, 5, 4
    Onebody   basis highest AM E, G, H:  6, 5, 4
    Solid Harmonics ordering:            gaussian

*** tstart() called on moses-razer
*** at Sat Jan  6 17:49:08 2024

   => Loading Basis Set <=

    Name: AUG-CC-PVTZ
    Role: ORBITAL
    Keyword: BASIS
    atoms 1                     entry LI         line    85 file /home/kchung25/anaconda3/envs/p415env/share/psi4/basis/aug-cc-pvtz.gbs 
    atoms 2, 5, 8, 11           entry O          line   331 file /home/kchung25/anaconda3/envs/p415env/share/psi4/basis/aug-cc-pvtz.gbs 
    atoms 3-4, 6-7, 9-10, 12-13 entry H          line    40 file /home/kchung25/anaconda3/envs/p415env/share/psi4/basis/aug-cc-pvtz.gbs 


         ---------------------------------------------------------
                                   SCF
               by Justin Turney, Rob Parrish, Andy Simmonett
                          and Daniel G. A. Smith
                              RHF Reference
                        6 Threads,  57220 MiB Core
         ---------------------------------------------------------

  ==> Geometry <==

    Molecular point group: c1
    Full point group: C1

    Geometry (in Bohr), charge = 1, multiplicity = 1:

       Center              X                  Y                   Z               Mass       
    ------------   -----------------  -----------------  -----------------  -----------------
         LI           0.000000000000     0.000000000000     0.000000000000     7.016003436600
      Gh(O)          -1.373526647302    -0.223180434869     3.611597327822    15.994914619570
      Gh(H)          -0.219145869591    -0.401236099588     5.080258457457     1.007825032230
      Gh(H)          -3.066025836498    -0.754561972717     4.111494138694     1.007825032230
      Gh(O)           1.876186237769     3.010505682932     0.412837128272    15.994914619570
      Gh(H)           1.326871198990     4.538685626615     1.295628356958     1.007825032230
      Gh(H)           2.142977772161     3.539491048053    -1.348158963793     1.007825032230
      Gh(O)           1.849839676128    -3.075085183543    -0.792464209615    15.994914619570
      Gh(H)           0.609300615179    -4.341296173906    -1.163708465866     1.007825032230
      Gh(H)           2.690618513593    -3.704445241544     0.824935373629     1.007825032230
      Gh(O)          -3.108884825023    -0.473725993760    -2.115811069381    15.994914619570
      Gh(H)          -3.466026055199     1.050976853852    -3.145175125536     1.007825032230
      Gh(H)          -4.615094812771    -0.819326666489    -1.167718464704     1.007825032230

  Running in c1 symmetry.

  Rotational constants: A =      0.09397  B =      0.08175  C =      0.07782 [cm^-1]
  Rotational constants: A =   2817.17625  B =   2450.77118  C =   2333.06249 [MHz]
  Nuclear repulsion =    0.000000000000000

  Charge       = 1
  Multiplicity = 1
  Electrons    = 2
  Nalpha       = 1
  Nbeta        = 1

  ==> Algorithm <==

  SCF Algorithm Type is DF.
  DIIS enabled.
  MOM disabled.
  Fractional occupation disabled.
  Guess Type is SAD.
  Energy threshold   = 1.00e-08
  Density threshold  = 1.00e-08
  Integral threshold = 1.00e-12

  ==> Primary Basis <==

  Basis Set: AUG-CC-PVTZ
    Blend: AUG-CC-PVTZ
    Number of shells: 142
    Number of basis functions: 414
    Number of Cartesian functions: 475
    Spherical Harmonics?: true
    Max angular momentum: 3

   => Loading Basis Set <=

    Name: (AUG-CC-PVTZ AUX)
    Role: JKFIT
    Keyword: DF_BASIS_SCF
    atoms 1                     entry LI         line    54 file /home/kchung25/anaconda3/envs/p415env/share/psi4/basis/def2-universal-jkfit.gbs 
    atoms 2, 5, 8, 11           entry O          line   286 file /home/kchung25/anaconda3/envs/p415env/share/psi4/basis/aug-cc-pvtz-jkfit.gbs 
    atoms 3-4, 6-7, 9-10, 12-13 entry H          line    70 file /home/kchung25/anaconda3/envs/p415env/share/psi4/basis/aug-cc-pvtz-jkfit.gbs 

  ==> Integral Setup <==

  DFHelper Memory: AOs need 1.067 GiB; user supplied 41.910 GiB. 
  Using in-core AOs.

  ==> MemDFJK: Density-Fitted J/K Matrices <==

    J tasked:                   Yes
    K tasked:                   Yes
    wK tasked:                   No
    OpenMP threads:               6
    Memory [MiB]:             42915
    Algorithm:                 Core
    Schwarz Cutoff:           1E-12
    Mask sparsity (%):       4.3828
    Fitting Condition:        1E-10

   => Auxiliary Basis Set <=

  Basis Set: (AUG-CC-PVTZ AUX)
    Blend: AUG-CC-PVTZ-JKFIT + DEF2-UNIVERSAL-JKFIT
    Number of shells: 249
    Number of basis functions: 835
    Number of Cartesian functions: 1024
    Spherical Harmonics?: true
    Max angular momentum: 4

  Minimum eigenvalue in the overlap matrix is 1.9174959073E-05.
  Reciprocal condition number of the overlap matrix is 1.3319188748E-06.
    Using symmetric orthogonalization.

  ==> Pre-Iterations <==

  SCF Guess: Superposition of Atomic Densities via on-the-fly atomic UHF (no occupation information).

   -------------------------
    Irrep   Nso     Nmo    
   -------------------------
     A        414     414 
   -------------------------
    Total     414     414
   -------------------------

  ==> Iterations <==

                           Total Energy        Delta E     RMS |[F,P]|

   @DF-RHF iter SAD:    -7.31416817678180   -7.31417e+00   0.00000e+00 
   @DF-RHF iter   1:    -7.23638291865680    7.77853e-02   5.48575e-06 DIIS
   @DF-RHF iter   2:    -7.23638483997922   -1.92132e-06   6.68555e-07 DIIS
   @DF-RHF iter   3:    -7.23638487146370   -3.14845e-08   3.46538e-08 DIIS
   @DF-RHF iter   4:    -7.23638487152558   -6.18767e-11   2.19452e-10 DIIS
  Energy and wave function converged.


  ==> Post-Iterations <==

    Orbital Energies [Eh]
    ---------------------

    Doubly Occupied:                                                      

       1A     -2.792353  

    Virtual:                                                              

       2A     -0.196302     3A     -0.128602     4A     -0.128601  
       5A     -0.128601     6A     -0.073773     7A     -0.056391  
       8A     -0.056390     9A     -0.056387    10A     -0.051416  
      11A     -0.050900    12A     -0.050571    13A     -0.048641  
      14A     -0.048349    15A     -0.027244    16A     -0.010367  
      17A     -0.009116    18A     -0.008450    19A     -0.008364  
      20A     -0.006573    21A      0.009480    22A      0.012828  
      23A      0.017269    24A      0.018030    25A      0.020710  
      26A      0.022950    27A      0.036797    28A      0.040647  
      29A      0.045200    30A      0.048245    31A      0.059353  
      32A      0.077402    33A      0.087631    34A      0.089611  
      35A      0.093241    36A      0.100165    37A      0.107918  
      38A      0.115461    39A      0.130094    40A      0.142482  
      41A      0.143706    42A      0.149631    43A      0.155428  
      44A      0.162701    45A      0.168865    46A      0.173812  
      47A      0.177218    48A      0.178478    49A      0.185339  
      50A      0.190805    51A      0.204062    52A      0.211254  
      53A      0.215970    54A      0.219980    55A      0.225510  
      56A      0.232484    57A      0.239724    58A      0.245518  
      59A      0.252462    60A      0.259988    61A      0.272919  
      62A      0.275249    63A      0.280019    64A      0.283386  
      65A      0.293245    66A      0.295109    67A      0.304998  
      68A      0.309536    69A      0.313930    70A      0.319332  
      71A      0.327412    72A      0.335487    73A      0.345235  
      74A      0.355543    75A      0.365533    76A      0.368372  
      77A      0.372619    78A      0.376738    79A      0.377715  
      80A      0.382410    81A      0.388376    82A      0.393786  
      83A      0.398759    84A      0.412280    85A      0.420537  
      86A      0.449109    87A      0.450785    88A      0.484291  
      89A      0.514646    90A      0.547164    91A      0.548591  
      92A      0.556436    93A      0.563286    94A      0.571515  
      95A      0.580255    96A      0.587843    97A      0.605024  
      98A      0.621963    99A      0.625065   100A      0.631815  
     101A      0.638982   102A      0.651528   103A      0.665400  
     104A      0.667482   105A      0.671581   106A      0.681698  
     107A      0.692267   108A      0.704095   109A      0.705768  
     110A      0.714147   111A      0.729733   112A      0.742211  
     113A      0.753075   114A      0.762739   115A      0.772326  
     116A      0.778170   117A      0.792577   118A      0.803669  
     119A      0.806703   120A      0.814758   121A      0.819212  
     122A      0.825188   123A      0.834272   124A      0.843756  
     125A      0.853203   126A      0.866751   127A      0.875648  
     128A      0.877610   129A      0.887503   130A      0.896548  
     131A      0.903535   132A      0.903967   133A      0.920748  
     134A      0.925642   135A      0.945798   136A      0.951700  
     137A      0.957100   138A      0.964177   139A      0.969160  
     140A      0.972452   141A      0.992056   142A      0.995714  
     143A      1.012829   144A      1.023648   145A      1.030298  
     146A      1.054312   147A      1.055874   148A      1.064468  
     149A      1.071489   150A      1.086264   151A      1.100435  
     152A      1.104789   153A      1.114138   154A      1.122830  
     155A      1.127564   156A      1.139491   157A      1.152324  
     158A      1.154247   159A      1.173165   160A      1.178283  
     161A      1.189509   162A      1.200824   163A      1.217869  
     164A      1.232816   165A      1.236613   166A      1.251988  
     167A      1.276652   168A      1.283026   169A      1.306363  
     170A      1.313445   171A      1.325825   172A      1.332518  
     173A      1.344142   174A      1.361283   175A      1.372284  
     176A      1.389015   177A      1.400896   178A      1.450782  
     179A      1.478516   180A      1.508984   181A      1.525216  
     182A      1.559807   183A      1.581126   184A      1.592952  
     185A      1.622093   186A      1.623142   187A      1.645106  
     188A      1.659990   189A      1.693749   190A      1.699971  
     191A      1.706286   192A      1.715462   193A      1.719748  
     194A      1.752991   195A      1.766697   196A      1.777164  
     197A      1.799829   198A      1.804966   199A      1.818891  
     200A      1.832850   201A      1.845527   202A      1.847935  
     203A      1.864771   204A      1.872118   205A      1.873792  
     206A      1.911655   207A      1.919457   208A      1.934084  
     209A      1.989695   210A      2.191492   211A      2.227247  
     212A      2.238220   213A      2.287560   214A      2.298408  
     215A      2.304071   216A      2.310881   217A      2.336550  
     218A      2.368458   219A      2.370558   220A      2.382089  
     221A      2.388319   222A      2.398894   223A      2.424387  
     224A      2.440446   225A      2.467153   226A      2.478247  
     227A      2.486830   228A      2.506033   229A      2.534877  
     230A      2.538685   231A      2.577656   232A      2.605372  
     233A      2.619264   234A      2.644335   235A      2.666936  
     236A      2.688393   237A      2.711467   238A      2.736058  
     239A      2.759478   240A      2.795751   241A      2.807962  
     242A      2.832139   243A      2.848621   244A      2.904510  
     245A      2.930638   246A      2.960163   247A      2.974042  
     248A      2.984818   249A      3.004807   250A      3.018984  
     251A      3.039618   252A      3.056076   253A      3.071227  
     254A      3.100947   255A      3.105872   256A      3.113519  
     257A      3.117118   258A      3.127211   259A      3.145247  
     260A      3.161867   261A      3.181251   262A      3.216358  
     263A      3.235970   264A      3.296637   265A      3.298996  
     266A      3.428348   267A      3.457063   268A      3.502730  
     269A      3.516746   270A      3.535656   271A      3.587242  
     272A      3.605985   273A      3.623772   274A      4.130424  
     275A      4.188381   276A      4.214491   277A      4.238177  
     278A      4.266399   279A      4.333556   280A      4.363338  
     281A      4.371962   282A      4.391549   283A      4.397454  
     284A      4.408553   285A      4.433865   286A      4.461793  
     287A      4.494977   288A      4.507227   289A      4.525560  
     290A      4.545194   291A      4.566385   292A      4.583126  
     293A      4.600827   294A      4.605187   295A      4.631936  
     296A      4.647897   297A      4.702523   298A      4.725118  
     299A      4.834150   300A      4.840387   301A      4.854195  
     302A      4.859576   303A      4.889963   304A      4.912420  
     305A      4.923909   306A      4.951988   307A      4.962887  
     308A      4.972471   309A      4.988755   310A      5.025274  
     311A      5.049505   312A      5.072361   313A      5.092990  
     314A      5.141801   315A      5.231175   316A      5.262503  
     317A      5.269016   318A      5.284918   319A      5.328258  
     320A      5.352650   321A      5.378960   322A      5.399629  
     323A      5.467131   324A      5.496070   325A      5.499730  
     326A      5.551374   327A      5.640474   328A      5.669352  
     329A      5.704222   330A      5.757837   331A      6.035992  
     332A      6.082456   333A      6.106544   334A      6.124173  
     335A      6.145242   336A      6.188083   337A      6.203547  
     338A      6.259894   339A      6.336636   340A      6.453934  
     341A      6.475030   342A      6.578463   343A      6.774731  
     344A      6.791325   345A      6.803254   346A      6.855233  
     347A      7.464238   348A      7.499461   349A      7.514149  
     350A      7.547091   351A      7.591211   352A      7.615084  
     353A      7.622602   354A      7.669511   355A      7.836133  
     356A      7.845523   357A      7.869647   358A      7.877035  
     359A      7.906245   360A      7.937135   361A      7.978540  
     362A      8.000924   363A      8.013378   364A      8.035795  
     365A      8.070220   366A      8.106513   367A      8.395721  
     368A      8.428917   369A      8.467876   370A      8.499389  
     371A      8.504958   372A      8.531258   373A      8.535149  
     374A      8.559034   375A      9.597500   376A      9.618512  
     377A      9.658654   378A      9.678077   379A      9.719589  
     380A      9.739811   381A      9.755836   382A      9.762747  
     383A      9.779578   384A      9.805160   385A      9.814490  
     386A      9.829908   387A      9.959237   388A      9.969640  
     389A      9.986738   390A     10.003247   391A     10.738561  
     392A     10.825980   393A     10.864713   394A     10.873624  
     395A     11.511955   396A     11.558098   397A     11.618309  
     398A     11.657378   399A     11.782167   400A     11.857058  
     401A     11.918690   402A     11.952989   403A     13.209026  
     404A     13.235950   405A     13.274905   406A     13.287800  
     407A     13.700298   408A     13.743997   409A     13.774139  
     410A     13.778852   411A     63.987047   412A     64.309654  
     413A     64.488553   414A     64.984559  

    Final Occupation by Irrep:
              A 
    DOCC [     1 ]
    NA   [     1 ]
    NB   [     1 ]

  @DF-RHF Final Energy:    -7.23638487152558

   => Energetics <=

    Nuclear Repulsion Energy =              0.0000000000000000
    One-Electron Energy =                  -8.8880627685098421
    Two-Electron Energy =                   1.6516778969842645
    Total Energy =                         -7.2363848715255781

Computation Completed


Properties will be evaluated at   0.000000,   0.000000,   0.000000 [a0]

Properties computed using the SCF density matrix


 Multipole Moments:

 ------------------------------------------------------------------------------------
     Multipole            Electronic (a.u.)      Nuclear  (a.u.)        Total (a.u.)
 ------------------------------------------------------------------------------------

 L = 1.  Multiply by 2.5417464519 to convert [e a0] to [Debye]
 Dipole X            :         -0.0000076            0.0000000           -0.0000076
 Dipole Y            :          0.0000030            0.0000000            0.0000030
 Dipole Z            :          0.0000012            0.0000000            0.0000012
 Magnitude           :                                                    0.0000083

 ------------------------------------------------------------------------------------

*** tstop() called on moses-razer at Sat Jan  6 17:49:11 2024
Module time:
	user time   =      15.78 seconds =       0.26 minutes
	system time =       0.66 seconds =       0.01 minutes
	total time  =          3 seconds =       0.05 minutes
Total time:
	user time   =      49.01 seconds =       0.82 minutes
	system time =       2.10 seconds =       0.04 minutes
	total time  =         10 seconds =       0.17 minutes

*** tstart() called on moses-razer
*** at Sat Jan  6 17:49:11 2024


  //>>>>>>>>>>>>>>>>>>>>>>>>>>>>>>>>>>>//
  //               DFMP2               //
  //<<<<<<<<<<<<<<<<<<<<<<<<<<<<<<<<<<<//

   => Loading Basis Set <=

    Name: (AUG-CC-PVTZ AUX)
    Role: RIFIT
    Keyword: DF_BASIS_MP2
    atoms 1                     entry LI         line    90 file /home/kchung25/anaconda3/envs/p415env/share/psi4/basis/def2-qzvpp-ri.gbs 
    atoms 2, 5, 8, 11           entry O          line   264 file /home/kchung25/anaconda3/envs/p415env/share/psi4/basis/aug-cc-pvtz-ri.gbs 
    atoms 3-4, 6-7, 9-10, 12-13 entry H          line    30 file /home/kchung25/anaconda3/envs/p415env/share/psi4/basis/aug-cc-pvtz-ri.gbs 

	 --------------------------------------------------------
	                          DF-MP2                         
	      2nd-Order Density-Fitted Moller-Plesset Theory     
	              RMP2 Wavefunction,   6 Threads             
	                                                         
	        Rob Parrish, Justin Turney, Andy Simmonett,      
	           Ed Hohenstein, and C. David Sherrill          
	 --------------------------------------------------------

   => Auxiliary Basis Set <=

  Basis Set: (AUG-CC-PVTZ AUX)
    Blend: AUG-CC-PVTZ-RI + DEF2-QZVPP-RI
    Number of shells: 251
    Number of basis functions: 893
    Number of Cartesian functions: 1114
    Spherical Harmonics?: true
    Max angular momentum: 4

	 --------------------------------------------------------
	                 NBF =   414, NAUX =   893
	 --------------------------------------------------------
	   CLASS    FOCC     OCC    AOCC    AVIR     VIR    FVIR
	   PAIRS       0       1       1     413     413       0
	 --------------------------------------------------------

	-----------------------------------------------------------
	 ==================> DF-MP2 Energies <==================== 
	-----------------------------------------------------------
	 Reference Energy          =      -7.2363848715255781 [Eh]
	 Singles Energy            =      -0.0000000000000000 [Eh]
	 Same-Spin Energy          =       0.0000000000000000 [Eh]
	 Opposite-Spin Energy      =      -0.0168980321328398 [Eh]
	 Correlation Energy        =      -0.0168980321328398 [Eh]
	 Total Energy              =      -7.2532829036584179 [Eh]
	-----------------------------------------------------------
	 ================> DF-SCS-MP2 Energies <================== 
	-----------------------------------------------------------
	 SCS Same-Spin Scale       =       0.3333333333333333 [-]
	 SCS Opposite-Spin Scale   =       1.2000000000000000 [-]
	 SCS Same-Spin Energy      =       0.0000000000000000 [Eh]
	 SCS Opposite-Spin Energy  =      -0.0202776385594078 [Eh]
	 SCS Correlation Energy    =      -0.0202776385594078 [Eh]
	 SCS Total Energy          =      -7.2566625100849862 [Eh]
	-----------------------------------------------------------


*** tstop() called on moses-razer at Sat Jan  6 17:49:12 2024
Module time:
	user time   =       6.06 seconds =       0.10 minutes
	system time =       0.33 seconds =       0.01 minutes
	total time  =          1 seconds =       0.02 minutes
Total time:
	user time   =      55.07 seconds =       0.92 minutes
	system time =       2.43 seconds =       0.04 minutes
	total time  =         11 seconds =       0.18 minutes

    Psi4 stopped on: Saturday, 06 January 2024 05:49PM
    Psi4 wall time for execution: 0:00:04.51


    -----------------------------------------------------------------------
          Psi4: An Open-Source Ab Initio Electronic Structure Package
                               Psi4 1.9 release

                         Git: Rev {} zzzzzzz 


    D. G. A. Smith, L. A. Burns, A. C. Simmonett, R. M. Parrish,
    M. C. Schieber, R. Galvelis, P. Kraus, H. Kruse, R. Di Remigio,
    A. Alenaizan, A. M. James, S. Lehtola, J. P. Misiewicz, M. Scheurer,
    R. A. Shaw, J. B. Schriber, Y. Xie, Z. L. Glick, D. A. Sirianni,
    J. S. O'Brien, J. M. Waldrop, A. Kumar, E. G. Hohenstein,
    B. P. Pritchard, B. R. Brooks, H. F. Schaefer III, A. Yu. Sokolov,
    K. Patkowski, A. E. DePrince III, U. Bozkaya, R. A. King,
    F. A. Evangelista, J. M. Turney, T. D. Crawford, C. D. Sherrill,
    J. Chem. Phys. 152(18) 184108 (2020). https://doi.org/10.1063/5.0006002

                            Additional Code Authors
    E. T. Seidl, C. L. Janssen, E. F. Valeev, M. L. Leininger,
    J. F. Gonthier, R. M. Richard, H. R. McAlexander, M. Saitow, X. Wang,
    P. Verma, M. H. Lechner, A. Jiang, S. Behnle, A. G. Heide,
    M. F. Herbst, and D. L. Poole

             Previous Authors, Complete List of Code Contributors,
                       and Citations for Specific Modules
    https://github.com/psi4/psi4/blob/master/codemeta.json
    https://github.com/psi4/psi4/graphs/contributors
    http://psicode.org/psi4manual/master/introduction.html#citing-psifour

    -----------------------------------------------------------------------


    Psi4 started on: Saturday, 06 January 2024 05:49PM

    Process ID: 549595
    Host:       moses-razer
    PSIDATADIR: /home/kchung25/anaconda3/envs/psi4_19/share/psi4
    Memory:     55.9 GiB
    Threads:    6
    
  ==> Input QCSchema <==

--------------------------------------------------------------------------
{'driver': 'energy',
 'extras': {'psiapi': True, 'wfn_qcvars_only': True},
 'id': None,
 'keywords': {'SCF_TYPE': 'DF', 'function_kwargs': {}},
 'model': {'basis': 'aug-cc-pvtz', 'method': 'mp2'},
 'molecule': {'atom_labels': ['', '', '', '', '', '', '', '', '', '', '', '', ''],
              'atomic_numbers': [3, 8, 1, 1, 8, 1, 1, 8, 1, 1, 8, 1, 1],
              'extras': {},
              'fix_com': True,
              'fix_orientation': True,
              'fix_symmetry': 'c1',
              'fragment_charges': [1.0, 0.0],
              'fragment_multiplicities': [1, 1],
              'fragments': [[0], [1, 2, 3, 4, 5, 6, 7, 8, 9, 10, 11, 12]],
              'geometry': [0.0, 0.0, 0.0, -1.3735266473016423, -0.22318043486882042, 3.611597327821865,
                           -0.21914586959096796, -0.4012360995878334, 5.08025845745743, -3.066025836497688,
                           -0.7545619727169345, 4.111494138693725, 1.876186237768923, 3.010505682931737,
                           0.41283712827201896, 1.3268711989902142, 4.538685626614722, 1.2956283569580198,
                           2.1429777721610583, 3.5394910480527706, -1.3481589637934965, 1.8498396761277898,
                           -3.0750851835431328, -0.7924642096152421, 0.6093006151791166, -4.341296173906151,
                           -1.1637084658659342, 2.690618513592612, -3.704445241543984, 0.824935373628984,
                           -3.1088848250230714, -0.47372599376039565, -2.1158110693814773, -3.4660260551994715,
                           1.0509768538517474, -3.1451751255363636, -4.615094812771485, -0.8193266664886251,
                           -1.1677184647041556],
              'mass_numbers': [7, 16, 1, 1, 16, 1, 1, 16, 1, 1, 16, 1, 1],
              'masses': [7.0160034366, 15.99491461957, 1.00782503223, 1.00782503223, 15.99491461957, 1.00782503223,
                         1.00782503223, 15.99491461957, 1.00782503223, 1.00782503223, 15.99491461957, 1.00782503223,
                         1.00782503223],
              'molecular_charge': 1.0,
              'molecular_multiplicity': 1,
              'name': 'dimer',
              'provenance': {'creator': 'QCElemental',
                             'routine': 'qcelemental.molparse.from_string',
                             'version': '0.27.1'},
              'real': [True, True, True, True, True, True, True, True, True, True, True, True, True],
              'schema_name': 'qcschema_molecule',
              'schema_version': 2,
              'symbols': ['Li', 'O', 'H', 'H', 'O', 'H', 'H', 'O', 'H', 'H', 'O', 'H', 'H'],
              'validated': True},
 'protocols': {'stdout': True},
 'provenance': {'creator': 'QCElemental', 'routine': 'qcelemental.models.results', 'version': '0.27.1'},
 'schema_name': 'qcschema_input',
 'schema_version': 1}
--------------------------------------------------------------------------

Scratch directory: /scratch/
   => Libint2 <=

    Primary   basis highest AM E, G, H:  5, 4, 3
    Auxiliary basis highest AM E, G, H:  6, 5, 4
    Onebody   basis highest AM E, G, H:  6, 5, 4
    Solid Harmonics ordering:            gaussian

*** tstart() called on moses-razer
*** at Sat Jan  6 17:49:12 2024

   => Loading Basis Set <=

    Name: AUG-CC-PVTZ
    Role: ORBITAL
    Keyword: BASIS
    atoms 1                     entry LI         line    85 file /home/kchung25/anaconda3/envs/p415env/share/psi4/basis/aug-cc-pvtz.gbs 
    atoms 2, 5, 8, 11           entry O          line   331 file /home/kchung25/anaconda3/envs/p415env/share/psi4/basis/aug-cc-pvtz.gbs 
    atoms 3-4, 6-7, 9-10, 12-13 entry H          line    40 file /home/kchung25/anaconda3/envs/p415env/share/psi4/basis/aug-cc-pvtz.gbs 


         ---------------------------------------------------------
                                   SCF
               by Justin Turney, Rob Parrish, Andy Simmonett
                          and Daniel G. A. Smith
                              RHF Reference
                        6 Threads,  57220 MiB Core
         ---------------------------------------------------------

  ==> Geometry <==

    Molecular point group: c1
    Full point group: C1

    Geometry (in Bohr), charge = 1, multiplicity = 1:

       Center              X                  Y                   Z               Mass       
    ------------   -----------------  -----------------  -----------------  -----------------
         LI           0.000000000000     0.000000000000     0.000000000000     7.016003436600
         O           -1.373526647302    -0.223180434869     3.611597327822    15.994914619570
         H           -0.219145869591    -0.401236099588     5.080258457457     1.007825032230
         H           -3.066025836498    -0.754561972717     4.111494138694     1.007825032230
         O            1.876186237769     3.010505682932     0.412837128272    15.994914619570
         H            1.326871198990     4.538685626615     1.295628356958     1.007825032230
         H            2.142977772161     3.539491048053    -1.348158963793     1.007825032230
         O            1.849839676128    -3.075085183543    -0.792464209615    15.994914619570
         H            0.609300615179    -4.341296173906    -1.163708465866     1.007825032230
         H            2.690618513593    -3.704445241544     0.824935373629     1.007825032230
         O           -3.108884825023    -0.473725993760    -2.115811069381    15.994914619570
         H           -3.466026055199     1.050976853852    -3.145175125536     1.007825032230
         H           -4.615094812771    -0.819326666489    -1.167718464704     1.007825032230

  Running in c1 symmetry.

  Rotational constants: A =      0.09397  B =      0.08175  C =      0.07782 [cm^-1]
  Rotational constants: A =   2817.17625  B =   2450.77118  C =   2333.06249 [MHz]
  Nuclear repulsion =  161.828487228290811

  Charge       = 1
  Multiplicity = 1
  Electrons    = 42
  Nalpha       = 21
  Nbeta        = 21

  ==> Algorithm <==

  SCF Algorithm Type is DF.
  DIIS enabled.
  MOM disabled.
  Fractional occupation disabled.
  Guess Type is SAD.
  Energy threshold   = 1.00e-08
  Density threshold  = 1.00e-08
  Integral threshold = 1.00e-12

  ==> Primary Basis <==

  Basis Set: AUG-CC-PVTZ
    Blend: AUG-CC-PVTZ
    Number of shells: 142
    Number of basis functions: 414
    Number of Cartesian functions: 475
    Spherical Harmonics?: true
    Max angular momentum: 3

   => Loading Basis Set <=

    Name: (AUG-CC-PVTZ AUX)
    Role: JKFIT
    Keyword: DF_BASIS_SCF
    atoms 1                     entry LI         line    54 file /home/kchung25/anaconda3/envs/p415env/share/psi4/basis/def2-universal-jkfit.gbs 
    atoms 2, 5, 8, 11           entry O          line   286 file /home/kchung25/anaconda3/envs/p415env/share/psi4/basis/aug-cc-pvtz-jkfit.gbs 
    atoms 3-4, 6-7, 9-10, 12-13 entry H          line    70 file /home/kchung25/anaconda3/envs/p415env/share/psi4/basis/aug-cc-pvtz-jkfit.gbs 

  ==> Integral Setup <==

  DFHelper Memory: AOs need 1.067 GiB; user supplied 41.910 GiB. 
  Using in-core AOs.

  ==> MemDFJK: Density-Fitted J/K Matrices <==

    J tasked:                   Yes
    K tasked:                   Yes
    wK tasked:                   No
    OpenMP threads:               6
    Memory [MiB]:             42915
    Algorithm:                 Core
    Schwarz Cutoff:           1E-12
    Mask sparsity (%):       4.3828
    Fitting Condition:        1E-10

   => Auxiliary Basis Set <=

  Basis Set: (AUG-CC-PVTZ AUX)
    Blend: AUG-CC-PVTZ-JKFIT + DEF2-UNIVERSAL-JKFIT
    Number of shells: 249
    Number of basis functions: 835
    Number of Cartesian functions: 1024
    Spherical Harmonics?: true
    Max angular momentum: 4

  Minimum eigenvalue in the overlap matrix is 1.9174959073E-05.
  Reciprocal condition number of the overlap matrix is 1.3319188748E-06.
    Using symmetric orthogonalization.

  ==> Pre-Iterations <==

  SCF Guess: Superposition of Atomic Densities via on-the-fly atomic UHF (no occupation information).

   -------------------------
    Irrep   Nso     Nmo    
   -------------------------
     A        414     414 
   -------------------------
    Total     414     414
   -------------------------

  ==> Iterations <==

                           Total Energy        Delta E     RMS |[F,P]|

   @DF-RHF iter SAD:  -309.50206046267471   -3.09502e+02   0.00000e+00 
   @DF-RHF iter   1:  -311.27027772743077   -1.76822e+00   2.28149e-03 ADIIS/DIIS
   @DF-RHF iter   2:  -311.49345282154161   -2.23175e-01   1.50816e-03 ADIIS/DIIS
   @DF-RHF iter   3:  -311.61419909413240   -1.20746e-01   1.13395e-04 ADIIS/DIIS
   @DF-RHF iter   4:  -311.61596096201572   -1.76187e-03   2.84634e-05 DIIS
   @DF-RHF iter   5:  -311.61607911115800   -1.18149e-04   6.75101e-06 DIIS
   @DF-RHF iter   6:  -311.61608865856408   -9.54741e-06   2.12998e-06 DIIS
   @DF-RHF iter   7:  -311.61608917919642   -5.20632e-07   7.83455e-07 DIIS
   @DF-RHF iter   8:  -311.61608926438396   -8.51875e-08   1.29582e-07 DIIS
   @DF-RHF iter   9:  -311.61608926759288   -3.20892e-09   2.46080e-08 DIIS
   @DF-RHF iter  10:  -311.61608926770634   -1.13459e-10   6.53853e-09 DIIS
  Energy and wave function converged.


  ==> Post-Iterations <==

    Orbital Energies [Eh]
    ---------------------

    Doubly Occupied:                                                      

       1A    -20.756848     2A    -20.754797     3A    -20.752332  
       4A    -20.744885     5A     -2.535051     6A     -1.536299  
       7A     -1.533069     8A     -1.524602     9A     -1.517549  
      10A     -0.903164    11A     -0.897415    12A     -0.892601  
      13A     -0.875312    14A     -0.791727    15A     -0.783746  
      16A     -0.771351    17A     -0.761986    18A     -0.710428  
      19A     -0.704592    20A     -0.698311    21A     -0.686230  

    Virtual:                                                              

      22A     -0.103712    23A     -0.082174    24A     -0.075609  
      25A     -0.070801    26A     -0.048250    27A     -0.047291  
      28A     -0.044622    29A     -0.042318    30A     -0.036897  
      31A     -0.035067    32A     -0.033183    33A     -0.027626  
      34A     -0.024498    35A     -0.012252    36A     -0.007281  
      37A      0.003710    38A      0.024170    39A      0.026296  
      40A      0.032069    41A      0.041062    42A      0.043307  
      43A      0.048872    44A      0.050636    45A      0.053306  
      46A      0.055959    47A      0.066551    48A      0.068824  
      49A      0.075594    50A      0.079967    51A      0.088289  
      52A      0.093600    53A      0.103081    54A      0.104917  
      55A      0.107528    56A      0.114179    57A      0.127292  
      58A      0.136471    59A      0.155145    60A      0.159174  
      61A      0.162036    62A      0.178810    63A      0.188275  
      64A      0.192373    65A      0.196669    66A      0.204537  
      67A      0.213903    68A      0.217621    69A      0.226565  
      70A      0.232040    71A      0.237951    72A      0.244765  
      73A      0.257830    74A      0.258531    75A      0.262746  
      76A      0.266994    77A      0.272008    78A      0.281959  
      79A      0.289376    80A      0.293023    81A      0.297148  
      82A      0.306355    83A      0.308259    84A      0.319851  
      85A      0.321569    86A      0.328341    87A      0.334949  
      88A      0.340013    89A      0.345413    90A      0.349740  
      91A      0.356212    92A      0.359855    93A      0.362679  
      94A      0.366501    95A      0.369636    96A      0.373996  
      97A      0.388269    98A      0.389712    99A      0.394761  
     100A      0.406113   101A      0.414183   102A      0.432961  
     103A      0.434097   104A      0.450761   105A      0.464351  
     106A      0.492127   107A      0.497791   108A      0.523870  
     109A      0.551867   110A      0.579056   111A      0.584219  
     112A      0.589309   113A      0.596098   114A      0.600411  
     115A      0.607666   116A      0.616410   117A      0.626105  
     118A      0.632905   119A      0.640009   120A      0.668413  
     121A      0.675184   122A      0.691317   123A      0.702210  
     124A      0.706439   125A      0.718245   126A      0.727836  
     127A      0.732850   128A      0.741135   129A      0.748998  
     130A      0.764381   131A      0.771439   132A      0.776085  
     133A      0.779233   134A      0.791077   135A      0.803530  
     136A      0.807491   137A      0.816604   138A      0.833498  
     139A      0.839464   140A      0.843006   141A      0.846862  
     142A      0.850221   143A      0.863690   144A      0.864466  
     145A      0.888803   146A      0.893287   147A      0.901371  
     148A      0.915093   149A      0.918737   150A      0.925581  
     151A      0.927801   152A      0.940770   153A      0.942574  
     154A      0.955327   155A      0.957172   156A      0.970833  
     157A      0.978054   158A      0.980222   159A      0.988524  
     160A      0.997624   161A      1.013345   162A      1.023869  
     163A      1.034852   164A      1.044661   165A      1.053690  
     166A      1.064396   167A      1.068409   168A      1.073184  
     169A      1.081601   170A      1.092046   171A      1.099968  
     172A      1.108350   173A      1.117500   174A      1.135468  
     175A      1.143211   176A      1.152053   177A      1.157081  
     178A      1.173600   179A      1.181457   180A      1.191733  
     181A      1.216380   182A      1.235999   183A      1.241250  
     184A      1.263134   185A      1.271288   186A      1.312316  
     187A      1.321134   188A      1.333006   189A      1.354377  
     190A      1.377204   191A      1.384212   192A      1.398071  
     193A      1.402361   194A      1.427724   195A      1.447574  
     196A      1.453704   197A      1.488247   198A      1.498874  
     199A      1.517973   200A      1.535003   201A      1.563922  
     202A      1.585903   203A      1.590874   204A      1.613344  
     205A      1.633815   206A      1.651333   207A      1.667575  
     208A      1.672859   209A      1.678174   210A      1.688172  
     211A      1.695546   212A      1.708025   213A      1.734785  
     214A      1.758297   215A      1.767729   216A      1.811161  
     217A      1.832331   218A      1.850917   219A      1.878206  
     220A      1.890768   221A      1.900568   222A      1.918707  
     223A      1.953772   224A      1.960682   225A      1.994778  
     226A      2.024259   227A      2.044619   228A      2.048822  
     229A      2.114332   230A      2.165126   231A      2.195419  
     232A      2.233319   233A      2.235166   234A      2.241025  
     235A      2.259126   236A      2.289657   237A      2.298007  
     238A      2.320535   239A      2.337021   240A      2.371259  
     241A      2.374013   242A      2.386106   243A      2.410560  
     244A      2.428058   245A      2.453025   246A      2.469996  
     247A      2.479497   248A      2.491584   249A      2.505322  
     250A      2.507315   251A      2.535450   252A      2.558048  
     253A      2.567904   254A      2.597483   255A      2.601085  
     256A      2.610710   257A      2.620082   258A      2.625865  
     259A      2.643838   260A      2.655057   261A      2.664844  
     262A      2.676730   263A      2.683575   264A      2.710171  
     265A      2.736463   266A      2.753100   267A      2.758067  
     268A      2.789246   269A      2.806177   270A      2.810710  
     271A      2.846443   272A      2.854688   273A      2.875699  
     274A      2.890862   275A      2.951948   276A      2.993416  
     277A      3.044214   278A      3.627414   279A      3.676406  
     280A      3.706474   281A      3.712272   282A      3.734734  
     283A      3.751622   284A      3.777749   285A      3.803334  
     286A      3.907059   287A      3.932551   288A      3.949020  
     289A      3.975532   290A      4.038578   291A      4.065255  
     292A      4.086718   293A      4.094564   294A      4.111083  
     295A      4.122842   296A      4.133572   297A      4.147835  
     298A      4.158494   299A      4.184489   300A      4.216518  
     301A      4.230800   302A      4.293709   303A      4.302699  
     304A      4.323209   305A      4.327999   306A      4.342437  
     307A      4.352504   308A      4.364080   309A      4.371275  
     310A      4.379838   311A      4.412641   312A      4.417312  
     313A      4.428568   314A      4.450168   315A      4.460851  
     316A      4.475606   317A      4.496826   318A      4.517419  
     319A      4.531736   320A      4.540060   321A      4.551455  
     322A      4.608957   323A      4.632995   324A      4.647555  
     325A      4.661690   326A      4.675472   327A      4.709748  
     328A      4.726386   329A      4.786842   330A      4.866777  
     331A      4.929696   332A      4.949953   333A      4.962161  
     334A      4.978254   335A      4.984413   336A      4.990773  
     337A      5.047625   338A      5.094931   339A      5.119288  
     340A      5.147462   341A      5.150108   342A      5.157951  
     343A      5.178603   344A      5.192012   345A      5.236269  
     346A      5.254054   347A      5.321310   348A      5.383176  
     349A      5.420136   350A      5.448682   351A      5.624649  
     352A      5.644065   353A      5.665682   354A      5.715082  
     355A      6.126427   356A      6.150121   357A      6.175814  
     358A      6.201481   359A      6.443632   360A      6.468491  
     361A      6.489782   362A      6.516754   363A      6.605944  
     364A      6.648423   365A      6.660412   366A      6.684006  
     367A      6.749806   368A      6.774440   369A      6.791258  
     370A      6.820231   371A      6.986890   372A      6.991810  
     373A      7.002400   374A      7.015163   375A      7.087383  
     376A      7.125880   377A      7.131325   378A      7.135844  
     379A      7.148657   380A      7.167200   381A      7.172312  
     382A      7.185956   383A      7.189209   384A      7.217550  
     385A      7.223329   386A      7.227560   387A      7.235337  
     388A      7.257436   389A      7.266535   390A      7.270822  
     391A      7.301511   392A      7.336771   393A      7.341729  
     394A      7.359186   395A      7.451348   396A      7.467593  
     397A      7.495199   398A      7.580027   399A      7.702686  
     400A      7.716804   401A      7.729290   402A      7.748325  
     403A      7.761922   404A      7.802827   405A      7.817795  
     406A      7.857373   407A      8.544282   408A      8.601978  
     409A      8.637558   410A      8.670790   411A     15.293588  
     412A     15.448015   413A     15.530815   414A     15.762641  

    Final Occupation by Irrep:
              A 
    DOCC [    21 ]
    NA   [    21 ]
    NB   [    21 ]

  @DF-RHF Final Energy:  -311.61608926770634

   => Energetics <=

    Nuclear Repulsion Energy =            161.8284872282908111
    One-Electron Energy =                -744.6245524958403621
    Two-Electron Energy =                 271.1799759998432364
    Total Energy =                       -311.6160892677063430

Computation Completed


Properties will be evaluated at   0.000000,   0.000000,   0.000000 [a0]

Properties computed using the SCF density matrix


 Multipole Moments:

 ------------------------------------------------------------------------------------
     Multipole            Electronic (a.u.)      Nuclear  (a.u.)        Total (a.u.)
 ------------------------------------------------------------------------------------

 L = 1.  Multiply by 2.5417464519 to convert [e a0] to [Debye]
 Dipole X            :          9.4738722          -10.6476089           -1.1737367
 Dipole Y            :          7.2046974           -6.9836001            0.2210974
 Dipole Z            :        -12.5075948           13.4168287            0.9092339
 Magnitude           :                                                    1.5010824

 ------------------------------------------------------------------------------------

*** tstop() called on moses-razer at Sat Jan  6 17:49:17 2024
Module time:
	user time   =      23.79 seconds =       0.40 minutes
	system time =       0.66 seconds =       0.01 minutes
	total time  =          5 seconds =       0.08 minutes
Total time:
	user time   =      79.27 seconds =       1.32 minutes
	system time =       3.10 seconds =       0.05 minutes
	total time  =         16 seconds =       0.27 minutes

*** tstart() called on moses-razer
*** at Sat Jan  6 17:49:17 2024


  //>>>>>>>>>>>>>>>>>>>>>>>>>>>>>>>>>>>//
  //               DFMP2               //
  //<<<<<<<<<<<<<<<<<<<<<<<<<<<<<<<<<<<//

   => Loading Basis Set <=

    Name: (AUG-CC-PVTZ AUX)
    Role: RIFIT
    Keyword: DF_BASIS_MP2
    atoms 1                     entry LI         line    90 file /home/kchung25/anaconda3/envs/p415env/share/psi4/basis/def2-qzvpp-ri.gbs 
    atoms 2, 5, 8, 11           entry O          line   264 file /home/kchung25/anaconda3/envs/p415env/share/psi4/basis/aug-cc-pvtz-ri.gbs 
    atoms 3-4, 6-7, 9-10, 12-13 entry H          line    30 file /home/kchung25/anaconda3/envs/p415env/share/psi4/basis/aug-cc-pvtz-ri.gbs 

	 --------------------------------------------------------
	                          DF-MP2                         
	      2nd-Order Density-Fitted Moller-Plesset Theory     
	              RMP2 Wavefunction,   6 Threads             
	                                                         
	        Rob Parrish, Justin Turney, Andy Simmonett,      
	           Ed Hohenstein, and C. David Sherrill          
	 --------------------------------------------------------

   => Auxiliary Basis Set <=

  Basis Set: (AUG-CC-PVTZ AUX)
    Blend: AUG-CC-PVTZ-RI + DEF2-QZVPP-RI
    Number of shells: 251
    Number of basis functions: 893
    Number of Cartesian functions: 1114
    Spherical Harmonics?: true
    Max angular momentum: 4

	 --------------------------------------------------------
	                 NBF =   414, NAUX =   893
	 --------------------------------------------------------
	   CLASS    FOCC     OCC    AOCC    AVIR     VIR    FVIR
	   PAIRS       0      21      21     393     393       0
	 --------------------------------------------------------

	-----------------------------------------------------------
	 ==================> DF-MP2 Energies <==================== 
	-----------------------------------------------------------
	 Reference Energy          =    -311.6160892677063430 [Eh]
	 Singles Energy            =      -0.0000000000000000 [Eh]
	 Same-Spin Energy          =      -0.2768191686388037 [Eh]
	 Opposite-Spin Energy      =      -0.8825572110895691 [Eh]
	 Correlation Energy        =      -1.1593763797283727 [Eh]
	 Total Energy              =    -312.7754656474347144 [Eh]
	-----------------------------------------------------------
	 ================> DF-SCS-MP2 Energies <================== 
	-----------------------------------------------------------
	 SCS Same-Spin Scale       =       0.3333333333333333 [-]
	 SCS Opposite-Spin Scale   =       1.2000000000000000 [-]
	 SCS Same-Spin Energy      =      -0.0922730562129346 [Eh]
	 SCS Opposite-Spin Energy  =      -1.0590686533074829 [Eh]
	 SCS Correlation Energy    =      -1.1513417095204175 [Eh]
	 SCS Total Energy          =    -312.7674309772267520 [Eh]
	-----------------------------------------------------------


*** tstop() called on moses-razer at Sat Jan  6 17:49:19 2024
Module time:
	user time   =       9.29 seconds =       0.15 minutes
	system time =       0.47 seconds =       0.01 minutes
	total time  =          2 seconds =       0.03 minutes
Total time:
	user time   =      88.57 seconds =       1.48 minutes
	system time =       3.57 seconds =       0.06 minutes
	total time  =         18 seconds =       0.30 minutes

    Psi4 stopped on: Saturday, 06 January 2024 05:49PM
    Psi4 wall time for execution: 0:00:06.41


  //>>>>>>>>>>>>>>>>>>>>>>>>>>>>>>>>>>>//
  //          ManyBody Results         //
  //<<<<<<<<<<<<<<<<<<<<<<<<<<<<<<<<<<<//


   ==> N-Body: Counterpoise Corrected (CP) energies <==

        n-Body     Total Energy            Interaction Energy                          N-body Contribution to Interaction Energy
                   [Eh]                    [Eh]                  [kcal/mol]            [Eh]                  [kcal/mol]
             1  N/A                         0.000000000000        0.000000000000        0.000000000000        0.000000000000
  FULL/RTN   2  N/A                        -0.161431630966     -101.299877798832       -0.161431630966     -101.299877798832


    Psi4 stopped on: Saturday, 06 January 2024 05:49PM
    Psi4 wall time for execution: 0:00:19.04

*** Psi4 exiting successfully. Buy a developer a beer!
