
    -----------------------------------------------------------------------
          Psi4: An Open-Source Ab Initio Electronic Structure Package
                               Psi4 1.8.2 release

                         Git: Rev {} zzzzzzz 


    D. G. A. Smith, L. A. Burns, A. C. Simmonett, R. M. Parrish,
    M. C. Schieber, R. Galvelis, P. Kraus, H. Kruse, R. Di Remigio,
    A. Alenaizan, A. M. James, S. Lehtola, J. P. Misiewicz, M. Scheurer,
    R. A. Shaw, J. B. Schriber, Y. Xie, Z. L. Glick, D. A. Sirianni,
    J. S. O'Brien, J. M. Waldrop, A. Kumar, E. G. Hohenstein,
    B. P. Pritchard, B. R. Brooks, H. F. Schaefer III, A. Yu. Sokolov,
    K. Patkowski, A. E. DePrince III, U. Bozkaya, R. A. King,
    F. A. Evangelista, J. M. Turney, T. D. Crawford, C. D. Sherrill,
    J. Chem. Phys. 152(18) 184108 (2020). https://doi.org/10.1063/5.0006002

                            Additional Code Authors
    E. T. Seidl, C. L. Janssen, E. F. Valeev, M. L. Leininger,
    J. F. Gonthier, R. M. Richard, H. R. McAlexander, M. Saitow, X. Wang,
    P. Verma, M. H. Lechner, A. Jiang, S. Behnle, A. G. Heide,
    M. F. Herbst, and D. L. Poole

             Previous Authors, Complete List of Code Contributors,
                       and Citations for Specific Modules
    https://github.com/psi4/psi4/blob/master/codemeta.json
    https://github.com/psi4/psi4/graphs/contributors
    http://psicode.org/psi4manual/master/introduction.html#citing-psifour

    -----------------------------------------------------------------------


    Psi4 started on: Monday, 22 January 2024 12:53PM

    Process ID: 51486
    Host:       ddmfs1
    PSIDATADIR: /ddmfs1b/softs/psi4conda/share/psi4
    Memory:     500.0 MiB
    Threads:    20
    
  ==> Input File <==

--------------------------------------------------------------------------
MEMORY 60 GB

molecule dimer {
1 1
Li         0.000000     0.000000     0.000000
Gh(O)      1.019083     0.534807    -1.726191
Gh(H)      0.625080     0.290251    -2.608177
Gh(H)      0.830858     1.498588    -1.618666
Gh(O)      0.965199     1.220004     1.116919
Gh(H)      0.489944     1.995527     1.292918
Gh(H)      1.415083     0.944086     1.921579
Gh(O)     -1.437462     1.300273    -0.217367
Gh(H)     -1.717662     1.772714     0.555732
Gh(H)     -1.328741     1.931896    -0.948455
Gh(O)     -0.568332    -1.731301    -0.760465
Gh(H)     -0.202881    -1.985016    -1.680965
Gh(H)     -0.497598    -2.566820    -0.278428

units ang
no_reorient
no_com
symmetry c1
}

set {
basis        aug-cc-pVTZ
scf_type     df
}

energy("mp2")
--------------------------------------------------------------------------

  Memory set to  55.879 GiB by Python driver.

Scratch directory: /ddmfs1a/scratch/
   => Libint2 <=

    Primary   basis highest AM E, G, H:  5, 4, 3
    Auxiliary basis highest AM E, G, H:  6, 5, 4
    Onebody   basis highest AM E, G, H:  6, 5, 4
    Solid Harmonics ordering:            gaussian

*** tstart() called on ddmfs1
*** at Mon Jan 22 12:53:11 2024

   => Loading Basis Set <=

    Name: AUG-CC-PVTZ
    Role: ORBITAL
    Keyword: BASIS
    atoms 1                     entry LI         line    85 file /ddmfs1b/softs/psi4conda/share/psi4/basis/aug-cc-pvtz.gbs 
    atoms 2, 5, 8, 11           entry O          line   331 file /ddmfs1b/softs/psi4conda/share/psi4/basis/aug-cc-pvtz.gbs 
    atoms 3-4, 6-7, 9-10, 12-13 entry H          line    40 file /ddmfs1b/softs/psi4conda/share/psi4/basis/aug-cc-pvtz.gbs 


         ---------------------------------------------------------
                                   SCF
               by Justin Turney, Rob Parrish, Andy Simmonett
                          and Daniel G. A. Smith
                              RHF Reference
                       20 Threads,  57220 MiB Core
         ---------------------------------------------------------

  ==> Geometry <==

    Molecular point group: c1
    Full point group: C1

    Geometry (in Angstrom), charge = 1, multiplicity = 1:

       Center              X                  Y                   Z               Mass       
    ------------   -----------------  -----------------  -----------------  -----------------
         LI           0.000000000000     0.000000000000     0.000000000000     7.016003436600
      Gh(O)           1.019083000000     0.534807000000    -1.726191000000    15.994914619570
      Gh(H)           0.625080000000     0.290251000000    -2.608177000000     1.007825032230
      Gh(H)           0.830858000000     1.498588000000    -1.618666000000     1.007825032230
      Gh(O)           0.965199000000     1.220004000000     1.116919000000    15.994914619570
      Gh(H)           0.489944000000     1.995527000000     1.292918000000     1.007825032230
      Gh(H)           1.415083000000     0.944086000000     1.921579000000     1.007825032230
      Gh(O)          -1.437462000000     1.300273000000    -0.217367000000    15.994914619570
      Gh(H)          -1.717662000000     1.772714000000     0.555732000000     1.007825032230
      Gh(H)          -1.328741000000     1.931896000000    -0.948455000000     1.007825032230
      Gh(O)          -0.568332000000    -1.731301000000    -0.760465000000    15.994914619570
      Gh(H)          -0.202881000000    -1.985016000000    -1.680965000000     1.007825032230
      Gh(H)          -0.497598000000    -2.566820000000    -0.278428000000     1.007825032230

  Running in c1 symmetry.

  Rotational constants: A =      0.10798  B =      0.07673  C =      0.07326 [cm^-1]
  Rotational constants: A =   3237.26799  B =   2300.23881  C =   2196.42276 [MHz]
  Nuclear repulsion =    0.000000000000000

  Charge       = 1
  Multiplicity = 1
  Electrons    = 2
  Nalpha       = 1
  Nbeta        = 1

  ==> Algorithm <==

  SCF Algorithm Type is DF.
  DIIS enabled.
  MOM disabled.
  Fractional occupation disabled.
  Guess Type is SAD.
  Energy threshold   = 1.00e-08
  Density threshold  = 1.00e-08
  Integral threshold = 1.00e-12

  ==> Primary Basis <==

  Basis Set: AUG-CC-PVTZ
    Blend: AUG-CC-PVTZ
    Number of shells: 142
    Number of basis functions: 414
    Number of Cartesian functions: 475
    Spherical Harmonics?: true
    Max angular momentum: 3

   => Loading Basis Set <=

    Name: (AUG-CC-PVTZ AUX)
    Role: JKFIT
    Keyword: DF_BASIS_SCF
    atoms 1                     entry LI         line    54 file /ddmfs1b/softs/psi4conda/share/psi4/basis/def2-universal-jkfit.gbs 
    atoms 2, 5, 8, 11           entry O          line   286 file /ddmfs1b/softs/psi4conda/share/psi4/basis/aug-cc-pvtz-jkfit.gbs 
    atoms 3-4, 6-7, 9-10, 12-13 entry H          line    70 file /ddmfs1b/softs/psi4conda/share/psi4/basis/aug-cc-pvtz-jkfit.gbs 

  ==> Integral Setup <==

  DFHelper Memory: AOs need 1.089 GiB; user supplied 41.910 GiB. 
  Using in-core AOs.

  ==> MemDFJK: Density-Fitted J/K Matrices <==

    J tasked:                   Yes
    K tasked:                   Yes
    wK tasked:                   No
    OpenMP threads:              20
    Memory [MiB]:             42915
    Algorithm:                 Core
    Schwarz Cutoff:           1E-12
    Mask sparsity (%):       4.0071
    Fitting Condition:        1E-10

   => Auxiliary Basis Set <=

  Basis Set: (AUG-CC-PVTZ AUX)
    Blend: AUG-CC-PVTZ-JKFIT + DEF2-UNIVERSAL-JKFIT
    Number of shells: 249
    Number of basis functions: 835
    Number of Cartesian functions: 1024
    Spherical Harmonics?: true
    Max angular momentum: 4

  Minimum eigenvalue in the overlap matrix is 1.8873911568E-05.
  Reciprocal condition number of the overlap matrix is 1.2477052937E-06.
    Using symmetric orthogonalization.

  ==> Pre-Iterations <==

  SCF Guess: Superposition of Atomic Densities via on-the-fly atomic UHF (no occupation information).

   -------------------------
    Irrep   Nso     Nmo    
   -------------------------
     A        414     414 
   -------------------------
    Total     414     414
   -------------------------

  ==> Iterations <==

                           Total Energy        Delta E     RMS |[F,P]|

   @DF-RHF iter SAD:    -7.31418971672317   -7.31419e+00   0.00000e+00 
   @DF-RHF iter   1:    -7.23638292865817    7.78068e-02   5.48785e-06 DIIS
   @DF-RHF iter   2:    -7.23638484970351   -1.92105e-06   6.68662e-07 DIIS
   @DF-RHF iter   3:    -7.23638488111562   -3.14121e-08   3.46729e-08 DIIS
   @DF-RHF iter   4:    -7.23638488117741   -6.17897e-11   2.61328e-10 DIIS
  Energy and wave function converged.


  ==> Post-Iterations <==

    Orbital Energies [Eh]
    ---------------------

    Doubly Occupied:                                                      

       1A     -2.792353  

    Virtual:                                                              

       2A     -0.196302     3A     -0.128605     4A     -0.128601  
       5A     -0.128599     6A     -0.073776     7A     -0.056398  
       8A     -0.056391     9A     -0.056389    10A     -0.051609  
      11A     -0.050905    12A     -0.050041    13A     -0.048277  
      14A     -0.045808    15A     -0.025826    16A     -0.012057  
      17A     -0.009529    18A     -0.008696    19A     -0.008569  
      20A     -0.006827    21A      0.006073    22A      0.010401  
      23A      0.016159    24A      0.017114    25A      0.019316  
      26A      0.031530    27A      0.034544    28A      0.038465  
      29A      0.047468    30A      0.053806    31A      0.067174  
      32A      0.078430    33A      0.087340    34A      0.094139  
      35A      0.095130    36A      0.098478    37A      0.104798  
      38A      0.106798    39A      0.126309    40A      0.138383  
      41A      0.140005    42A      0.144185    43A      0.152307  
      44A      0.161038    45A      0.163301    46A      0.169535  
      47A      0.171942    48A      0.181788    49A      0.183558  
      50A      0.191098    51A      0.200446    52A      0.202463  
      53A      0.220226    54A      0.223926    55A      0.230575  
      56A      0.233637    57A      0.240962    58A      0.253560  
      59A      0.262844    60A      0.266127    61A      0.267692  
      62A      0.278938    63A      0.282529    64A      0.285529  
      65A      0.290184    66A      0.302850    67A      0.306509  
      68A      0.314908    69A      0.317052    70A      0.326099  
      71A      0.330599    72A      0.339584    73A      0.343110  
      74A      0.345306    75A      0.351927    76A      0.363786  
      77A      0.366835    78A      0.376215    79A      0.380538  
      80A      0.385137    81A      0.398212    82A      0.417468  
      83A      0.418496    84A      0.424964    85A      0.440173  
      86A      0.442500    87A      0.454245    88A      0.470405  
      89A      0.485398    90A      0.515796    91A      0.521824  
      92A      0.546743    93A      0.551895    94A      0.564915  
      95A      0.581922    96A      0.582536    97A      0.588722  
      98A      0.608795    99A      0.611749   100A      0.625405  
     101A      0.639847   102A      0.653438   103A      0.658954  
     104A      0.674629   105A      0.680589   106A      0.687869  
     107A      0.695847   108A      0.700278   109A      0.708614  
     110A      0.720098   111A      0.733557   112A      0.745697  
     113A      0.748724   114A      0.762985   115A      0.769568  
     116A      0.774970   117A      0.786594   118A      0.793230  
     119A      0.807507   120A      0.816013   121A      0.826515  
     122A      0.829249   123A      0.837418   124A      0.849029  
     125A      0.856099   126A      0.859230   127A      0.874870  
     128A      0.887514   129A      0.891455   130A      0.903965  
     131A      0.905158   132A      0.919903   133A      0.929365  
     134A      0.940415   135A      0.949622   136A      0.953276  
     137A      0.956530   138A      0.971269   139A      0.979692  
     140A      0.987215   141A      0.993220   142A      1.009796  
     143A      1.021790   144A      1.030466   145A      1.036077  
     146A      1.044417   147A      1.051248   148A      1.074436  
     149A      1.080603   150A      1.096463   151A      1.100980  
     152A      1.127971   153A      1.131833   154A      1.147176  
     155A      1.149625   156A      1.160925   157A      1.169664  
     158A      1.182884   159A      1.191166   160A      1.196696  
     161A      1.203042   162A      1.214446   163A      1.234980  
     164A      1.240563   165A      1.258348   166A      1.278645  
     167A      1.292024   168A      1.300302   169A      1.327441  
     170A      1.334188   171A      1.367926   172A      1.376307  
     173A      1.384827   174A      1.402930   175A      1.409399  
     176A      1.420519   177A      1.449256   178A      1.458445  
     179A      1.498656   180A      1.503074   181A      1.551853  
     182A      1.560290   183A      1.587932   184A      1.594015  
     185A      1.615570   186A      1.652794   187A      1.665057  
     188A      1.676593   189A      1.689137   190A      1.703996  
     191A      1.716674   192A      1.724555   193A      1.736640  
     194A      1.759311   195A      1.769476   196A      1.782035  
     197A      1.805129   198A      1.822955   199A      1.830802  
     200A      1.852313   201A      1.856520   202A      1.865590  
     203A      1.883857   204A      1.891045   205A      1.905461  
     206A      1.941566   207A      1.947158   208A      1.955495  
     209A      1.992474   210A      2.192474   211A      2.226068  
     212A      2.264170   213A      2.272199   214A      2.288782  
     215A      2.311811   216A      2.322541   217A      2.356654  
     218A      2.362485   219A      2.369626   220A      2.387666  
     221A      2.404485   222A      2.430204   223A      2.432398  
     224A      2.441567   225A      2.471073   226A      2.493388  
     227A      2.524148   228A      2.540419   229A      2.555161  
     230A      2.596779   231A      2.606148   232A      2.637420  
     233A      2.639275   234A      2.669177   235A      2.685352  
     236A      2.703728   237A      2.747009   238A      2.763630  
     239A      2.795756   240A      2.820291   241A      2.838542  
     242A      2.862648   243A      2.892018   244A      2.911424  
     245A      2.946322   246A      2.968112   247A      2.972116  
     248A      3.024319   249A      3.031590   250A      3.039303  
     251A      3.072446   252A      3.079900   253A      3.097957  
     254A      3.104213   255A      3.106036   256A      3.131360  
     257A      3.149346   258A      3.152940   259A      3.165312  
     260A      3.199648   261A      3.224410   262A      3.241891  
     263A      3.300823   264A      3.331281   265A      3.339800  
     266A      3.441152   267A      3.462236   268A      3.478082  
     269A      3.523222   270A      3.566683   271A      3.588940  
     272A      3.615300   273A      3.651014   274A      4.183030  
     275A      4.226724   276A      4.266001   277A      4.267329  
     278A      4.281001   279A      4.339076   280A      4.355864  
     281A      4.394585   282A      4.412816   283A      4.419756  
     284A      4.435416   285A      4.453531   286A      4.480314  
     287A      4.503030   288A      4.519046   289A      4.547686  
     290A      4.567980   291A      4.569366   292A      4.601366  
     293A      4.638958   294A      4.647533   295A      4.679668  
     296A      4.691188   297A      4.701555   298A      4.760612  
     299A      4.820699   300A      4.841073   301A      4.852975  
     302A      4.873490   303A      4.913170   304A      4.927982  
     305A      4.945639   306A      4.959115   307A      5.003439  
     308A      5.028900   309A      5.051516   310A      5.061055  
     311A      5.088770   312A      5.103380   313A      5.121623  
     314A      5.224289   315A      5.262842   316A      5.271440  
     317A      5.308365   318A      5.348045   319A      5.374940  
     320A      5.431233   321A      5.447793   322A      5.455944  
     323A      5.484235   324A      5.537569   325A      5.570894  
     326A      5.621313   327A      5.673174   328A      5.689368  
     329A      5.751884   330A      5.814811   331A      6.061549  
     332A      6.084210   333A      6.115591   334A      6.149819  
     335A      6.183410   336A      6.232884   337A      6.245813  
     338A      6.308789   339A      6.330322   340A      6.453834  
     341A      6.613043   342A      6.667783   343A      6.741797  
     344A      6.751360   345A      6.939439   346A      6.996448  
     347A      7.479743   348A      7.526898   349A      7.554258  
     350A      7.563075   351A      7.586655   352A      7.620527  
     353A      7.657403   354A      7.711588   355A      7.798007  
     356A      7.857585   357A      7.862254   358A      7.922029  
     359A      7.942976   360A      7.949780   361A      8.012760  
     362A      8.038662   363A      8.072457   364A      8.086492  
     365A      8.103995   366A      8.139018   367A      8.399791  
     368A      8.434512   369A      8.520224   370A      8.526909  
     371A      8.589398   372A      8.619938   373A      8.690608  
     374A      8.790713   375A      9.586716   376A      9.674327  
     377A      9.690611   378A      9.721635   379A      9.739995  
     380A      9.759949   381A      9.773315   382A      9.785269  
     383A      9.811594   384A      9.834596   385A      9.839623  
     386A      9.875680   387A      9.968544   388A      9.978618  
     389A     10.014032   390A     10.050847   391A     10.756579  
     392A     10.806188   393A     10.952417   394A     11.046909  
     395A     11.567761   396A     11.594955   397A     11.631375  
     398A     11.723761   399A     11.759594   400A     11.810472  
     401A     12.109039   402A     12.315787   403A     13.205083  
     404A     13.229888   405A     13.414921   406A     13.527247  
     407A     13.680835   408A     13.738070   409A     13.789382  
     410A     13.841463   411A     64.001974   412A     64.285186  
     413A     65.622857   414A     66.811442  

    Final Occupation by Irrep:
              A 
    DOCC [     1 ]
    NA   [     1 ]
    NB   [     1 ]

  @DF-RHF Final Energy:    -7.23638488117741

   => Energetics <=

    Nuclear Repulsion Energy =              0.0000000000000000
    One-Electron Energy =                  -8.8880644373632727
    Two-Electron Energy =                   1.6516795561858604
    Total Energy =                         -7.2363848811774121

Computation Completed


Properties will be evaluated at   0.000000,   0.000000,   0.000000 [a0]

Properties computed using the SCF density matrix


 Multipole Moments:

 ------------------------------------------------------------------------------------
     Multipole            Electronic (a.u.)      Nuclear  (a.u.)        Total (a.u.)
 ------------------------------------------------------------------------------------

 L = 1.  Multiply by 2.5417464519 to convert [e a0] to [Debye]
 Dipole X            :          0.0000068            0.0000000            0.0000068
 Dipole Y            :         -0.0000087            0.0000000           -0.0000087
 Dipole Z            :          0.0000009            0.0000000            0.0000009
 Magnitude           :                                                    0.0000111

 ------------------------------------------------------------------------------------

*** tstop() called on ddmfs1 at Mon Jan 22 12:53:14 2024
Module time:
	user time   =      41.53 seconds =       0.69 minutes
	system time =       2.24 seconds =       0.04 minutes
	total time  =          3 seconds =       0.05 minutes
Total time:
	user time   =      41.53 seconds =       0.69 minutes
	system time =       2.24 seconds =       0.04 minutes
	total time  =          3 seconds =       0.05 minutes

*** tstart() called on ddmfs1
*** at Mon Jan 22 12:53:14 2024


  //>>>>>>>>>>>>>>>>>>>>>>>>>>>>>>>>>>>//
  //               DFMP2               //
  //<<<<<<<<<<<<<<<<<<<<<<<<<<<<<<<<<<<//

   => Loading Basis Set <=

    Name: (AUG-CC-PVTZ AUX)
    Role: RIFIT
    Keyword: DF_BASIS_MP2
    atoms 1                     entry LI         line    90 file /ddmfs1b/softs/psi4conda/share/psi4/basis/def2-qzvpp-ri.gbs 
    atoms 2, 5, 8, 11           entry O          line   264 file /ddmfs1b/softs/psi4conda/share/psi4/basis/aug-cc-pvtz-ri.gbs 
    atoms 3-4, 6-7, 9-10, 12-13 entry H          line    30 file /ddmfs1b/softs/psi4conda/share/psi4/basis/aug-cc-pvtz-ri.gbs 

	 --------------------------------------------------------
	                          DF-MP2                         
	      2nd-Order Density-Fitted Moller-Plesset Theory     
	              RMP2 Wavefunction,  20 Threads             
	                                                         
	        Rob Parrish, Justin Turney, Andy Simmonett,      
	           Ed Hohenstein, and C. David Sherrill          
	 --------------------------------------------------------

   => Auxiliary Basis Set <=

  Basis Set: (AUG-CC-PVTZ AUX)
    Blend: AUG-CC-PVTZ-RI + DEF2-QZVPP-RI
    Number of shells: 251
    Number of basis functions: 893
    Number of Cartesian functions: 1114
    Spherical Harmonics?: true
    Max angular momentum: 4

	 --------------------------------------------------------
	                 NBF =   414, NAUX =   893
	 --------------------------------------------------------
	   CLASS    FOCC     OCC    AOCC    AVIR     VIR    FVIR
	   PAIRS       0       1       1     413     413       0
	 --------------------------------------------------------

	-----------------------------------------------------------
	 ==================> DF-MP2 Energies <==================== 
	-----------------------------------------------------------
	 Reference Energy          =      -7.2363848811774121 [Eh]
	 Singles Energy            =      -0.0000000000000000 [Eh]
	 Same-Spin Energy          =       0.0000000000000000 [Eh]
	 Opposite-Spin Energy      =      -0.0167973148999712 [Eh]
	 Correlation Energy        =      -0.0167973148999712 [Eh]
	 Total Energy              =      -7.2531821960773835 [Eh]
	-----------------------------------------------------------
	 ================> DF-SCS-MP2 Energies <================== 
	-----------------------------------------------------------
	 SCS Same-Spin Scale       =       0.3333333333333333 [-]
	 SCS Opposite-Spin Scale   =       1.2000000000000000 [-]
	 SCS Same-Spin Energy      =       0.0000000000000000 [Eh]
	 SCS Opposite-Spin Energy  =      -0.0201567778799654 [Eh]
	 SCS Correlation Energy    =      -0.0201567778799654 [Eh]
	 SCS Total Energy          =      -7.2565416590573779 [Eh]
	-----------------------------------------------------------


*** tstop() called on ddmfs1 at Mon Jan 22 12:53:17 2024
Module time:
	user time   =      15.97 seconds =       0.27 minutes
	system time =       0.81 seconds =       0.01 minutes
	total time  =          3 seconds =       0.05 minutes
Total time:
	user time   =      57.51 seconds =       0.96 minutes
	system time =       3.05 seconds =       0.05 minutes
	total time  =          6 seconds =       0.10 minutes

    Psi4 stopped on: Monday, 22 January 2024 12:53PM
    Psi4 wall time for execution: 0:00:05.41

*** Psi4 exiting successfully. Buy a developer a beer!
