
    -----------------------------------------------------------------------
          Psi4: An Open-Source Ab Initio Electronic Structure Package
                               Psi4 1.8.2 release

                         Git: Rev {} zzzzzzz 


    D. G. A. Smith, L. A. Burns, A. C. Simmonett, R. M. Parrish,
    M. C. Schieber, R. Galvelis, P. Kraus, H. Kruse, R. Di Remigio,
    A. Alenaizan, A. M. James, S. Lehtola, J. P. Misiewicz, M. Scheurer,
    R. A. Shaw, J. B. Schriber, Y. Xie, Z. L. Glick, D. A. Sirianni,
    J. S. O'Brien, J. M. Waldrop, A. Kumar, E. G. Hohenstein,
    B. P. Pritchard, B. R. Brooks, H. F. Schaefer III, A. Yu. Sokolov,
    K. Patkowski, A. E. DePrince III, U. Bozkaya, R. A. King,
    F. A. Evangelista, J. M. Turney, T. D. Crawford, C. D. Sherrill,
    J. Chem. Phys. 152(18) 184108 (2020). https://doi.org/10.1063/5.0006002

                            Additional Code Authors
    E. T. Seidl, C. L. Janssen, E. F. Valeev, M. L. Leininger,
    J. F. Gonthier, R. M. Richard, H. R. McAlexander, M. Saitow, X. Wang,
    P. Verma, M. H. Lechner, A. Jiang, S. Behnle, A. G. Heide,
    M. F. Herbst, and D. L. Poole

             Previous Authors, Complete List of Code Contributors,
                       and Citations for Specific Modules
    https://github.com/psi4/psi4/blob/master/codemeta.json
    https://github.com/psi4/psi4/graphs/contributors
    http://psicode.org/psi4manual/master/introduction.html#citing-psifour

    -----------------------------------------------------------------------


    Psi4 started on: Monday, 22 January 2024 01:16PM

    Process ID: 56256
    Host:       ddmfs1
    PSIDATADIR: /ddmfs1b/softs/psi4conda/share/psi4
    Memory:     500.0 MiB
    Threads:    20
    
  ==> Input File <==

--------------------------------------------------------------------------
MEMORY 60 GB

molecule dimer {
0 1
Gh(Li)     0.000000     0.000000     0.000000
O         -0.213290    -1.230877    -1.435922
H          0.319614    -1.433868    -2.244771
H         -1.116811    -1.240557    -1.761755
Gh(O)      1.078055    -0.691540     1.605291
Gh(H)      1.583124    -1.467147     1.345496
Gh(H)      0.428738    -1.104788     2.246733
Gh(O)      1.200353     1.386398    -0.738119
Gh(H)      0.867414     1.714195    -1.599060
Gh(H)      2.118436     1.242699    -0.916516
Gh(O)     -1.635855     0.447985     0.979762
Gh(H)     -1.749951     0.565313     1.919399
Gh(H)     -2.276601     0.947984     0.463108

units ang
no_reorient
no_com
symmetry c1
}

set {
basis        aug-cc-pVTZ
scf_type     df
}

energy("mp2")
--------------------------------------------------------------------------

  Memory set to  55.879 GiB by Python driver.

Scratch directory: /ddmfs1a/scratch/
   => Libint2 <=

    Primary   basis highest AM E, G, H:  5, 4, 3
    Auxiliary basis highest AM E, G, H:  6, 5, 4
    Onebody   basis highest AM E, G, H:  6, 5, 4
    Solid Harmonics ordering:            gaussian

*** tstart() called on ddmfs1
*** at Mon Jan 22 13:16:10 2024

   => Loading Basis Set <=

    Name: AUG-CC-PVTZ
    Role: ORBITAL
    Keyword: BASIS
    atoms 1                     entry LI         line    85 file /ddmfs1b/softs/psi4conda/share/psi4/basis/aug-cc-pvtz.gbs 
    atoms 2, 5, 8, 11           entry O          line   331 file /ddmfs1b/softs/psi4conda/share/psi4/basis/aug-cc-pvtz.gbs 
    atoms 3-4, 6-7, 9-10, 12-13 entry H          line    40 file /ddmfs1b/softs/psi4conda/share/psi4/basis/aug-cc-pvtz.gbs 


         ---------------------------------------------------------
                                   SCF
               by Justin Turney, Rob Parrish, Andy Simmonett
                          and Daniel G. A. Smith
                              RHF Reference
                       20 Threads,  57220 MiB Core
         ---------------------------------------------------------

  ==> Geometry <==

    Molecular point group: c1
    Full point group: C1

    Geometry (in Angstrom), charge = 0, multiplicity = 1:

       Center              X                  Y                   Z               Mass       
    ------------   -----------------  -----------------  -----------------  -----------------
      Gh(LI)          0.000000000000     0.000000000000     0.000000000000     7.016003436600
         O           -0.213290000000    -1.230877000000    -1.435922000000    15.994914619570
         H            0.319614000000    -1.433868000000    -2.244771000000     1.007825032230
         H           -1.116811000000    -1.240557000000    -1.761755000000     1.007825032230
      Gh(O)           1.078055000000    -0.691540000000     1.605291000000    15.994914619570
      Gh(H)           1.583124000000    -1.467147000000     1.345496000000     1.007825032230
      Gh(H)           0.428738000000    -1.104788000000     2.246733000000     1.007825032230
      Gh(O)           1.200353000000     1.386398000000    -0.738119000000    15.994914619570
      Gh(H)           0.867414000000     1.714195000000    -1.599060000000     1.007825032230
      Gh(H)           2.118436000000     1.242699000000    -0.916516000000     1.007825032230
      Gh(O)          -1.635855000000     0.447985000000     0.979762000000    15.994914619570
      Gh(H)          -1.749951000000     0.565313000000     1.919399000000     1.007825032230
      Gh(H)          -2.276601000000     0.947984000000     0.463108000000     1.007825032230

  Running in c1 symmetry.

  Rotational constants: A =      0.09562  B =      0.08311  C =      0.07485 [cm^-1]
  Rotational constants: A =   2866.72426  B =   2491.67003  C =   2243.93232 [MHz]
  Nuclear repulsion =    9.031416840886410

  Charge       = 0
  Multiplicity = 1
  Electrons    = 10
  Nalpha       = 5
  Nbeta        = 5

  ==> Algorithm <==

  SCF Algorithm Type is DF.
  DIIS enabled.
  MOM disabled.
  Fractional occupation disabled.
  Guess Type is SAD.
  Energy threshold   = 1.00e-08
  Density threshold  = 1.00e-08
  Integral threshold = 1.00e-12

  ==> Primary Basis <==

  Basis Set: AUG-CC-PVTZ
    Blend: AUG-CC-PVTZ
    Number of shells: 142
    Number of basis functions: 414
    Number of Cartesian functions: 475
    Spherical Harmonics?: true
    Max angular momentum: 3

   => Loading Basis Set <=

    Name: (AUG-CC-PVTZ AUX)
    Role: JKFIT
    Keyword: DF_BASIS_SCF
    atoms 1                     entry LI         line    54 file /ddmfs1b/softs/psi4conda/share/psi4/basis/def2-universal-jkfit.gbs 
    atoms 2, 5, 8, 11           entry O          line   286 file /ddmfs1b/softs/psi4conda/share/psi4/basis/aug-cc-pvtz-jkfit.gbs 
    atoms 3-4, 6-7, 9-10, 12-13 entry H          line    70 file /ddmfs1b/softs/psi4conda/share/psi4/basis/aug-cc-pvtz-jkfit.gbs 

  ==> Integral Setup <==

  DFHelper Memory: AOs need 1.081 GiB; user supplied 41.910 GiB. 
  Using in-core AOs.

  ==> MemDFJK: Density-Fitted J/K Matrices <==

    J tasked:                   Yes
    K tasked:                   Yes
    wK tasked:                   No
    OpenMP threads:              20
    Memory [MiB]:             42915
    Algorithm:                 Core
    Schwarz Cutoff:           1E-12
    Mask sparsity (%):       4.7026
    Fitting Condition:        1E-10

   => Auxiliary Basis Set <=

  Basis Set: (AUG-CC-PVTZ AUX)
    Blend: AUG-CC-PVTZ-JKFIT + DEF2-UNIVERSAL-JKFIT
    Number of shells: 249
    Number of basis functions: 835
    Number of Cartesian functions: 1024
    Spherical Harmonics?: true
    Max angular momentum: 4

  Minimum eigenvalue in the overlap matrix is 1.5591081822E-05.
  Reciprocal condition number of the overlap matrix is 1.0976313017E-06.
    Using symmetric orthogonalization.

  ==> Pre-Iterations <==

  SCF Guess: Superposition of Atomic Densities via on-the-fly atomic UHF (no occupation information).

   -------------------------
    Irrep   Nso     Nmo    
   -------------------------
     A        414     414 
   -------------------------
    Total     414     414
   -------------------------

  ==> Iterations <==

                           Total Energy        Delta E     RMS |[F,P]|

   @DF-RHF iter SAD:   -75.45852046175645   -7.54585e+01   0.00000e+00 
   @DF-RHF iter   1:   -75.97321581869861   -5.14695e-01   1.12916e-03 DIIS/ADIIS
   @DF-RHF iter   2:   -76.02529350026630   -5.20777e-02   7.84435e-04 DIIS/ADIIS
   @DF-RHF iter   3:   -76.05807230265280   -3.27788e-02   5.34624e-05 DIIS
   @DF-RHF iter   4:   -76.05848480103381   -4.12498e-04   1.32667e-05 DIIS
   @DF-RHF iter   5:   -76.05851295325061   -2.81522e-05   3.08014e-06 DIIS
   @DF-RHF iter   6:   -76.05851533623799   -2.38299e-06   6.74886e-07 DIIS
   @DF-RHF iter   7:   -76.05851546044670   -1.24209e-07   1.18360e-07 DIIS
   @DF-RHF iter   8:   -76.05851546375879   -3.31210e-09   2.02339e-08 DIIS
   @DF-RHF iter   9:   -76.05851546383632   -7.75202e-11   5.12131e-09 DIIS
  Energy and wave function converged.


  ==> Post-Iterations <==

    Orbital Energies [Eh]
    ---------------------

    Doubly Occupied:                                                      

       1A    -20.570642     2A     -1.345577     3A     -0.705488  
       4A     -0.584011     5A     -0.509301  

    Virtual:                                                              

       6A      0.008675     7A      0.017874     8A      0.018352  
       9A      0.019622    10A      0.043816    11A      0.055037  
      12A      0.057600    13A      0.059839    14A      0.061189  
      15A      0.065818    16A      0.066623    17A      0.069688  
      18A      0.075149    19A      0.086502    20A      0.103366  
      21A      0.106620    22A      0.135635    23A      0.148072  
      24A      0.151103    25A      0.156085    26A      0.156590  
      27A      0.160675    28A      0.163009    29A      0.166504  
      30A      0.171296    31A      0.178788    32A      0.181094  
      33A      0.187480    34A      0.189945    35A      0.200732  
      36A      0.214590    37A      0.223300    38A      0.227207  
      39A      0.244837    40A      0.255804    41A      0.263589  
      42A      0.276417    43A      0.302550    44A      0.307961  
      45A      0.316785    46A      0.319016    47A      0.329609  
      48A      0.332792    49A      0.343828    50A      0.348564  
      51A      0.355292    52A      0.366580    53A      0.367913  
      54A      0.373536    55A      0.374688    56A      0.378506  
      57A      0.388204    58A      0.392157    59A      0.396979  
      60A      0.402027    61A      0.408424    62A      0.412710  
      63A      0.419428    64A      0.423684    65A      0.430795  
      66A      0.435175    67A      0.441656    68A      0.446004  
      69A      0.451307    70A      0.453210    71A      0.469193  
      72A      0.470305    73A      0.480230    74A      0.486468  
      75A      0.497416    76A      0.501440    77A      0.503284  
      78A      0.521302    79A      0.523231    80A      0.532892  
      81A      0.535096    82A      0.542539    83A      0.550119  
      84A      0.568132    85A      0.573693    86A      0.577842  
      87A      0.593871    88A      0.604825    89A      0.642725  
      90A      0.659040    91A      0.677913    92A      0.692570  
      93A      0.745677    94A      0.772963    95A      0.781212  
      96A      0.789582    97A      0.790157    98A      0.804840  
      99A      0.818281   100A      0.820094   101A      0.826707  
     102A      0.835545   103A      0.838095   104A      0.852626  
     105A      0.853431   106A      0.860693   107A      0.872029  
     108A      0.876013   109A      0.891901   110A      0.893648  
     111A      0.896711   112A      0.902616   113A      0.917315  
     114A      0.931652   115A      0.937789   116A      0.946526  
     117A      0.958803   118A      0.974114   119A      0.977644  
     120A      0.989708   121A      0.996144   122A      1.003983  
     123A      1.013068   124A      1.015617   125A      1.021570  
     126A      1.029299   127A      1.045464   128A      1.045899  
     129A      1.052081   130A      1.058097   131A      1.067823  
     132A      1.077071   133A      1.085542   134A      1.092218  
     135A      1.096799   136A      1.107952   137A      1.115017  
     138A      1.123859   139A      1.133606   140A      1.146085  
     141A      1.147871   142A      1.157571   143A      1.184098  
     144A      1.192149   145A      1.200834   146A      1.203984  
     147A      1.210338   148A      1.217669   149A      1.234439  
     150A      1.242324   151A      1.250562   152A      1.262991  
     153A      1.276176   154A      1.285828   155A      1.299058  
     156A      1.308332   157A      1.313395   158A      1.325816  
     159A      1.339960   160A      1.355302   161A      1.364657  
     162A      1.367751   163A      1.391963   164A      1.397968  
     165A      1.418852   166A      1.447938   167A      1.452606  
     168A      1.456692   169A      1.470974   170A      1.476013  
     171A      1.498442   172A      1.518773   173A      1.559501  
     174A      1.564039   175A      1.587515   176A      1.595484  
     177A      1.610503   178A      1.621131   179A      1.665314  
     180A      1.673318   181A      1.682184   182A      1.706138  
     183A      1.733488   184A      1.735673   185A      1.747855  
     186A      1.786745   187A      1.802202   188A      1.823240  
     189A      1.850392   190A      1.874094   191A      1.886226  
     192A      1.891809   193A      1.898245   194A      1.906042  
     195A      1.932155   196A      1.938823   197A      1.950466  
     198A      1.980265   199A      2.002979   200A      2.008825  
     201A      2.012516   202A      2.034204   203A      2.041703  
     204A      2.053583   205A      2.067957   206A      2.089046  
     207A      2.119454   208A      2.137824   209A      2.173333  
     210A      2.230720   211A      2.262676   212A      2.336126  
     213A      2.360501   214A      2.408245   215A      2.436795  
     216A      2.478837   217A      2.491371   218A      2.552175  
     219A      2.571024   220A      2.581201   221A      2.594818  
     222A      2.596743   223A      2.619322   224A      2.653340  
     225A      2.668883   226A      2.676884   227A      2.686181  
     228A      2.699391   229A      2.712334   230A      2.721608  
     231A      2.745984   232A      2.753764   233A      2.769401  
     234A      2.796534   235A      2.840383   236A      2.854470  
     237A      2.865079   238A      2.878448   239A      2.897798  
     240A      2.901008   241A      2.931746   242A      2.968279  
     243A      2.987518   244A      3.013831   245A      3.036532  
     246A      3.049733   247A      3.083172   248A      3.085199  
     249A      3.147630   250A      3.169080   251A      3.228888  
     252A      3.251125   253A      3.265749   254A      3.272099  
     255A      3.291789   256A      3.301394   257A      3.328078  
     258A      3.340588   259A      3.362849   260A      3.380240  
     261A      3.398356   262A      3.401892   263A      3.416953  
     264A      3.445541   265A      3.450688   266A      3.519130  
     267A      3.546562   268A      3.602068   269A      3.655563  
     270A      3.733594   271A      3.752386   272A      3.782491  
     273A      3.805805   274A      3.827357   275A      3.930513  
     276A      3.985333   277A      4.140753   278A      4.275588  
     279A      4.334874   280A      4.386000   281A      4.419999  
     282A      4.462202   283A      4.482792   284A      4.511059  
     285A      4.528846   286A      4.556719   287A      4.570593  
     288A      4.576250   289A      4.604494   290A      4.621074  
     291A      4.644486   292A      4.660165   293A      4.669770  
     294A      4.694470   295A      4.722899   296A      4.752210  
     297A      4.767432   298A      4.793547   299A      4.816837  
     300A      4.828786   301A      4.842093   302A      4.872493  
     303A      4.883829   304A      4.934114   305A      4.945101  
     306A      5.027785   307A      5.054581   308A      5.064281  
     309A      5.084659   310A      5.109484   311A      5.119272  
     312A      5.141695   313A      5.150944   314A      5.180184  
     315A      5.207600   316A      5.227873   317A      5.250920  
     318A      5.328179   319A      5.339834   320A      5.368285  
     321A      5.425751   322A      5.540171   323A      5.559135  
     324A      5.575123   325A      5.608167   326A      5.642684  
     327A      5.652316   328A      5.700164   329A      5.728314  
     330A      5.779447   331A      5.800371   332A      5.860956  
     333A      5.928565   334A      5.992047   335A      6.019299  
     336A      6.319153   337A      6.342475   338A      6.376792  
     339A      6.388060   340A      6.410998   341A      6.446247  
     342A      6.489098   343A      6.607731   344A      6.659702  
     345A      6.708438   346A      6.867414   347A      6.995288  
     348A      7.006845   349A      7.071095   350A      7.157588  
     351A      7.161457   352A      7.216042   353A      7.312207  
     354A      7.348433   355A      7.418345   356A      7.431991  
     357A      7.530691   358A      7.659442   359A      7.770201  
     360A      7.796766   361A      7.846842   362A      7.882160  
     363A      7.909516   364A      7.925267   365A      7.964610  
     366A      7.994344   367A      8.125613   368A      8.146569  
     369A      8.180359   370A      8.195692   371A      8.216409  
     372A      8.292227   373A      8.340488   374A      8.384600  
     375A      8.411386   376A      8.675644   377A      8.769016  
     378A      8.831864   379A      8.847174   380A      8.860572  
     381A      8.909550   382A      8.936805   383A      9.891228  
     384A      9.954278   385A      9.973060   386A     10.006846  
     387A     10.017452   388A     10.054619   389A     10.067246  
     390A     10.081203   391A     10.097152   392A     10.223099  
     393A     10.276536   394A     10.288365   395A     11.133097  
     396A     11.202591   397A     11.255671   398A     11.854230  
     399A     11.885581   400A     11.923763   401A     12.113793  
     402A     12.332441   403A     12.400465   404A     12.868738  
     405A     13.570321   406A     13.638405   407A     13.678397  
     408A     13.970296   409A     13.986473   410A     14.024328  
     411A     15.794673   412A     64.875058   413A     65.538728  
     414A     66.004277  

    Final Occupation by Irrep:
              A 
    DOCC [     5 ]
    NA   [     5 ]
    NB   [     5 ]

  @DF-RHF Final Energy:   -76.05851546383632

   => Energetics <=

    Nuclear Repulsion Energy =              9.0314168408864095
    One-Electron Energy =                -122.7498235349381019
    Two-Electron Energy =                  37.6598912302153721
    Total Energy =                        -76.0585154638363292

Computation Completed


Properties will be evaluated at   0.000000,   0.000000,   0.000000 [a0]

Properties computed using the SCF density matrix


 Multipole Moments:

 ------------------------------------------------------------------------------------
     Multipole            Electronic (a.u.)      Nuclear  (a.u.)        Total (a.u.)
 ------------------------------------------------------------------------------------

 L = 1.  Multiply by 2.5417464519 to convert [e a0] to [Debye]
 Dipole X            :          4.4833258           -4.7309615           -0.2476357
 Dipole Y            :         23.5232583          -23.6620942           -0.1388359
 Dipole Z            :         28.5376532          -29.2792314           -0.7415782
 Magnitude           :                                                    0.7940636

 ------------------------------------------------------------------------------------

*** tstop() called on ddmfs1 at Mon Jan 22 13:16:13 2024
Module time:
	user time   =      53.62 seconds =       0.89 minutes
	system time =       2.75 seconds =       0.05 minutes
	total time  =          3 seconds =       0.05 minutes
Total time:
	user time   =      53.62 seconds =       0.89 minutes
	system time =       2.75 seconds =       0.05 minutes
	total time  =          3 seconds =       0.05 minutes

*** tstart() called on ddmfs1
*** at Mon Jan 22 13:16:13 2024


  //>>>>>>>>>>>>>>>>>>>>>>>>>>>>>>>>>>>//
  //               DFMP2               //
  //<<<<<<<<<<<<<<<<<<<<<<<<<<<<<<<<<<<//

   => Loading Basis Set <=

    Name: (AUG-CC-PVTZ AUX)
    Role: RIFIT
    Keyword: DF_BASIS_MP2
    atoms 1                     entry LI         line    90 file /ddmfs1b/softs/psi4conda/share/psi4/basis/def2-qzvpp-ri.gbs 
    atoms 2, 5, 8, 11           entry O          line   264 file /ddmfs1b/softs/psi4conda/share/psi4/basis/aug-cc-pvtz-ri.gbs 
    atoms 3-4, 6-7, 9-10, 12-13 entry H          line    30 file /ddmfs1b/softs/psi4conda/share/psi4/basis/aug-cc-pvtz-ri.gbs 

	 --------------------------------------------------------
	                          DF-MP2                         
	      2nd-Order Density-Fitted Moller-Plesset Theory     
	              RMP2 Wavefunction,  20 Threads             
	                                                         
	        Rob Parrish, Justin Turney, Andy Simmonett,      
	           Ed Hohenstein, and C. David Sherrill          
	 --------------------------------------------------------

   => Auxiliary Basis Set <=

  Basis Set: (AUG-CC-PVTZ AUX)
    Blend: AUG-CC-PVTZ-RI + DEF2-QZVPP-RI
    Number of shells: 251
    Number of basis functions: 893
    Number of Cartesian functions: 1114
    Spherical Harmonics?: true
    Max angular momentum: 4

	 --------------------------------------------------------
	                 NBF =   414, NAUX =   893
	 --------------------------------------------------------
	   CLASS    FOCC     OCC    AOCC    AVIR     VIR    FVIR
	   PAIRS       0       5       5     409     409       0
	 --------------------------------------------------------

	-----------------------------------------------------------
	 ==================> DF-MP2 Energies <==================== 
	-----------------------------------------------------------
	 Reference Energy          =     -76.0585154638363150 [Eh]
	 Singles Energy            =      -0.0000000000000000 [Eh]
	 Same-Spin Energy          =      -0.0687671243082850 [Eh]
	 Opposite-Spin Energy      =      -0.2169996534550308 [Eh]
	 Correlation Energy        =      -0.2857667777633159 [Eh]
	 Total Energy              =     -76.3442822415996289 [Eh]
	-----------------------------------------------------------
	 ================> DF-SCS-MP2 Energies <================== 
	-----------------------------------------------------------
	 SCS Same-Spin Scale       =       0.3333333333333333 [-]
	 SCS Opposite-Spin Scale   =       1.2000000000000000 [-]
	 SCS Same-Spin Energy      =      -0.0229223747694283 [Eh]
	 SCS Opposite-Spin Energy  =      -0.2603995841460370 [Eh]
	 SCS Correlation Energy    =      -0.2833219589154653 [Eh]
	 SCS Total Energy          =     -76.3418374227517802 [Eh]
	-----------------------------------------------------------


*** tstop() called on ddmfs1 at Mon Jan 22 13:16:16 2024
Module time:
	user time   =      16.65 seconds =       0.28 minutes
	system time =       0.89 seconds =       0.01 minutes
	total time  =          3 seconds =       0.05 minutes
Total time:
	user time   =      70.29 seconds =       1.17 minutes
	system time =       3.64 seconds =       0.06 minutes
	total time  =          6 seconds =       0.10 minutes

    Psi4 stopped on: Monday, 22 January 2024 01:16PM
    Psi4 wall time for execution: 0:00:06.10

*** Psi4 exiting successfully. Buy a developer a beer!
