
    -----------------------------------------------------------------------
          Psi4: An Open-Source Ab Initio Electronic Structure Package
                               Psi4 1.8.2 release

                         Git: Rev {} zzzzzzz 


    D. G. A. Smith, L. A. Burns, A. C. Simmonett, R. M. Parrish,
    M. C. Schieber, R. Galvelis, P. Kraus, H. Kruse, R. Di Remigio,
    A. Alenaizan, A. M. James, S. Lehtola, J. P. Misiewicz, M. Scheurer,
    R. A. Shaw, J. B. Schriber, Y. Xie, Z. L. Glick, D. A. Sirianni,
    J. S. O'Brien, J. M. Waldrop, A. Kumar, E. G. Hohenstein,
    B. P. Pritchard, B. R. Brooks, H. F. Schaefer III, A. Yu. Sokolov,
    K. Patkowski, A. E. DePrince III, U. Bozkaya, R. A. King,
    F. A. Evangelista, J. M. Turney, T. D. Crawford, C. D. Sherrill,
    J. Chem. Phys. 152(18) 184108 (2020). https://doi.org/10.1063/5.0006002

                            Additional Code Authors
    E. T. Seidl, C. L. Janssen, E. F. Valeev, M. L. Leininger,
    J. F. Gonthier, R. M. Richard, H. R. McAlexander, M. Saitow, X. Wang,
    P. Verma, M. H. Lechner, A. Jiang, S. Behnle, A. G. Heide,
    M. F. Herbst, and D. L. Poole

             Previous Authors, Complete List of Code Contributors,
                       and Citations for Specific Modules
    https://github.com/psi4/psi4/blob/master/codemeta.json
    https://github.com/psi4/psi4/graphs/contributors
    http://psicode.org/psi4manual/master/introduction.html#citing-psifour

    -----------------------------------------------------------------------


    Psi4 started on: Monday, 22 January 2024 01:44PM

    Process ID: 61885
    Host:       ddmfs1
    PSIDATADIR: /ddmfs1b/softs/psi4conda/share/psi4
    Memory:     500.0 MiB
    Threads:    20
    
  ==> Input File <==

--------------------------------------------------------------------------
MEMORY 60 GB

molecule dimer {
0 1
Gh(Li)     0.000000     0.000000     0.000000
Gh(O)      1.023000     0.620441     1.583861
Gh(H)      1.455219     0.253028     2.357655
Gh(H)      1.073738     1.617144     1.656624
O          0.990010    -1.210458    -1.226372
H          0.996585    -0.767777    -2.058657
H          0.892016    -2.180068    -1.332978
Gh(O)     -0.199397     1.811129    -0.706428
Gh(H)     -0.471302     2.120332    -1.569275
Gh(H)     -0.590440     2.361535    -0.067867

units ang
no_reorient
no_com
symmetry c1
}

set {
basis        aug-cc-pVTZ
scf_type     df
}

energy("mp2")
--------------------------------------------------------------------------

  Memory set to  55.879 GiB by Python driver.

Scratch directory: /ddmfs1a/scratch/
   => Libint2 <=

    Primary   basis highest AM E, G, H:  5, 4, 3
    Auxiliary basis highest AM E, G, H:  6, 5, 4
    Onebody   basis highest AM E, G, H:  6, 5, 4
    Solid Harmonics ordering:            gaussian

*** tstart() called on ddmfs1
*** at Mon Jan 22 13:44:55 2024

   => Loading Basis Set <=

    Name: AUG-CC-PVTZ
    Role: ORBITAL
    Keyword: BASIS
    atoms 1              entry LI         line    85 file /ddmfs1b/softs/psi4conda/share/psi4/basis/aug-cc-pvtz.gbs 
    atoms 2, 5, 8        entry O          line   331 file /ddmfs1b/softs/psi4conda/share/psi4/basis/aug-cc-pvtz.gbs 
    atoms 3-4, 6-7, 9-10 entry H          line    40 file /ddmfs1b/softs/psi4conda/share/psi4/basis/aug-cc-pvtz.gbs 


         ---------------------------------------------------------
                                   SCF
               by Justin Turney, Rob Parrish, Andy Simmonett
                          and Daniel G. A. Smith
                              RHF Reference
                       20 Threads,  57220 MiB Core
         ---------------------------------------------------------

  ==> Geometry <==

    Molecular point group: c1
    Full point group: C1

    Geometry (in Angstrom), charge = 0, multiplicity = 1:

       Center              X                  Y                   Z               Mass       
    ------------   -----------------  -----------------  -----------------  -----------------
      Gh(LI)          0.000000000000     0.000000000000     0.000000000000     7.016003436600
      Gh(O)           1.023000000000     0.620441000000     1.583861000000    15.994914619570
      Gh(H)           1.455219000000     0.253028000000     2.357655000000     1.007825032230
      Gh(H)           1.073738000000     1.617144000000     1.656624000000     1.007825032230
         O            0.990010000000    -1.210458000000    -1.226372000000    15.994914619570
         H            0.996585000000    -0.767777000000    -2.058657000000     1.007825032230
         H            0.892016000000    -2.180068000000    -1.332978000000     1.007825032230
      Gh(O)          -0.199397000000     1.811129000000    -0.706428000000    15.994914619570
      Gh(H)          -0.471302000000     2.120332000000    -1.569275000000     1.007825032230
      Gh(H)          -0.590440000000     2.361535000000    -0.067867000000     1.007825032230

  Running in c1 symmetry.

  Rotational constants: A =      0.15495  B =      0.11395  C =      0.08451 [cm^-1]
  Rotational constants: A =   4645.39512  B =   3416.13996  C =   2533.58226 [MHz]
  Nuclear repulsion =    9.141441963836607

  Charge       = 0
  Multiplicity = 1
  Electrons    = 10
  Nalpha       = 5
  Nbeta        = 5

  ==> Algorithm <==

  SCF Algorithm Type is DF.
  DIIS enabled.
  MOM disabled.
  Fractional occupation disabled.
  Guess Type is SAD.
  Energy threshold   = 1.00e-08
  Density threshold  = 1.00e-08
  Integral threshold = 1.00e-12

  ==> Primary Basis <==

  Basis Set: AUG-CC-PVTZ
    Blend: AUG-CC-PVTZ
    Number of shells: 110
    Number of basis functions: 322
    Number of Cartesian functions: 370
    Spherical Harmonics?: true
    Max angular momentum: 3

   => Loading Basis Set <=

    Name: (AUG-CC-PVTZ AUX)
    Role: JKFIT
    Keyword: DF_BASIS_SCF
    atoms 1              entry LI         line    54 file /ddmfs1b/softs/psi4conda/share/psi4/basis/def2-universal-jkfit.gbs 
    atoms 2, 5, 8        entry O          line   286 file /ddmfs1b/softs/psi4conda/share/psi4/basis/aug-cc-pvtz-jkfit.gbs 
    atoms 3-4, 6-7, 9-10 entry H          line    70 file /ddmfs1b/softs/psi4conda/share/psi4/basis/aug-cc-pvtz-jkfit.gbs 

  ==> Integral Setup <==

  DFHelper Memory: AOs need 0.512 GiB; user supplied 41.910 GiB. 
  Using in-core AOs.

  ==> MemDFJK: Density-Fitted J/K Matrices <==

    J tasked:                   Yes
    K tasked:                   Yes
    wK tasked:                   No
    OpenMP threads:              20
    Memory [MiB]:             42915
    Algorithm:                 Core
    Schwarz Cutoff:           1E-12
    Mask sparsity (%):       4.1742
    Fitting Condition:        1E-10

   => Auxiliary Basis Set <=

  Basis Set: (AUG-CC-PVTZ AUX)
    Blend: AUG-CC-PVTZ-JKFIT + DEF2-UNIVERSAL-JKFIT
    Number of shells: 191
    Number of basis functions: 639
    Number of Cartesian functions: 783
    Spherical Harmonics?: true
    Max angular momentum: 4

  Minimum eigenvalue in the overlap matrix is 2.2990940713E-05.
  Reciprocal condition number of the overlap matrix is 1.8477114603E-06.
    Using symmetric orthogonalization.

  ==> Pre-Iterations <==

  SCF Guess: Superposition of Atomic Densities via on-the-fly atomic UHF (no occupation information).

   -------------------------
    Irrep   Nso     Nmo    
   -------------------------
     A        322     322 
   -------------------------
    Total     322     322
   -------------------------

  ==> Iterations <==

                           Total Energy        Delta E     RMS |[F,P]|

   @DF-RHF iter SAD:   -75.46598803490876   -7.54660e+01   0.00000e+00 
   @DF-RHF iter   1:   -75.97489316767792   -5.08905e-01   1.45596e-03 DIIS/ADIIS
   @DF-RHF iter   2:   -76.02714638975598   -5.22532e-02   9.88907e-04 DIIS/ADIIS
   @DF-RHF iter   3:   -76.05836227650343   -3.12159e-02   6.72994e-05 DIIS
   @DF-RHF iter   4:   -76.05876416439835   -4.01888e-04   1.63013e-05 DIIS
   @DF-RHF iter   5:   -76.05878973125772   -2.55669e-05   3.72716e-06 DIIS
   @DF-RHF iter   6:   -76.05879189767184   -2.16641e-06   8.47659e-07 DIIS
   @DF-RHF iter   7:   -76.05879202221838   -1.24547e-07   1.63138e-07 DIIS
   @DF-RHF iter   8:   -76.05879202629043   -4.07205e-09   2.67360e-08 DIIS
   @DF-RHF iter   9:   -76.05879202637750   -8.70699e-11   6.76409e-09 DIIS
  Energy and wave function converged.


  ==> Post-Iterations <==

    Orbital Energies [Eh]
    ---------------------

    Doubly Occupied:                                                      

       1A    -20.564390     2A     -1.346688     3A     -0.728571  
       4A     -0.570135     5A     -0.507821  

    Virtual:                                                              

       6A      0.009552     7A      0.017872     8A      0.018490  
       9A      0.020019    10A      0.045907    11A      0.056369  
      12A      0.058391    13A      0.059788    14A      0.065887  
      15A      0.068752    16A      0.072513    17A      0.075189  
      18A      0.085158    19A      0.091012    20A      0.136877  
      21A      0.138405    22A      0.148015    23A      0.156542  
      24A      0.160059    25A      0.161275    26A      0.168257  
      27A      0.172391    28A      0.177427    29A      0.179352  
      30A      0.183694    31A      0.196482    32A      0.200354  
      33A      0.207906    34A      0.216216    35A      0.244365  
      36A      0.249695    37A      0.262263    38A      0.292878  
      39A      0.294712    40A      0.311521    41A      0.325193  
      42A      0.326801    43A      0.340597    44A      0.351934  
      45A      0.359514    46A      0.360905    47A      0.367424  
      48A      0.376716    49A      0.378689    50A      0.386699  
      51A      0.394144    52A      0.396345    53A      0.404091  
      54A      0.405175    55A      0.412049    56A      0.424221  
      57A      0.428486    58A      0.431773    59A      0.433695  
      60A      0.445571    61A      0.448168    62A      0.451236  
      63A      0.459638    64A      0.460654    65A      0.473655  
      66A      0.480665    67A      0.484764    68A      0.490514  
      69A      0.499656    70A      0.502931    71A      0.527645  
      72A      0.547040    73A      0.565322    74A      0.572982  
      75A      0.593089    76A      0.607766    77A      0.627230  
      78A      0.667115    79A      0.688413    80A      0.744278  
      81A      0.762864    82A      0.776221    83A      0.797659  
      84A      0.813567    85A      0.816562    86A      0.824635  
      87A      0.838264    88A      0.848368    89A      0.854803  
      90A      0.858944    91A      0.863276    92A      0.871160  
      93A      0.888245    94A      0.899320    95A      0.909117  
      96A      0.917849    97A      0.924984    98A      0.931099  
      99A      0.939211   100A      0.946167   101A      0.959779  
     102A      0.965304   103A      0.972162   104A      0.973179  
     105A      1.002391   106A      1.007674   107A      1.015303  
     108A      1.026325   109A      1.037752   110A      1.039287  
     111A      1.054188   112A      1.073482   113A      1.079537  
     114A      1.087883   115A      1.092373   116A      1.106565  
     117A      1.117820   118A      1.123730   119A      1.130930  
     120A      1.141497   121A      1.160246   122A      1.169191  
     123A      1.173661   124A      1.183865   125A      1.193193  
     126A      1.208670   127A      1.216579   128A      1.240445  
     129A      1.247563   130A      1.289485   131A      1.292155  
     132A      1.308274   133A      1.317069   134A      1.339351  
     135A      1.360134   136A      1.367475   137A      1.397045  
     138A      1.416018   139A      1.442040   140A      1.462943  
     141A      1.479123   142A      1.490733   143A      1.515116  
     144A      1.517736   145A      1.582323   146A      1.615716  
     147A      1.641417   148A      1.652250   149A      1.691745  
     150A      1.704413   151A      1.722636   152A      1.766536  
     153A      1.776759   154A      1.782226   155A      1.842410  
     156A      1.857095   157A      1.860796   158A      1.884612  
     159A      1.891147   160A      1.920207   161A      1.945077  
     162A      1.963835   163A      1.980440   164A      1.993180  
     165A      2.015854   166A      2.056367   167A      2.083787  
     168A      2.097104   169A      2.122621   170A      2.204435  
     171A      2.219271   172A      2.327718   173A      2.342085  
     174A      2.406449   175A      2.436981   176A      2.480920  
     177A      2.488889   178A      2.564669   179A      2.575714  
     180A      2.592728   181A      2.608247   182A      2.627089  
     183A      2.643299   184A      2.677407   185A      2.696652  
     186A      2.717663   187A      2.742395   188A      2.758737  
     189A      2.767325   190A      2.790365   191A      2.818866  
     192A      2.836695   193A      2.857865   194A      2.868237  
     195A      2.906397   196A      2.922876   197A      2.936557  
     198A      2.962795   199A      2.998150   200A      3.042676  
     201A      3.105366   202A      3.160192   203A      3.221532  
     204A      3.231945   205A      3.262193   206A      3.320646  
     207A      3.336942   208A      3.357118   209A      3.375734  
     210A      3.391649   211A      3.458607   212A      3.475627  
     213A      3.536262   214A      3.661354   215A      3.732352  
     216A      3.767625   217A      3.802223   218A      3.831897  
     219A      3.912533   220A      4.101532   221A      4.252889  
     222A      4.317839   223A      4.365061   224A      4.388770  
     225A      4.434600   226A      4.481450   227A      4.526718  
     228A      4.546255   229A      4.565368   230A      4.579932  
     231A      4.609362   232A      4.615371   233A      4.625635  
     234A      4.688009   235A      4.723033   236A      4.770742  
     237A      4.784174   238A      4.805388   239A      4.822448  
     240A      4.831657   241A      4.870502   242A      4.906497  
     243A      5.013721   244A      5.033872   245A      5.056047  
     246A      5.071262   247A      5.098348   248A      5.155395  
     249A      5.174214   250A      5.219460   251A      5.239265  
     252A      5.287416   253A      5.395012   254A      5.406491  
     255A      5.523756   256A      5.539158   257A      5.559527  
     258A      5.637500   259A      5.744290   260A      5.749632  
     261A      5.828290   262A      5.867889   263A      5.924888  
     264A      6.026229   265A      6.208412   266A      6.233460  
     267A      6.333379   268A      6.398547   269A      6.513598  
     270A      6.649632   271A      6.724885   272A      6.822582  
     273A      6.911542   274A      6.912891   275A      7.126318  
     276A      7.223113   277A      7.290790   278A      7.321789  
     279A      7.374111   280A      7.425168   281A      7.446454  
     282A      7.485663   283A      7.680061   284A      7.759802  
     285A      7.788726   286A      7.871045   287A      7.892597  
     288A      7.909714   289A      8.033542   290A      8.093170  
     291A      8.172505   292A      8.246384   293A      8.267658  
     294A      8.330064   295A      8.369937   296A      8.741048  
     297A      8.793290   298A      8.817974   299A      8.948699  
     300A      8.992296   301A      9.857747   302A      9.924918  
     303A      9.986230   304A     10.002655   305A     10.045785  
     306A     10.065919   307A     10.229329   308A     10.286581  
     309A     11.098732   310A     11.349717   311A     11.720046  
     312A     11.796895   313A     11.981652   314A     12.127538  
     315A     12.488699   316A     13.524474   317A     13.810440  
     318A     13.891966   319A     13.970185   320A     16.158517  
     321A     64.283854   322A     66.355659  

    Final Occupation by Irrep:
              A 
    DOCC [     5 ]
    NA   [     5 ]
    NB   [     5 ]

  @DF-RHF Final Energy:   -76.05879202637750

   => Energetics <=

    Nuclear Repulsion Energy =              9.1414419638366073
    One-Electron Energy =                -122.9652527828122146
    Two-Electron Energy =                  37.7650187925980916
    Total Energy =                        -76.0587920263775175

Computation Completed


Properties will be evaluated at   0.000000,   0.000000,   0.000000 [a0]

Properties computed using the SCF density matrix


 Multipole Moments:

 ------------------------------------------------------------------------------------
     Multipole            Electronic (a.u.)      Nuclear  (a.u.)        Total (a.u.)
 ------------------------------------------------------------------------------------

 L = 1.  Multiply by 2.5417464519 to convert [e a0] to [Debye]
 Dipole X            :        -18.5972030           18.5357207           -0.0614823
 Dipole Y            :         23.5170173          -23.8700926           -0.3530752
 Dipole Z            :         24.3100201          -24.9493189           -0.6392988
 Magnitude           :                                                    0.7329019

 ------------------------------------------------------------------------------------

*** tstop() called on ddmfs1 at Mon Jan 22 13:44:57 2024
Module time:
	user time   =      31.33 seconds =       0.52 minutes
	system time =       1.73 seconds =       0.03 minutes
	total time  =          2 seconds =       0.03 minutes
Total time:
	user time   =      31.33 seconds =       0.52 minutes
	system time =       1.73 seconds =       0.03 minutes
	total time  =          2 seconds =       0.03 minutes

*** tstart() called on ddmfs1
*** at Mon Jan 22 13:44:57 2024


  //>>>>>>>>>>>>>>>>>>>>>>>>>>>>>>>>>>>//
  //               DFMP2               //
  //<<<<<<<<<<<<<<<<<<<<<<<<<<<<<<<<<<<//

   => Loading Basis Set <=

    Name: (AUG-CC-PVTZ AUX)
    Role: RIFIT
    Keyword: DF_BASIS_MP2
    atoms 1              entry LI         line    90 file /ddmfs1b/softs/psi4conda/share/psi4/basis/def2-qzvpp-ri.gbs 
    atoms 2, 5, 8        entry O          line   264 file /ddmfs1b/softs/psi4conda/share/psi4/basis/aug-cc-pvtz-ri.gbs 
    atoms 3-4, 6-7, 9-10 entry H          line    30 file /ddmfs1b/softs/psi4conda/share/psi4/basis/aug-cc-pvtz-ri.gbs 

	 --------------------------------------------------------
	                          DF-MP2                         
	      2nd-Order Density-Fitted Moller-Plesset Theory     
	              RMP2 Wavefunction,  20 Threads             
	                                                         
	        Rob Parrish, Justin Turney, Andy Simmonett,      
	           Ed Hohenstein, and C. David Sherrill          
	 --------------------------------------------------------

   => Auxiliary Basis Set <=

  Basis Set: (AUG-CC-PVTZ AUX)
    Blend: AUG-CC-PVTZ-RI + DEF2-QZVPP-RI
    Number of shells: 195
    Number of basis functions: 695
    Number of Cartesian functions: 868
    Spherical Harmonics?: true
    Max angular momentum: 4

	 --------------------------------------------------------
	                 NBF =   322, NAUX =   695
	 --------------------------------------------------------
	   CLASS    FOCC     OCC    AOCC    AVIR     VIR    FVIR
	   PAIRS       0       5       5     317     317       0
	 --------------------------------------------------------

	-----------------------------------------------------------
	 ==================> DF-MP2 Energies <==================== 
	-----------------------------------------------------------
	 Reference Energy          =     -76.0587920263775032 [Eh]
	 Singles Energy            =      -0.0000000000000000 [Eh]
	 Same-Spin Energy          =      -0.0684001018726883 [Eh]
	 Opposite-Spin Energy      =      -0.2156928773923738 [Eh]
	 Correlation Energy        =      -0.2840929792650621 [Eh]
	 Total Energy              =     -76.3428850056425716 [Eh]
	-----------------------------------------------------------
	 ================> DF-SCS-MP2 Energies <================== 
	-----------------------------------------------------------
	 SCS Same-Spin Scale       =       0.3333333333333333 [-]
	 SCS Opposite-Spin Scale   =       1.2000000000000000 [-]
	 SCS Same-Spin Energy      =      -0.0228000339575628 [Eh]
	 SCS Opposite-Spin Energy  =      -0.2588314528708485 [Eh]
	 SCS Correlation Energy    =      -0.2816314868284113 [Eh]
	 SCS Total Energy          =     -76.3404235132059199 [Eh]
	-----------------------------------------------------------


*** tstop() called on ddmfs1 at Mon Jan 22 13:44:59 2024
Module time:
	user time   =      10.80 seconds =       0.18 minutes
	system time =       0.64 seconds =       0.01 minutes
	total time  =          2 seconds =       0.03 minutes
Total time:
	user time   =      42.14 seconds =       0.70 minutes
	system time =       2.37 seconds =       0.04 minutes
	total time  =          4 seconds =       0.07 minutes

    Psi4 stopped on: Monday, 22 January 2024 01:44PM
    Psi4 wall time for execution: 0:00:03.74

*** Psi4 exiting successfully. Buy a developer a beer!
