
    -----------------------------------------------------------------------
          Psi4: An Open-Source Ab Initio Electronic Structure Package
                               Psi4 1.8.2 release

                         Git: Rev {} zzzzzzz 


    D. G. A. Smith, L. A. Burns, A. C. Simmonett, R. M. Parrish,
    M. C. Schieber, R. Galvelis, P. Kraus, H. Kruse, R. Di Remigio,
    A. Alenaizan, A. M. James, S. Lehtola, J. P. Misiewicz, M. Scheurer,
    R. A. Shaw, J. B. Schriber, Y. Xie, Z. L. Glick, D. A. Sirianni,
    J. S. O'Brien, J. M. Waldrop, A. Kumar, E. G. Hohenstein,
    B. P. Pritchard, B. R. Brooks, H. F. Schaefer III, A. Yu. Sokolov,
    K. Patkowski, A. E. DePrince III, U. Bozkaya, R. A. King,
    F. A. Evangelista, J. M. Turney, T. D. Crawford, C. D. Sherrill,
    J. Chem. Phys. 152(18) 184108 (2020). https://doi.org/10.1063/5.0006002

                            Additional Code Authors
    E. T. Seidl, C. L. Janssen, E. F. Valeev, M. L. Leininger,
    J. F. Gonthier, R. M. Richard, H. R. McAlexander, M. Saitow, X. Wang,
    P. Verma, M. H. Lechner, A. Jiang, S. Behnle, A. G. Heide,
    M. F. Herbst, and D. L. Poole

             Previous Authors, Complete List of Code Contributors,
                       and Citations for Specific Modules
    https://github.com/psi4/psi4/blob/master/codemeta.json
    https://github.com/psi4/psi4/graphs/contributors
    http://psicode.org/psi4manual/master/introduction.html#citing-psifour

    -----------------------------------------------------------------------


    Psi4 started on: Monday, 22 January 2024 01:39PM

    Process ID: 60804
    Host:       ddmfs1
    PSIDATADIR: /ddmfs1b/softs/psi4conda/share/psi4
    Memory:     500.0 MiB
    Threads:    20
    
  ==> Input File <==

--------------------------------------------------------------------------
MEMORY 60 GB

molecule dimer {
1 1
Li         0.000000     0.000000     0.000000
Gh(O)      1.852804     0.610325     0.422366
Gh(H)      2.273260     1.457225     0.600686
Gh(H)      2.485926     0.051439    -0.025591
Gh(O)     -1.159180     1.378186     0.408450
Gh(H)     -1.049995     1.647269     1.320449
Gh(H)     -1.096509     2.226849    -0.094508
Gh(O)     -0.329423    -1.475069     1.145804
Gh(H)     -0.434844    -2.362818     0.770701
Gh(H)     -1.017858    -1.314900     1.802054
Gh(O)      0.503397    -1.152424    -1.784085
Gh(H)      0.322310    -0.760718    -2.631013
Gh(H)      1.362436    -1.632825    -1.984484

units ang
no_reorient
no_com
symmetry c1
}

set {
basis        aug-cc-pVTZ
scf_type     df
}

energy("mp2")
--------------------------------------------------------------------------

  Memory set to  55.879 GiB by Python driver.

Scratch directory: /ddmfs1a/scratch/
   => Libint2 <=

    Primary   basis highest AM E, G, H:  5, 4, 3
    Auxiliary basis highest AM E, G, H:  6, 5, 4
    Onebody   basis highest AM E, G, H:  6, 5, 4
    Solid Harmonics ordering:            gaussian

*** tstart() called on ddmfs1
*** at Mon Jan 22 13:39:35 2024

   => Loading Basis Set <=

    Name: AUG-CC-PVTZ
    Role: ORBITAL
    Keyword: BASIS
    atoms 1                     entry LI         line    85 file /ddmfs1b/softs/psi4conda/share/psi4/basis/aug-cc-pvtz.gbs 
    atoms 2, 5, 8, 11           entry O          line   331 file /ddmfs1b/softs/psi4conda/share/psi4/basis/aug-cc-pvtz.gbs 
    atoms 3-4, 6-7, 9-10, 12-13 entry H          line    40 file /ddmfs1b/softs/psi4conda/share/psi4/basis/aug-cc-pvtz.gbs 


         ---------------------------------------------------------
                                   SCF
               by Justin Turney, Rob Parrish, Andy Simmonett
                          and Daniel G. A. Smith
                              RHF Reference
                       20 Threads,  57220 MiB Core
         ---------------------------------------------------------

  ==> Geometry <==

    Molecular point group: c1
    Full point group: C1

    Geometry (in Angstrom), charge = 1, multiplicity = 1:

       Center              X                  Y                   Z               Mass       
    ------------   -----------------  -----------------  -----------------  -----------------
         LI           0.000000000000     0.000000000000     0.000000000000     7.016003436600
      Gh(O)           1.852804000000     0.610325000000     0.422366000000    15.994914619570
      Gh(H)           2.273260000000     1.457225000000     0.600686000000     1.007825032230
      Gh(H)           2.485926000000     0.051439000000    -0.025591000000     1.007825032230
      Gh(O)          -1.159180000000     1.378186000000     0.408450000000    15.994914619570
      Gh(H)          -1.049995000000     1.647269000000     1.320449000000     1.007825032230
      Gh(H)          -1.096509000000     2.226849000000    -0.094508000000     1.007825032230
      Gh(O)          -0.329423000000    -1.475069000000     1.145804000000    15.994914619570
      Gh(H)          -0.434844000000    -2.362818000000     0.770701000000     1.007825032230
      Gh(H)          -1.017858000000    -1.314900000000     1.802054000000     1.007825032230
      Gh(O)           0.503397000000    -1.152424000000    -1.784085000000    15.994914619570
      Gh(H)           0.322310000000    -0.760718000000    -2.631013000000     1.007825032230
      Gh(H)           1.362436000000    -1.632825000000    -1.984484000000     1.007825032230

  Running in c1 symmetry.

  Rotational constants: A =      0.10069  B =      0.07998  C =      0.07183 [cm^-1]
  Rotational constants: A =   3018.67160  B =   2397.79705  C =   2153.40812 [MHz]
  Nuclear repulsion =    0.000000000000000

  Charge       = 1
  Multiplicity = 1
  Electrons    = 2
  Nalpha       = 1
  Nbeta        = 1

  ==> Algorithm <==

  SCF Algorithm Type is DF.
  DIIS enabled.
  MOM disabled.
  Fractional occupation disabled.
  Guess Type is SAD.
  Energy threshold   = 1.00e-08
  Density threshold  = 1.00e-08
  Integral threshold = 1.00e-12

  ==> Primary Basis <==

  Basis Set: AUG-CC-PVTZ
    Blend: AUG-CC-PVTZ
    Number of shells: 142
    Number of basis functions: 414
    Number of Cartesian functions: 475
    Spherical Harmonics?: true
    Max angular momentum: 3

   => Loading Basis Set <=

    Name: (AUG-CC-PVTZ AUX)
    Role: JKFIT
    Keyword: DF_BASIS_SCF
    atoms 1                     entry LI         line    54 file /ddmfs1b/softs/psi4conda/share/psi4/basis/def2-universal-jkfit.gbs 
    atoms 2, 5, 8, 11           entry O          line   286 file /ddmfs1b/softs/psi4conda/share/psi4/basis/aug-cc-pvtz-jkfit.gbs 
    atoms 3-4, 6-7, 9-10, 12-13 entry H          line    70 file /ddmfs1b/softs/psi4conda/share/psi4/basis/aug-cc-pvtz-jkfit.gbs 

  ==> Integral Setup <==

  DFHelper Memory: AOs need 1.082 GiB; user supplied 41.910 GiB. 
  Using in-core AOs.

  ==> MemDFJK: Density-Fitted J/K Matrices <==

    J tasked:                   Yes
    K tasked:                   Yes
    wK tasked:                   No
    OpenMP threads:              20
    Memory [MiB]:             42915
    Algorithm:                 Core
    Schwarz Cutoff:           1E-12
    Mask sparsity (%):       4.6197
    Fitting Condition:        1E-10

   => Auxiliary Basis Set <=

  Basis Set: (AUG-CC-PVTZ AUX)
    Blend: AUG-CC-PVTZ-JKFIT + DEF2-UNIVERSAL-JKFIT
    Number of shells: 249
    Number of basis functions: 835
    Number of Cartesian functions: 1024
    Spherical Harmonics?: true
    Max angular momentum: 4

  Minimum eigenvalue in the overlap matrix is 1.9895805387E-05.
  Reciprocal condition number of the overlap matrix is 1.4013696394E-06.
    Using symmetric orthogonalization.

  ==> Pre-Iterations <==

  SCF Guess: Superposition of Atomic Densities via on-the-fly atomic UHF (no occupation information).

   -------------------------
    Irrep   Nso     Nmo    
   -------------------------
     A        414     414 
   -------------------------
    Total     414     414
   -------------------------

  ==> Iterations <==

                           Total Energy        Delta E     RMS |[F,P]|

   @DF-RHF iter SAD:    -7.31416422384942   -7.31416e+00   0.00000e+00 
   @DF-RHF iter   1:    -7.23638288200327    7.77813e-02   5.48707e-06 DIIS
   @DF-RHF iter   2:    -7.23638480356070   -1.92156e-06   6.68938e-07 DIIS
   @DF-RHF iter   3:    -7.23638483500205   -3.14413e-08   3.45944e-08 DIIS
   @DF-RHF iter   4:    -7.23638483506356   -6.15170e-11   2.34476e-10 DIIS
  Energy and wave function converged.


  ==> Post-Iterations <==

    Orbital Energies [Eh]
    ---------------------

    Doubly Occupied:                                                      

       1A     -2.792353  

    Virtual:                                                              

       2A     -0.196302     3A     -0.128603     4A     -0.128601  
       5A     -0.128599     6A     -0.073770     7A     -0.056394  
       8A     -0.056392     9A     -0.056389    10A     -0.051394  
      11A     -0.051093    12A     -0.050616    13A     -0.047689  
      14A     -0.045819    15A     -0.025939    16A     -0.012072  
      17A     -0.009538    18A     -0.008617    19A     -0.008319  
      20A      0.001302    21A      0.007588    22A      0.010044  
      23A      0.013811    24A      0.017950    25A      0.020319  
      26A      0.022326    27A      0.034582    28A      0.042937  
      29A      0.049095    30A      0.051065    31A      0.061417  
      32A      0.067490    33A      0.082063    34A      0.090004  
      35A      0.092948    36A      0.096370    37A      0.100961  
      38A      0.119622    39A      0.138460    40A      0.139325  
      41A      0.143661    42A      0.149915    43A      0.158586  
      44A      0.160408    45A      0.165864    46A      0.170412  
      47A      0.175747    48A      0.180668    49A      0.192914  
      50A      0.196216    51A      0.200568    52A      0.218720  
      53A      0.219298    54A      0.223562    55A      0.227380  
      56A      0.229513    57A      0.247480    58A      0.252170  
      59A      0.255102    60A      0.258562    61A      0.264083  
      62A      0.272668    63A      0.277530    64A      0.279049  
      65A      0.290023    66A      0.296626    67A      0.302553  
      68A      0.306679    69A      0.309697    70A      0.311690  
      71A      0.318753    72A      0.328154    73A      0.338673  
      74A      0.348229    75A      0.354704    76A      0.359403  
      77A      0.368870    78A      0.371474    79A      0.375694  
      80A      0.382092    81A      0.386797    82A      0.393485  
      83A      0.400492    84A      0.422289    85A      0.435805  
      86A      0.447033    87A      0.454147    88A      0.475321  
      89A      0.497518    90A      0.519613    91A      0.540151  
      92A      0.550231    93A      0.563905    94A      0.569725  
      95A      0.573810    96A      0.598062    97A      0.604040  
      98A      0.606233    99A      0.620408   100A      0.632272  
     101A      0.637062   102A      0.644733   103A      0.650880  
     104A      0.667358   105A      0.670153   106A      0.682257  
     107A      0.688040   108A      0.702366   109A      0.717090  
     110A      0.719414   111A      0.723797   112A      0.746512  
     113A      0.749683   114A      0.761232   115A      0.766440  
     116A      0.775227   117A      0.784486   118A      0.787736  
     119A      0.796587   120A      0.808549   121A      0.824393  
     122A      0.830449   123A      0.838938   124A      0.848092  
     125A      0.850308   126A      0.858247   127A      0.862942  
     128A      0.877663   129A      0.888314   130A      0.894217  
     131A      0.909647   132A      0.914158   133A      0.922524  
     134A      0.927789   135A      0.935469   136A      0.943452  
     137A      0.946226   138A      0.955986   139A      0.971776  
     140A      0.977265   141A      0.980884   142A      0.990851  
     143A      1.002395   144A      1.023600   145A      1.025599  
     146A      1.036984   147A      1.045372   148A      1.052253  
     149A      1.063832   150A      1.072431   151A      1.081065  
     152A      1.098613   153A      1.102666   154A      1.117030  
     155A      1.121809   156A      1.125456   157A      1.138179  
     158A      1.152278   159A      1.163794   160A      1.168209  
     161A      1.194005   162A      1.213742   163A      1.223335  
     164A      1.229107   165A      1.243342   166A      1.249760  
     167A      1.266671   168A      1.283816   169A      1.295732  
     170A      1.301835   171A      1.324284   172A      1.338723  
     173A      1.348651   174A      1.362249   175A      1.376929  
     176A      1.391769   177A      1.425727   178A      1.473919  
     179A      1.485268   180A      1.500088   181A      1.531359  
     182A      1.553248   183A      1.570881   184A      1.623854  
     185A      1.634489   186A      1.639441   187A      1.654808  
     188A      1.664171   189A      1.677695   190A      1.687748  
     191A      1.703331   192A      1.718930   193A      1.739525  
     194A      1.754288   195A      1.768549   196A      1.776292  
     197A      1.790264   198A      1.805864   199A      1.821702  
     200A      1.830933   201A      1.860033   202A      1.865070  
     203A      1.887942   204A      1.897773   205A      1.906893  
     206A      1.919736   207A      1.941952   208A      1.951143  
     209A      1.965028   210A      2.154017   211A      2.221806  
     212A      2.233175   213A      2.261897   214A      2.281500  
     215A      2.302798   216A      2.318033   217A      2.336283  
     218A      2.356742   219A      2.361748   220A      2.386666  
     221A      2.399161   222A      2.399866   223A      2.413749  
     224A      2.420482   225A      2.443986   226A      2.456556  
     227A      2.481406   228A      2.491354   229A      2.499252  
     230A      2.553083   231A      2.575901   232A      2.595722  
     233A      2.619848   234A      2.652199   235A      2.667652  
     236A      2.679135   237A      2.709068   238A      2.728801  
     239A      2.748303   240A      2.766224   241A      2.804450  
     242A      2.849882   243A      2.860178   244A      2.872917  
     245A      2.925768   246A      2.973358   247A      2.977426  
     248A      2.997599   249A      3.029300   250A      3.038501  
     251A      3.062502   252A      3.075102   253A      3.090217  
     254A      3.114575   255A      3.121897   256A      3.136480  
     257A      3.151967   258A      3.155693   259A      3.185227  
     260A      3.194347   261A      3.200019   262A      3.221719  
     263A      3.233295   264A      3.273895   265A      3.289274  
     266A      3.434038   267A      3.470900   268A      3.505370  
     269A      3.513936   270A      3.523646   271A      3.545659  
     272A      3.584687   273A      3.623207   274A      4.135497  
     275A      4.207119   276A      4.216597   277A      4.238711  
     278A      4.248027   279A      4.322282   280A      4.344988  
     281A      4.367452   282A      4.397984   283A      4.402266  
     284A      4.423575   285A      4.437171   286A      4.457578  
     287A      4.479678   288A      4.512786   289A      4.543669  
     290A      4.551660   291A      4.574442   292A      4.586893  
     293A      4.601192   294A      4.645766   295A      4.674867  
     296A      4.688755   297A      4.740929   298A      4.806681  
     299A      4.812982   300A      4.840747   301A      4.845996  
     302A      4.858337   303A      4.867348   304A      4.894149  
     305A      4.901113   306A      4.928925   307A      4.939137  
     308A      4.969009   309A      5.009525   310A      5.050376  
     311A      5.064116   312A      5.098571   313A      5.133404  
     314A      5.144159   315A      5.306583   316A      5.319904  
     317A      5.356267   318A      5.362292   319A      5.383413  
     320A      5.407289   321A      5.437298   322A      5.463365  
     323A      5.507480   324A      5.514131   325A      5.541191  
     326A      5.588227   327A      5.650240   328A      5.704504  
     329A      5.740675   330A      5.781825   331A      5.987888  
     332A      6.101174   333A      6.142116   334A      6.168287  
     335A      6.198977   336A      6.207663   337A      6.229071  
     338A      6.269654   339A      6.396098   340A      6.455691  
     341A      6.608500   342A      6.658895   343A      6.809185  
     344A      6.863106   345A      6.876758   346A      6.948866  
     347A      7.491954   348A      7.512343   349A      7.523954  
     350A      7.537550   351A      7.567675   352A      7.623315  
     353A      7.661771   354A      7.699296   355A      7.833555  
     356A      7.863021   357A      7.885065   358A      7.888356  
     359A      7.900954   360A      7.928362   361A      8.026355  
     362A      8.038349   363A      8.048005   364A      8.053876  
     365A      8.073252   366A      8.141265   367A      8.431304  
     368A      8.469016   369A      8.542684   370A      8.549593  
     371A      8.591534   372A      8.608958   373A      8.629588  
     374A      8.651072   375A      9.552921   376A      9.655541  
     377A      9.679575   378A      9.685413   379A      9.701610  
     380A      9.733820   381A      9.758910   382A      9.765379  
     383A      9.781671   384A      9.802453   385A      9.819013  
     386A      9.842514   387A      9.934782   388A      9.977421  
     389A     10.005175   390A     10.043250   391A     10.891511  
     392A     10.899516   393A     10.901893   394A     10.991733  
     395A     11.526753   396A     11.584324   397A     11.596385  
     398A     11.647612   399A     11.934019   400A     11.942492  
     401A     11.995240   402A     12.075276   403A     13.288048  
     404A     13.297275   405A     13.319943   406A     13.413198  
     407A     13.673154   408A     13.711818   409A     13.741117  
     410A     13.793345   411A     64.423573   412A     64.781409  
     413A     65.073581   414A     65.385782  

    Final Occupation by Irrep:
              A 
    DOCC [     1 ]
    NA   [     1 ]
    NB   [     1 ]

  @DF-RHF Final Energy:    -7.23638483506356

   => Energetics <=

    Nuclear Repulsion Energy =              0.0000000000000000
    One-Electron Energy =                  -8.8880642977224671
    Two-Electron Energy =                   1.6516794626589026
    Total Energy =                         -7.2363848350635642

Computation Completed


Properties will be evaluated at   0.000000,   0.000000,   0.000000 [a0]

Properties computed using the SCF density matrix


 Multipole Moments:

 ------------------------------------------------------------------------------------
     Multipole            Electronic (a.u.)      Nuclear  (a.u.)        Total (a.u.)
 ------------------------------------------------------------------------------------

 L = 1.  Multiply by 2.5417464519 to convert [e a0] to [Debye]
 Dipole X            :          0.0000019            0.0000000            0.0000019
 Dipole Y            :          0.0000007            0.0000000            0.0000007
 Dipole Z            :         -0.0000156            0.0000000           -0.0000156
 Magnitude           :                                                    0.0000157

 ------------------------------------------------------------------------------------

*** tstop() called on ddmfs1 at Mon Jan 22 13:39:38 2024
Module time:
	user time   =      40.50 seconds =       0.68 minutes
	system time =       2.18 seconds =       0.04 minutes
	total time  =          3 seconds =       0.05 minutes
Total time:
	user time   =      40.50 seconds =       0.68 minutes
	system time =       2.18 seconds =       0.04 minutes
	total time  =          3 seconds =       0.05 minutes

*** tstart() called on ddmfs1
*** at Mon Jan 22 13:39:38 2024


  //>>>>>>>>>>>>>>>>>>>>>>>>>>>>>>>>>>>//
  //               DFMP2               //
  //<<<<<<<<<<<<<<<<<<<<<<<<<<<<<<<<<<<//

   => Loading Basis Set <=

    Name: (AUG-CC-PVTZ AUX)
    Role: RIFIT
    Keyword: DF_BASIS_MP2
    atoms 1                     entry LI         line    90 file /ddmfs1b/softs/psi4conda/share/psi4/basis/def2-qzvpp-ri.gbs 
    atoms 2, 5, 8, 11           entry O          line   264 file /ddmfs1b/softs/psi4conda/share/psi4/basis/aug-cc-pvtz-ri.gbs 
    atoms 3-4, 6-7, 9-10, 12-13 entry H          line    30 file /ddmfs1b/softs/psi4conda/share/psi4/basis/aug-cc-pvtz-ri.gbs 

	 --------------------------------------------------------
	                          DF-MP2                         
	      2nd-Order Density-Fitted Moller-Plesset Theory     
	              RMP2 Wavefunction,  20 Threads             
	                                                         
	        Rob Parrish, Justin Turney, Andy Simmonett,      
	           Ed Hohenstein, and C. David Sherrill          
	 --------------------------------------------------------

   => Auxiliary Basis Set <=

  Basis Set: (AUG-CC-PVTZ AUX)
    Blend: AUG-CC-PVTZ-RI + DEF2-QZVPP-RI
    Number of shells: 251
    Number of basis functions: 893
    Number of Cartesian functions: 1114
    Spherical Harmonics?: true
    Max angular momentum: 4

	 --------------------------------------------------------
	                 NBF =   414, NAUX =   893
	 --------------------------------------------------------
	   CLASS    FOCC     OCC    AOCC    AVIR     VIR    FVIR
	   PAIRS       0       1       1     413     413       0
	 --------------------------------------------------------

	-----------------------------------------------------------
	 ==================> DF-MP2 Energies <==================== 
	-----------------------------------------------------------
	 Reference Energy          =      -7.2363848350635642 [Eh]
	 Singles Energy            =      -0.0000000000000000 [Eh]
	 Same-Spin Energy          =       0.0000000000000000 [Eh]
	 Opposite-Spin Energy      =      -0.0169036373673373 [Eh]
	 Correlation Energy        =      -0.0169036373673373 [Eh]
	 Total Energy              =      -7.2532884724309019 [Eh]
	-----------------------------------------------------------
	 ================> DF-SCS-MP2 Energies <================== 
	-----------------------------------------------------------
	 SCS Same-Spin Scale       =       0.3333333333333333 [-]
	 SCS Opposite-Spin Scale   =       1.2000000000000000 [-]
	 SCS Same-Spin Energy      =       0.0000000000000000 [Eh]
	 SCS Opposite-Spin Energy  =      -0.0202843648408048 [Eh]
	 SCS Correlation Energy    =      -0.0202843648408048 [Eh]
	 SCS Total Energy          =      -7.2566691999043691 [Eh]
	-----------------------------------------------------------


*** tstop() called on ddmfs1 at Mon Jan 22 13:39:40 2024
Module time:
	user time   =      15.60 seconds =       0.26 minutes
	system time =       0.90 seconds =       0.01 minutes
	total time  =          2 seconds =       0.03 minutes
Total time:
	user time   =      56.12 seconds =       0.94 minutes
	system time =       3.08 seconds =       0.05 minutes
	total time  =          5 seconds =       0.08 minutes

    Psi4 stopped on: Monday, 22 January 2024 01:39PM
    Psi4 wall time for execution: 0:00:05.36

*** Psi4 exiting successfully. Buy a developer a beer!
