
    -----------------------------------------------------------------------
          Psi4: An Open-Source Ab Initio Electronic Structure Package
                               Psi4 1.8.2 release

                         Git: Rev {} zzzzzzz 


    D. G. A. Smith, L. A. Burns, A. C. Simmonett, R. M. Parrish,
    M. C. Schieber, R. Galvelis, P. Kraus, H. Kruse, R. Di Remigio,
    A. Alenaizan, A. M. James, S. Lehtola, J. P. Misiewicz, M. Scheurer,
    R. A. Shaw, J. B. Schriber, Y. Xie, Z. L. Glick, D. A. Sirianni,
    J. S. O'Brien, J. M. Waldrop, A. Kumar, E. G. Hohenstein,
    B. P. Pritchard, B. R. Brooks, H. F. Schaefer III, A. Yu. Sokolov,
    K. Patkowski, A. E. DePrince III, U. Bozkaya, R. A. King,
    F. A. Evangelista, J. M. Turney, T. D. Crawford, C. D. Sherrill,
    J. Chem. Phys. 152(18) 184108 (2020). https://doi.org/10.1063/5.0006002

                            Additional Code Authors
    E. T. Seidl, C. L. Janssen, E. F. Valeev, M. L. Leininger,
    J. F. Gonthier, R. M. Richard, H. R. McAlexander, M. Saitow, X. Wang,
    P. Verma, M. H. Lechner, A. Jiang, S. Behnle, A. G. Heide,
    M. F. Herbst, and D. L. Poole

             Previous Authors, Complete List of Code Contributors,
                       and Citations for Specific Modules
    https://github.com/psi4/psi4/blob/master/codemeta.json
    https://github.com/psi4/psi4/graphs/contributors
    http://psicode.org/psi4manual/master/introduction.html#citing-psifour

    -----------------------------------------------------------------------


    Psi4 started on: Monday, 22 January 2024 12:53PM

    Process ID: 51463
    Host:       ddmfs1
    PSIDATADIR: /ddmfs1b/softs/psi4conda/share/psi4
    Memory:     500.0 MiB
    Threads:    20
    
  ==> Input File <==

--------------------------------------------------------------------------
MEMORY 60 GB

molecule dimer {
1 1
Li         0.000000     0.000000     0.000000
O         -1.054262     1.033472     1.093346
H         -1.730482     0.532374     1.562433
H         -1.571843     1.575637     0.505802
O         -0.744178    -1.532605    -0.783434
H         -0.277426    -1.988784    -1.466297
H         -1.469992    -1.214014    -1.334823
O          1.660220    -0.198584     0.829101
H          2.081802    -0.988587     0.338437
H          2.282426     0.471872     1.056824

units ang
no_reorient
no_com
symmetry c1
}

set {
basis        aug-cc-pVTZ
scf_type     df
}

energy("mp2")
--------------------------------------------------------------------------

  Memory set to  55.879 GiB by Python driver.

Scratch directory: /ddmfs1a/scratch/
   => Libint2 <=

    Primary   basis highest AM E, G, H:  5, 4, 3
    Auxiliary basis highest AM E, G, H:  6, 5, 4
    Onebody   basis highest AM E, G, H:  6, 5, 4
    Solid Harmonics ordering:            gaussian

*** tstart() called on ddmfs1
*** at Mon Jan 22 12:53:06 2024

   => Loading Basis Set <=

    Name: AUG-CC-PVTZ
    Role: ORBITAL
    Keyword: BASIS
    atoms 1              entry LI         line    85 file /ddmfs1b/softs/psi4conda/share/psi4/basis/aug-cc-pvtz.gbs 
    atoms 2, 5, 8        entry O          line   331 file /ddmfs1b/softs/psi4conda/share/psi4/basis/aug-cc-pvtz.gbs 
    atoms 3-4, 6-7, 9-10 entry H          line    40 file /ddmfs1b/softs/psi4conda/share/psi4/basis/aug-cc-pvtz.gbs 


         ---------------------------------------------------------
                                   SCF
               by Justin Turney, Rob Parrish, Andy Simmonett
                          and Daniel G. A. Smith
                              RHF Reference
                       20 Threads,  57220 MiB Core
         ---------------------------------------------------------

  ==> Geometry <==

    Molecular point group: c1
    Full point group: C1

    Geometry (in Angstrom), charge = 1, multiplicity = 1:

       Center              X                  Y                   Z               Mass       
    ------------   -----------------  -----------------  -----------------  -----------------
         LI           0.000000000000     0.000000000000     0.000000000000     7.016003436600
         O           -1.054262000000     1.033472000000     1.093346000000    15.994914619570
         H           -1.730482000000     0.532374000000     1.562433000000     1.007825032230
         H           -1.571843000000     1.575637000000     0.505802000000     1.007825032230
         O           -0.744178000000    -1.532605000000    -0.783434000000    15.994914619570
         H           -0.277426000000    -1.988784000000    -1.466297000000     1.007825032230
         H           -1.469992000000    -1.214014000000    -1.334823000000     1.007825032230
         O            1.660220000000    -0.198584000000     0.829101000000    15.994914619570
         H            2.081802000000    -0.988587000000     0.338437000000     1.007825032230
         H            2.282426000000     0.471872000000     1.056824000000     1.007825032230

  Running in c1 symmetry.

  Rotational constants: A =      0.16779  B =      0.15124  C =      0.08896 [cm^-1]
  Rotational constants: A =   5030.25490  B =   4534.20914  C =   2666.95003 [MHz]
  Nuclear repulsion =  100.238943394978975

  Charge       = 1
  Multiplicity = 1
  Electrons    = 32
  Nalpha       = 16
  Nbeta        = 16

  ==> Algorithm <==

  SCF Algorithm Type is DF.
  DIIS enabled.
  MOM disabled.
  Fractional occupation disabled.
  Guess Type is SAD.
  Energy threshold   = 1.00e-08
  Density threshold  = 1.00e-08
  Integral threshold = 1.00e-12

  ==> Primary Basis <==

  Basis Set: AUG-CC-PVTZ
    Blend: AUG-CC-PVTZ
    Number of shells: 110
    Number of basis functions: 322
    Number of Cartesian functions: 370
    Spherical Harmonics?: true
    Max angular momentum: 3

   => Loading Basis Set <=

    Name: (AUG-CC-PVTZ AUX)
    Role: JKFIT
    Keyword: DF_BASIS_SCF
    atoms 1              entry LI         line    54 file /ddmfs1b/softs/psi4conda/share/psi4/basis/def2-universal-jkfit.gbs 
    atoms 2, 5, 8        entry O          line   286 file /ddmfs1b/softs/psi4conda/share/psi4/basis/aug-cc-pvtz-jkfit.gbs 
    atoms 3-4, 6-7, 9-10 entry H          line    70 file /ddmfs1b/softs/psi4conda/share/psi4/basis/aug-cc-pvtz-jkfit.gbs 

  ==> Integral Setup <==

  DFHelper Memory: AOs need 0.516 GiB; user supplied 41.910 GiB. 
  Using in-core AOs.

  ==> MemDFJK: Density-Fitted J/K Matrices <==

    J tasked:                   Yes
    K tasked:                   Yes
    wK tasked:                   No
    OpenMP threads:              20
    Memory [MiB]:             42915
    Algorithm:                 Core
    Schwarz Cutoff:           1E-12
    Mask sparsity (%):       3.3525
    Fitting Condition:        1E-10

   => Auxiliary Basis Set <=

  Basis Set: (AUG-CC-PVTZ AUX)
    Blend: AUG-CC-PVTZ-JKFIT + DEF2-UNIVERSAL-JKFIT
    Number of shells: 191
    Number of basis functions: 639
    Number of Cartesian functions: 783
    Spherical Harmonics?: true
    Max angular momentum: 4

  Minimum eigenvalue in the overlap matrix is 2.5110136979E-05.
  Reciprocal condition number of the overlap matrix is 1.9904783202E-06.
    Using symmetric orthogonalization.

  ==> Pre-Iterations <==

  SCF Guess: Superposition of Atomic Densities via on-the-fly atomic UHF (no occupation information).

   -------------------------
    Irrep   Nso     Nmo    
   -------------------------
     A        322     322 
   -------------------------
    Total     322     322
   -------------------------

  ==> Iterations <==

                           Total Energy        Delta E     RMS |[F,P]|

   @DF-RHF iter SAD:  -234.03869403953053   -2.34039e+02   0.00000e+00 
   @DF-RHF iter   1:  -235.27133717912096   -1.23264e+00   2.56441e-03 DIIS/ADIIS
   @DF-RHF iter   2:  -235.44127905087353   -1.69942e-01   1.65913e-03 DIIS/ADIIS
   @DF-RHF iter   3:  -235.52858432252802   -8.73053e-02   1.24052e-04 DIIS/ADIIS
   @DF-RHF iter   4:  -235.52980827988472   -1.22396e-03   3.06252e-05 DIIS
   @DF-RHF iter   5:  -235.52988567147258   -7.73916e-05   8.15735e-06 DIIS
   @DF-RHF iter   6:  -235.52989203559659   -6.36412e-06   3.58392e-06 DIIS
   @DF-RHF iter   7:  -235.52989277461361   -7.39017e-07   7.38735e-07 DIIS
   @DF-RHF iter   8:  -235.52989284458798   -6.99744e-08   1.31900e-07 DIIS
   @DF-RHF iter   9:  -235.52989284677665   -2.18867e-09   2.42189e-08 DIIS
   @DF-RHF iter  10:  -235.52989284684023   -6.35794e-11   7.97971e-09 DIIS
  Energy and wave function converged.


  ==> Post-Iterations <==

    Orbital Energies [Eh]
    ---------------------

    Doubly Occupied:                                                      

       1A    -20.785658     2A    -20.771200     3A    -20.763577  
       4A     -2.571974     5A     -1.583221     6A     -1.566250  
       7A     -1.540511     8A     -0.924857     9A     -0.920345  
      10A     -0.918690    11A     -0.835104    12A     -0.815653  
      13A     -0.778339    14A     -0.742990    15A     -0.729903  
      16A     -0.712944  

    Virtual:                                                              

      17A     -0.117434    18A     -0.087711    19A     -0.079643  
      20A     -0.074871    21A     -0.052464    22A     -0.049412  
      23A     -0.046503    24A     -0.042894    25A     -0.040242  
      26A     -0.036683    27A     -0.032517    28A     -0.023366  
      29A     -0.012958    30A     -0.008888    31A     -0.002864  
      32A      0.012347    33A      0.021907    34A      0.028289  
      35A      0.031511    36A      0.041883    37A      0.044024  
      38A      0.046191    39A      0.049155    40A      0.055087  
      41A      0.066007    42A      0.067846    43A      0.073563  
      44A      0.084833    45A      0.097844    46A      0.103620  
      47A      0.107090    48A      0.110218    49A      0.144596  
      50A      0.155793    51A      0.159147    52A      0.162506  
      53A      0.173829    54A      0.178581    55A      0.185823  
      56A      0.189501    57A      0.203812    58A      0.214670  
      59A      0.224181    60A      0.227811    61A      0.236210  
      62A      0.242035    63A      0.247910    64A      0.250410  
      65A      0.260249    66A      0.274070    67A      0.280839  
      68A      0.288863    69A      0.295513    70A      0.299149  
      71A      0.306034    72A      0.310751    73A      0.314734  
      74A      0.321866    75A      0.326190    76A      0.330789  
      77A      0.339872    78A      0.342146    79A      0.349135  
      80A      0.354336    81A      0.363408    82A      0.368164  
      83A      0.383687    84A      0.392624    85A      0.419666  
      86A      0.423230    87A      0.428544    88A      0.465667  
      89A      0.487579    90A      0.508620    91A      0.539975  
      92A      0.557206    93A      0.566305    94A      0.579134  
      95A      0.587712    96A      0.588294    97A      0.599763  
      98A      0.607996    99A      0.618410   100A      0.648847  
     101A      0.657053   102A      0.669629   103A      0.681024  
     104A      0.701067   105A      0.708586   106A      0.729946  
     107A      0.734803   108A      0.740231   109A      0.751384  
     110A      0.759592   111A      0.782946   112A      0.788404  
     113A      0.800262   114A      0.802181   115A      0.813450  
     116A      0.817622   117A      0.833039   118A      0.844916  
     119A      0.852796   120A      0.873225   121A      0.877854  
     122A      0.884979   123A      0.892111   124A      0.906403  
     125A      0.909836   126A      0.924993   127A      0.927547  
     128A      0.935971   129A      0.950465   130A      0.958683  
     131A      0.965910   132A      0.978415   133A      0.984163  
     134A      0.992838   135A      1.010806   136A      1.018839  
     137A      1.024554   138A      1.036945   139A      1.053258  
     140A      1.064426   141A      1.078680   142A      1.087113  
     143A      1.098829   144A      1.124005   145A      1.129222  
     146A      1.149045   147A      1.158454   148A      1.174039  
     149A      1.199879   150A      1.219671   151A      1.255898  
     152A      1.263100   153A      1.278059   154A      1.297221  
     155A      1.305555   156A      1.352338   157A      1.369130  
     158A      1.410806   159A      1.429825   160A      1.465755  
     161A      1.491115   162A      1.498236   163A      1.510009  
     164A      1.529405   165A      1.556885   166A      1.617409  
     167A      1.623327   168A      1.647742   169A      1.667935  
     170A      1.702623   171A      1.709037   172A      1.739012  
     173A      1.780642   174A      1.814000   175A      1.829320  
     176A      1.851867   177A      1.910342   178A      1.918531  
     179A      1.930931   180A      1.972703   181A      2.024634  
     182A      2.033227   183A      2.049549   184A      2.145845  
     185A      2.184422   186A      2.189649   187A      2.225352  
     188A      2.259466   189A      2.262768   190A      2.279977  
     191A      2.295154   192A      2.334527   193A      2.345796  
     194A      2.372418   195A      2.401856   196A      2.452052  
     197A      2.462325   198A      2.463465   199A      2.480593  
     200A      2.503676   201A      2.528781   202A      2.556851  
     203A      2.564378   204A      2.582728   205A      2.601464  
     206A      2.619403   207A      2.624987   208A      2.640527  
     209A      2.665199   210A      2.672900   211A      2.715976  
     212A      2.747819   213A      2.753180   214A      2.760189  
     215A      2.779630   216A      2.814420   217A      2.830783  
     218A      2.873437   219A      2.915170   220A      3.556578  
     221A      3.606381   222A      3.694516   223A      3.705229  
     224A      3.714939   225A      3.778780   226A      3.875182  
     227A      3.921041   228A      3.940330   229A      3.978543  
     230A      4.032209   231A      4.048289   232A      4.091118  
     233A      4.113015   234A      4.131146   235A      4.141514  
     236A      4.160431   237A      4.177209   238A      4.199965  
     239A      4.286715   240A      4.300720   241A      4.334956  
     242A      4.349372   243A      4.363862   244A      4.366997  
     245A      4.393190   246A      4.403514   247A      4.422915  
     248A      4.434697   249A      4.463219   250A      4.479137  
     251A      4.492321   252A      4.551894   253A      4.563457  
     254A      4.613178   255A      4.666797   256A      4.675780  
     257A      4.742153   258A      4.769182   259A      4.827891  
     260A      4.934382   261A      5.001023   262A      5.016790  
     263A      5.029797   264A      5.040680   265A      5.063866  
     266A      5.123316   267A      5.153233   268A      5.187472  
     269A      5.192419   270A      5.225644   271A      5.258780  
     272A      5.350171   273A      5.439237   274A      5.508743  
     275A      5.584577   276A      5.659924   277A      5.692712  
     278A      6.019594   279A      6.193624   280A      6.228619  
     281A      6.378231   282A      6.402356   283A      6.492134  
     284A      6.587046   285A      6.626689   286A      6.656867  
     287A      6.673231   288A      6.825403   289A      6.851040  
     290A      6.950183   291A      6.981816   292A      7.027384  
     293A      7.058225   294A      7.095802   295A      7.120584  
     296A      7.150809   297A      7.162867   298A      7.169673  
     299A      7.181771   300A      7.199070   301A      7.207628  
     302A      7.217249   303A      7.249153   304A      7.261183  
     305A      7.293291   306A      7.306260   307A      7.334027  
     308A      7.453908   309A      7.483347   310A      7.526509  
     311A      7.611980   312A      7.687880   313A      7.710597  
     314A      7.794514   315A      7.823839   316A      7.922067  
     317A      8.504518   318A      8.751740   319A      8.800855  
     320A     15.568949   321A     16.170905   322A     16.264902  

    Final Occupation by Irrep:
              A 
    DOCC [    16 ]
    NA   [    16 ]
    NB   [    16 ]

  @DF-RHF Final Energy:  -235.52989284684023

   => Energetics <=

    Nuclear Repulsion Energy =            100.2389433949789748
    One-Electron Energy =                -517.6152357935432065
    Two-Electron Energy =                 181.8463995517240335
    Total Energy =                       -235.5298928468402266

Computation Completed


Properties will be evaluated at   0.000000,   0.000000,   0.000000 [a0]

Properties computed using the SCF density matrix


 Multipole Moments:

 ------------------------------------------------------------------------------------
     Multipole            Electronic (a.u.)      Nuclear  (a.u.)        Total (a.u.)
 ------------------------------------------------------------------------------------

 L = 1.  Multiply by 2.5417464519 to convert [e a0] to [Debye]
 Dipole X            :          3.0951492           -3.3850192           -0.2898700
 Dipole Y            :         13.3136014          -13.5932498           -0.2796483
 Dipole Z            :        -19.3503012           18.4710902           -0.8792110
 Magnitude           :                                                    0.9670780

 ------------------------------------------------------------------------------------

*** tstop() called on ddmfs1 at Mon Jan 22 12:53:09 2024
Module time:
	user time   =      36.93 seconds =       0.62 minutes
	system time =       2.12 seconds =       0.04 minutes
	total time  =          3 seconds =       0.05 minutes
Total time:
	user time   =      36.93 seconds =       0.62 minutes
	system time =       2.12 seconds =       0.04 minutes
	total time  =          3 seconds =       0.05 minutes

*** tstart() called on ddmfs1
*** at Mon Jan 22 12:53:09 2024


  //>>>>>>>>>>>>>>>>>>>>>>>>>>>>>>>>>>>//
  //               DFMP2               //
  //<<<<<<<<<<<<<<<<<<<<<<<<<<<<<<<<<<<//

   => Loading Basis Set <=

    Name: (AUG-CC-PVTZ AUX)
    Role: RIFIT
    Keyword: DF_BASIS_MP2
    atoms 1              entry LI         line    90 file /ddmfs1b/softs/psi4conda/share/psi4/basis/def2-qzvpp-ri.gbs 
    atoms 2, 5, 8        entry O          line   264 file /ddmfs1b/softs/psi4conda/share/psi4/basis/aug-cc-pvtz-ri.gbs 
    atoms 3-4, 6-7, 9-10 entry H          line    30 file /ddmfs1b/softs/psi4conda/share/psi4/basis/aug-cc-pvtz-ri.gbs 

	 --------------------------------------------------------
	                          DF-MP2                         
	      2nd-Order Density-Fitted Moller-Plesset Theory     
	              RMP2 Wavefunction,  20 Threads             
	                                                         
	        Rob Parrish, Justin Turney, Andy Simmonett,      
	           Ed Hohenstein, and C. David Sherrill          
	 --------------------------------------------------------

   => Auxiliary Basis Set <=

  Basis Set: (AUG-CC-PVTZ AUX)
    Blend: AUG-CC-PVTZ-RI + DEF2-QZVPP-RI
    Number of shells: 195
    Number of basis functions: 695
    Number of Cartesian functions: 868
    Spherical Harmonics?: true
    Max angular momentum: 4

	 --------------------------------------------------------
	                 NBF =   322, NAUX =   695
	 --------------------------------------------------------
	   CLASS    FOCC     OCC    AOCC    AVIR     VIR    FVIR
	   PAIRS       0      16      16     306     306       0
	 --------------------------------------------------------

	-----------------------------------------------------------
	 ==================> DF-MP2 Energies <==================== 
	-----------------------------------------------------------
	 Reference Energy          =    -235.5298928468402266 [Eh]
	 Singles Energy            =      -0.0000000000000000 [Eh]
	 Same-Spin Energy          =      -0.2062206412881847 [Eh]
	 Opposite-Spin Energy      =      -0.6618238494136264 [Eh]
	 Correlation Energy        =      -0.8680444907018110 [Eh]
	 Total Energy              =    -236.3979373375420323 [Eh]
	-----------------------------------------------------------
	 ================> DF-SCS-MP2 Energies <================== 
	-----------------------------------------------------------
	 SCS Same-Spin Scale       =       0.3333333333333333 [-]
	 SCS Opposite-Spin Scale   =       1.2000000000000000 [-]
	 SCS Same-Spin Energy      =      -0.0687402137627282 [Eh]
	 SCS Opposite-Spin Energy  =      -0.7941886192963516 [Eh]
	 SCS Correlation Energy    =      -0.8629288330590799 [Eh]
	 SCS Total Energy          =    -236.3928216798992992 [Eh]
	-----------------------------------------------------------


*** tstop() called on ddmfs1 at Mon Jan 22 12:53:11 2024
Module time:
	user time   =      12.85 seconds =       0.21 minutes
	system time =       0.70 seconds =       0.01 minutes
	total time  =          2 seconds =       0.03 minutes
Total time:
	user time   =      49.79 seconds =       0.83 minutes
	system time =       2.84 seconds =       0.05 minutes
	total time  =          5 seconds =       0.08 minutes

    Psi4 stopped on: Monday, 22 January 2024 12:53PM
    Psi4 wall time for execution: 0:00:04.21

*** Psi4 exiting successfully. Buy a developer a beer!
