
    -----------------------------------------------------------------------
          Psi4: An Open-Source Ab Initio Electronic Structure Package
                               Psi4 1.8.2 release

                         Git: Rev {} zzzzzzz 


    D. G. A. Smith, L. A. Burns, A. C. Simmonett, R. M. Parrish,
    M. C. Schieber, R. Galvelis, P. Kraus, H. Kruse, R. Di Remigio,
    A. Alenaizan, A. M. James, S. Lehtola, J. P. Misiewicz, M. Scheurer,
    R. A. Shaw, J. B. Schriber, Y. Xie, Z. L. Glick, D. A. Sirianni,
    J. S. O'Brien, J. M. Waldrop, A. Kumar, E. G. Hohenstein,
    B. P. Pritchard, B. R. Brooks, H. F. Schaefer III, A. Yu. Sokolov,
    K. Patkowski, A. E. DePrince III, U. Bozkaya, R. A. King,
    F. A. Evangelista, J. M. Turney, T. D. Crawford, C. D. Sherrill,
    J. Chem. Phys. 152(18) 184108 (2020). https://doi.org/10.1063/5.0006002

                            Additional Code Authors
    E. T. Seidl, C. L. Janssen, E. F. Valeev, M. L. Leininger,
    J. F. Gonthier, R. M. Richard, H. R. McAlexander, M. Saitow, X. Wang,
    P. Verma, M. H. Lechner, A. Jiang, S. Behnle, A. G. Heide,
    M. F. Herbst, and D. L. Poole

             Previous Authors, Complete List of Code Contributors,
                       and Citations for Specific Modules
    https://github.com/psi4/psi4/blob/master/codemeta.json
    https://github.com/psi4/psi4/graphs/contributors
    http://psicode.org/psi4manual/master/introduction.html#citing-psifour

    -----------------------------------------------------------------------


    Psi4 started on: Monday, 22 January 2024 01:23PM

    Process ID: 57620
    Host:       ddmfs1
    PSIDATADIR: /ddmfs1b/softs/psi4conda/share/psi4
    Memory:     500.0 MiB
    Threads:    20
    
  ==> Input File <==

--------------------------------------------------------------------------
MEMORY 60 GB

molecule dimer {
0 1
Gh(Li)     0.000000     0.000000     0.000000
Gh(O)     -0.727283     0.314785     1.727344
Gh(H)     -1.654172     0.224618     1.375025
Gh(H)     -0.529874    -0.561861     2.080328
Gh(O)      2.025004     0.493240     0.043276
Gh(H)      2.399730     1.368867     0.126067
Gh(H)      2.753158    -0.052861    -0.386141
Gh(O)     -0.799008     1.568141    -0.789295
Gh(H)     -1.113890     2.383029    -0.292064
Gh(H)     -1.171737     1.638519    -1.664769
O         -0.598285    -1.751833    -0.349378
H          0.061024    -2.131900    -0.949506
H         -1.462483    -2.009864    -0.695588

units ang
no_reorient
no_com
symmetry c1
}

set {
basis        aug-cc-pVTZ
scf_type     df
}

energy("mp2")
--------------------------------------------------------------------------

  Memory set to  55.879 GiB by Python driver.

Scratch directory: /ddmfs1a/scratch/
   => Libint2 <=

    Primary   basis highest AM E, G, H:  5, 4, 3
    Auxiliary basis highest AM E, G, H:  6, 5, 4
    Onebody   basis highest AM E, G, H:  6, 5, 4
    Solid Harmonics ordering:            gaussian

*** tstart() called on ddmfs1
*** at Mon Jan 22 13:23:05 2024

   => Loading Basis Set <=

    Name: AUG-CC-PVTZ
    Role: ORBITAL
    Keyword: BASIS
    atoms 1                     entry LI         line    85 file /ddmfs1b/softs/psi4conda/share/psi4/basis/aug-cc-pvtz.gbs 
    atoms 2, 5, 8, 11           entry O          line   331 file /ddmfs1b/softs/psi4conda/share/psi4/basis/aug-cc-pvtz.gbs 
    atoms 3-4, 6-7, 9-10, 12-13 entry H          line    40 file /ddmfs1b/softs/psi4conda/share/psi4/basis/aug-cc-pvtz.gbs 


         ---------------------------------------------------------
                                   SCF
               by Justin Turney, Rob Parrish, Andy Simmonett
                          and Daniel G. A. Smith
                              RHF Reference
                       20 Threads,  57220 MiB Core
         ---------------------------------------------------------

  ==> Geometry <==

    Molecular point group: c1
    Full point group: C1

    Geometry (in Angstrom), charge = 0, multiplicity = 1:

       Center              X                  Y                   Z               Mass       
    ------------   -----------------  -----------------  -----------------  -----------------
      Gh(LI)          0.000000000000     0.000000000000     0.000000000000     7.016003436600
      Gh(O)          -0.727283000000     0.314785000000     1.727344000000    15.994914619570
      Gh(H)          -1.654172000000     0.224618000000     1.375025000000     1.007825032230
      Gh(H)          -0.529874000000    -0.561861000000     2.080328000000     1.007825032230
      Gh(O)           2.025004000000     0.493240000000     0.043276000000    15.994914619570
      Gh(H)           2.399730000000     1.368867000000     0.126067000000     1.007825032230
      Gh(H)           2.753158000000    -0.052861000000    -0.386141000000     1.007825032230
      Gh(O)          -0.799008000000     1.568141000000    -0.789295000000    15.994914619570
      Gh(H)          -1.113890000000     2.383029000000    -0.292064000000     1.007825032230
      Gh(H)          -1.171737000000     1.638519000000    -1.664769000000     1.007825032230
         O           -0.598285000000    -1.751833000000    -0.349378000000    15.994914619570
         H            0.061024000000    -2.131900000000    -0.949506000000     1.007825032230
         H           -1.462483000000    -2.009864000000    -0.695588000000     1.007825032230

  Running in c1 symmetry.

  Rotational constants: A =      0.09819  B =      0.08750  C =      0.07479 [cm^-1]
  Rotational constants: A =   2943.65432  B =   2623.09686  C =   2242.02461 [MHz]
  Nuclear repulsion =    9.091761119437740

  Charge       = 0
  Multiplicity = 1
  Electrons    = 10
  Nalpha       = 5
  Nbeta        = 5

  ==> Algorithm <==

  SCF Algorithm Type is DF.
  DIIS enabled.
  MOM disabled.
  Fractional occupation disabled.
  Guess Type is SAD.
  Energy threshold   = 1.00e-08
  Density threshold  = 1.00e-08
  Integral threshold = 1.00e-12

  ==> Primary Basis <==

  Basis Set: AUG-CC-PVTZ
    Blend: AUG-CC-PVTZ
    Number of shells: 142
    Number of basis functions: 414
    Number of Cartesian functions: 475
    Spherical Harmonics?: true
    Max angular momentum: 3

   => Loading Basis Set <=

    Name: (AUG-CC-PVTZ AUX)
    Role: JKFIT
    Keyword: DF_BASIS_SCF
    atoms 1                     entry LI         line    54 file /ddmfs1b/softs/psi4conda/share/psi4/basis/def2-universal-jkfit.gbs 
    atoms 2, 5, 8, 11           entry O          line   286 file /ddmfs1b/softs/psi4conda/share/psi4/basis/aug-cc-pvtz-jkfit.gbs 
    atoms 3-4, 6-7, 9-10, 12-13 entry H          line    70 file /ddmfs1b/softs/psi4conda/share/psi4/basis/aug-cc-pvtz-jkfit.gbs 

  ==> Integral Setup <==

  DFHelper Memory: AOs need 1.084 GiB; user supplied 41.910 GiB. 
  Using in-core AOs.

  ==> MemDFJK: Density-Fitted J/K Matrices <==

    J tasked:                   Yes
    K tasked:                   Yes
    wK tasked:                   No
    OpenMP threads:              20
    Memory [MiB]:             42915
    Algorithm:                 Core
    Schwarz Cutoff:           1E-12
    Mask sparsity (%):       4.4832
    Fitting Condition:        1E-10

   => Auxiliary Basis Set <=

  Basis Set: (AUG-CC-PVTZ AUX)
    Blend: AUG-CC-PVTZ-JKFIT + DEF2-UNIVERSAL-JKFIT
    Number of shells: 249
    Number of basis functions: 835
    Number of Cartesian functions: 1024
    Spherical Harmonics?: true
    Max angular momentum: 4

  Minimum eigenvalue in the overlap matrix is 1.2724245849E-05.
  Reciprocal condition number of the overlap matrix is 8.7472071778E-07.
    Using symmetric orthogonalization.

  ==> Pre-Iterations <==

  SCF Guess: Superposition of Atomic Densities via on-the-fly atomic UHF (no occupation information).

   -------------------------
    Irrep   Nso     Nmo    
   -------------------------
     A        414     414 
   -------------------------
    Total     414     414
   -------------------------

  ==> Iterations <==

                           Total Energy        Delta E     RMS |[F,P]|

   @DF-RHF iter SAD:   -75.46419652118490   -7.54642e+01   0.00000e+00 
   @DF-RHF iter   1:   -75.97537285572528   -5.11176e-01   1.12981e-03 DIIS/ADIIS
   @DF-RHF iter   2:   -76.02754218342378   -5.21693e-02   7.75618e-04 DIIS/ADIIS
   @DF-RHF iter   3:   -76.05942884419353   -3.18867e-02   5.28409e-05 DIIS
   @DF-RHF iter   4:   -76.05983186934603   -4.03025e-04   1.28732e-05 DIIS
   @DF-RHF iter   5:   -76.05985801502945   -2.61457e-05   2.93913e-06 DIIS
   @DF-RHF iter   6:   -76.05986018540273   -2.17037e-06   6.50762e-07 DIIS
   @DF-RHF iter   7:   -76.05986030263772   -1.17235e-07   1.19633e-07 DIIS
   @DF-RHF iter   8:   -76.05986030611970   -3.48199e-09   2.01836e-08 DIIS
   @DF-RHF iter   9:   -76.05986030619879   -7.90834e-11   5.10093e-09 DIIS
  Energy and wave function converged.


  ==> Post-Iterations <==

    Orbital Energies [Eh]
    ---------------------

    Doubly Occupied:                                                      

       1A    -20.567942     2A     -1.346854     3A     -0.715545  
       4A     -0.579228     5A     -0.508902  

    Virtual:                                                              

       6A      0.008448     7A      0.017914     8A      0.018222  
       9A      0.019704    10A      0.043293    11A      0.055257  
      12A      0.056822    13A      0.059045    14A      0.061965  
      15A      0.064841    16A      0.067071    17A      0.071096  
      18A      0.079914    19A      0.083918    20A      0.095304  
      21A      0.102252    22A      0.133666    23A      0.148323  
      24A      0.149415    25A      0.152557    26A      0.157880  
      27A      0.162222    28A      0.163488    29A      0.167561  
      30A      0.168837    31A      0.179982    32A      0.185457  
      33A      0.187917    34A      0.199115    35A      0.213575  
      36A      0.217258    37A      0.223694    38A      0.226605  
      39A      0.238656    40A      0.254717    41A      0.259687  
      42A      0.274948    43A      0.294959    44A      0.297411  
      45A      0.313909    46A      0.322642    47A      0.330591  
      48A      0.336091    49A      0.341946    50A      0.349153  
      51A      0.357884    52A      0.366046    53A      0.370659  
      54A      0.372675    55A      0.375212    56A      0.388438  
      57A      0.389849    58A      0.395734    59A      0.399543  
      60A      0.404946    61A      0.413123    62A      0.414787  
      63A      0.417746    64A      0.425783    65A      0.429403  
      66A      0.438758    67A      0.447065    68A      0.449717  
      69A      0.452387    70A      0.457846    71A      0.465352  
      72A      0.475020    73A      0.476887    74A      0.490147  
      75A      0.494290    76A      0.495521    77A      0.507180  
      78A      0.519632    79A      0.523410    80A      0.535502  
      81A      0.539385    82A      0.546372    83A      0.553826  
      84A      0.565044    85A      0.576478    86A      0.586061  
      87A      0.600859    88A      0.608021    89A      0.641972  
      90A      0.684361    91A      0.690702    92A      0.711889  
      93A      0.737640    94A      0.749357    95A      0.764308  
      96A      0.770901    97A      0.794560    98A      0.806298  
      99A      0.816724   100A      0.822414   101A      0.841202  
     102A      0.845350   103A      0.848952   104A      0.857114  
     105A      0.864451   106A      0.866007   107A      0.879943  
     108A      0.884099   109A      0.892329   110A      0.895981  
     111A      0.898141   112A      0.913968   113A      0.919716  
     114A      0.927650   115A      0.946448   116A      0.957632  
     117A      0.970066   118A      0.976816   119A      0.988489  
     120A      0.992767   121A      0.998761   122A      1.012086  
     123A      1.019241   124A      1.027081   125A      1.028030  
     126A      1.039000   127A      1.045173   128A      1.060059  
     129A      1.062361   130A      1.072148   131A      1.078589  
     132A      1.082226   133A      1.091396   134A      1.104656  
     135A      1.111197   136A      1.121651   137A      1.130724  
     138A      1.142004   139A      1.143242   140A      1.148089  
     141A      1.167325   142A      1.170573   143A      1.175290  
     144A      1.187464   145A      1.189948   146A      1.201569  
     147A      1.210926   148A      1.233913   149A      1.242162  
     150A      1.242910   151A      1.266055   152A      1.272669  
     153A      1.289381   154A      1.293738   155A      1.300156  
     156A      1.328080   157A      1.335127   158A      1.351019  
     159A      1.360792   160A      1.366335   161A      1.380246  
     162A      1.397186   163A      1.402562   164A      1.420974  
     165A      1.428478   166A      1.446617   167A      1.460719  
     168A      1.465466   169A      1.469764   170A      1.498674  
     171A      1.512906   172A      1.539330   173A      1.556239  
     174A      1.568944   175A      1.589059   176A      1.605153  
     177A      1.626888   178A      1.632428   179A      1.642711  
     180A      1.658399   181A      1.692959   182A      1.701670  
     183A      1.748218   184A      1.750164   185A      1.769687  
     186A      1.787447   187A      1.806630   188A      1.832748  
     189A      1.854670   190A      1.861087   191A      1.871646  
     192A      1.902481   193A      1.916359   194A      1.926258  
     195A      1.939533   196A      1.953824   197A      1.966615  
     198A      1.974740   199A      1.999591   200A      2.012647  
     201A      2.022259   202A      2.037071   203A      2.068911  
     204A      2.082767   205A      2.086505   206A      2.112989  
     207A      2.134720   208A      2.154737   209A      2.162717  
     210A      2.217715   211A      2.319711   212A      2.394798  
     213A      2.407330   214A      2.465528   215A      2.486953  
     216A      2.490001   217A      2.518112   218A      2.530998  
     219A      2.573400   220A      2.587207   221A      2.606817  
     222A      2.612928   223A      2.629968   224A      2.647168  
     225A      2.665980   226A      2.679466   227A      2.692656  
     228A      2.707410   229A      2.738214   230A      2.748751  
     231A      2.778713   232A      2.790722   233A      2.797845  
     234A      2.807052   235A      2.832657   236A      2.858671  
     237A      2.866224   238A      2.874476   239A      2.902192  
     240A      2.937738   241A      2.959077   242A      2.977799  
     243A      2.984829   244A      3.000567   245A      3.036406  
     246A      3.057063   247A      3.077681   248A      3.095157  
     249A      3.145296   250A      3.182402   251A      3.206486  
     252A      3.219498   253A      3.259960   254A      3.277247  
     255A      3.299552   256A      3.312948   257A      3.323556  
     258A      3.348901   259A      3.355640   260A      3.365050  
     261A      3.369648   262A      3.386680   263A      3.420075  
     264A      3.434198   265A      3.465692   266A      3.517519  
     267A      3.550387   268A      3.636578   269A      3.754751  
     270A      3.771471   271A      3.791012   272A      3.818175  
     273A      3.838903   274A      3.920121   275A      3.947118  
     276A      3.980936   277A      4.170515   278A      4.303256  
     279A      4.315661   280A      4.387223   281A      4.408262  
     282A      4.435164   283A      4.500146   284A      4.524244  
     285A      4.544502   286A      4.558794   287A      4.578189  
     288A      4.608441   289A      4.620008   290A      4.626734  
     291A      4.645437   292A      4.670445   293A      4.679086  
     294A      4.707308   295A      4.714298   296A      4.756400  
     297A      4.796654   298A      4.803520   299A      4.820982  
     300A      4.860987   301A      4.867589   302A      4.891776  
     303A      4.906992   304A      4.918018   305A      4.951745  
     306A      5.031495   307A      5.051276   308A      5.063720  
     309A      5.080702   310A      5.111169   311A      5.116755  
     312A      5.157572   313A      5.189589   314A      5.200337  
     315A      5.241327   316A      5.273648   317A      5.276150  
     318A      5.316449   319A      5.388708   320A      5.410682  
     321A      5.438849   322A      5.507087   323A      5.512495  
     324A      5.537883   325A      5.555844   326A      5.580966  
     327A      5.614440   328A      5.646949   329A      5.714150  
     330A      5.744134   331A      5.851475   332A      5.895191  
     333A      5.965227   334A      5.998845   335A      6.076016  
     336A      6.261364   337A      6.308547   338A      6.368876  
     339A      6.395762   340A      6.421918   341A      6.430415  
     342A      6.461526   343A      6.665404   344A      6.674122  
     345A      6.683651   346A      6.764294   347A      6.876176  
     348A      6.994235   349A      7.060814   350A      7.071271  
     351A      7.120061   352A      7.244215   353A      7.352796  
     354A      7.388646   355A      7.410927   356A      7.458652  
     357A      7.521404   358A      7.714384   359A      7.757085  
     360A      7.825943   361A      7.835259   362A      7.883857  
     363A      7.928223   364A      7.960706   365A      7.995349  
     366A      8.009795   367A      8.085446   368A      8.107283  
     369A      8.198215   370A      8.207479   371A      8.240701  
     372A      8.248570   373A      8.297121   374A      8.323427  
     375A      8.384898   376A      8.700975   377A      8.719980  
     378A      8.745892   379A      8.818127   380A      8.828784  
     381A      8.846461   382A      8.879278   383A      9.874757  
     384A      9.917868   385A      9.985697   386A     10.012479  
     387A     10.029433   388A     10.052953   389A     10.068510  
     390A     10.080717   391A     10.132423   392A     10.257826  
     393A     10.288925   394A     10.299559   395A     11.095552  
     396A     11.111434   397A     11.139109   398A     11.787247  
     399A     11.855249   400A     11.962183   401A     12.115797  
     402A     12.136791   403A     12.254630   404A     13.035117  
     405A     13.522729   406A     13.575413   407A     13.665446  
     408A     13.959077   409A     13.976029   410A     14.048690  
     411A     16.110078   412A     64.345543   413A     64.840391  
     414A     65.304086  

    Final Occupation by Irrep:
              A 
    DOCC [     5 ]
    NA   [     5 ]
    NB   [     5 ]

  @DF-RHF Final Energy:   -76.05986030619879

   => Energetics <=

    Nuclear Repulsion Energy =              9.0917611194377397
    One-Electron Energy =                -122.8662965723636376
    Two-Electron Energy =                  37.7146751467271173
    Total Energy =                        -76.0598603061987859

Computation Completed


Properties will be evaluated at   0.000000,   0.000000,   0.000000 [a0]

Properties computed using the SCF density matrix


 Multipole Moments:

 ------------------------------------------------------------------------------------
     Multipole            Electronic (a.u.)      Nuclear  (a.u.)        Total (a.u.)
 ------------------------------------------------------------------------------------

 L = 1.  Multiply by 2.5417464519 to convert [e a0] to [Debye]
 Dipole X            :         11.5564675          -11.6931320           -0.1366646
 Dipole Y            :         33.8866191          -34.3106763           -0.4240572
 Dipole Z            :          7.7621195           -8.3906070           -0.6284875
 Magnitude           :                                                    0.7703884

 ------------------------------------------------------------------------------------

*** tstop() called on ddmfs1 at Mon Jan 22 13:23:09 2024
Module time:
	user time   =      54.00 seconds =       0.90 minutes
	system time =       2.63 seconds =       0.04 minutes
	total time  =          4 seconds =       0.07 minutes
Total time:
	user time   =      54.00 seconds =       0.90 minutes
	system time =       2.63 seconds =       0.04 minutes
	total time  =          4 seconds =       0.07 minutes

*** tstart() called on ddmfs1
*** at Mon Jan 22 13:23:09 2024


  //>>>>>>>>>>>>>>>>>>>>>>>>>>>>>>>>>>>//
  //               DFMP2               //
  //<<<<<<<<<<<<<<<<<<<<<<<<<<<<<<<<<<<//

   => Loading Basis Set <=

    Name: (AUG-CC-PVTZ AUX)
    Role: RIFIT
    Keyword: DF_BASIS_MP2
    atoms 1                     entry LI         line    90 file /ddmfs1b/softs/psi4conda/share/psi4/basis/def2-qzvpp-ri.gbs 
    atoms 2, 5, 8, 11           entry O          line   264 file /ddmfs1b/softs/psi4conda/share/psi4/basis/aug-cc-pvtz-ri.gbs 
    atoms 3-4, 6-7, 9-10, 12-13 entry H          line    30 file /ddmfs1b/softs/psi4conda/share/psi4/basis/aug-cc-pvtz-ri.gbs 

	 --------------------------------------------------------
	                          DF-MP2                         
	      2nd-Order Density-Fitted Moller-Plesset Theory     
	              RMP2 Wavefunction,  20 Threads             
	                                                         
	        Rob Parrish, Justin Turney, Andy Simmonett,      
	           Ed Hohenstein, and C. David Sherrill          
	 --------------------------------------------------------

   => Auxiliary Basis Set <=

  Basis Set: (AUG-CC-PVTZ AUX)
    Blend: AUG-CC-PVTZ-RI + DEF2-QZVPP-RI
    Number of shells: 251
    Number of basis functions: 893
    Number of Cartesian functions: 1114
    Spherical Harmonics?: true
    Max angular momentum: 4

	 --------------------------------------------------------
	                 NBF =   414, NAUX =   893
	 --------------------------------------------------------
	   CLASS    FOCC     OCC    AOCC    AVIR     VIR    FVIR
	   PAIRS       0       5       5     409     409       0
	 --------------------------------------------------------

	-----------------------------------------------------------
	 ==================> DF-MP2 Energies <==================== 
	-----------------------------------------------------------
	 Reference Energy          =     -76.0598603061987859 [Eh]
	 Singles Energy            =      -0.0000000000000000 [Eh]
	 Same-Spin Energy          =      -0.0685803517368766 [Eh]
	 Opposite-Spin Energy      =      -0.2164730272521186 [Eh]
	 Correlation Energy        =      -0.2850533789889951 [Eh]
	 Total Energy              =     -76.3449136851877768 [Eh]
	-----------------------------------------------------------
	 ================> DF-SCS-MP2 Energies <================== 
	-----------------------------------------------------------
	 SCS Same-Spin Scale       =       0.3333333333333333 [-]
	 SCS Opposite-Spin Scale   =       1.2000000000000000 [-]
	 SCS Same-Spin Energy      =      -0.0228601172456255 [Eh]
	 SCS Opposite-Spin Energy  =      -0.2597676327025423 [Eh]
	 SCS Correlation Energy    =      -0.2826277499481678 [Eh]
	 SCS Total Energy          =     -76.3424880561469479 [Eh]
	-----------------------------------------------------------


*** tstop() called on ddmfs1 at Mon Jan 22 13:23:11 2024
Module time:
	user time   =      16.90 seconds =       0.28 minutes
	system time =       0.81 seconds =       0.01 minutes
	total time  =          2 seconds =       0.03 minutes
Total time:
	user time   =      70.92 seconds =       1.18 minutes
	system time =       3.44 seconds =       0.06 minutes
	total time  =          6 seconds =       0.10 minutes

    Psi4 stopped on: Monday, 22 January 2024 01:23PM
    Psi4 wall time for execution: 0:00:06.06

*** Psi4 exiting successfully. Buy a developer a beer!
