
    -----------------------------------------------------------------------
          Psi4: An Open-Source Ab Initio Electronic Structure Package
                               Psi4 1.8.2 release

                         Git: Rev {} zzzzzzz 


    D. G. A. Smith, L. A. Burns, A. C. Simmonett, R. M. Parrish,
    M. C. Schieber, R. Galvelis, P. Kraus, H. Kruse, R. Di Remigio,
    A. Alenaizan, A. M. James, S. Lehtola, J. P. Misiewicz, M. Scheurer,
    R. A. Shaw, J. B. Schriber, Y. Xie, Z. L. Glick, D. A. Sirianni,
    J. S. O'Brien, J. M. Waldrop, A. Kumar, E. G. Hohenstein,
    B. P. Pritchard, B. R. Brooks, H. F. Schaefer III, A. Yu. Sokolov,
    K. Patkowski, A. E. DePrince III, U. Bozkaya, R. A. King,
    F. A. Evangelista, J. M. Turney, T. D. Crawford, C. D. Sherrill,
    J. Chem. Phys. 152(18) 184108 (2020). https://doi.org/10.1063/5.0006002

                            Additional Code Authors
    E. T. Seidl, C. L. Janssen, E. F. Valeev, M. L. Leininger,
    J. F. Gonthier, R. M. Richard, H. R. McAlexander, M. Saitow, X. Wang,
    P. Verma, M. H. Lechner, A. Jiang, S. Behnle, A. G. Heide,
    M. F. Herbst, and D. L. Poole

             Previous Authors, Complete List of Code Contributors,
                       and Citations for Specific Modules
    https://github.com/psi4/psi4/blob/master/codemeta.json
    https://github.com/psi4/psi4/graphs/contributors
    http://psicode.org/psi4manual/master/introduction.html#citing-psifour

    -----------------------------------------------------------------------


    Psi4 started on: Monday, 22 January 2024 01:40PM

    Process ID: 61045
    Host:       ddmfs1
    PSIDATADIR: /ddmfs1b/softs/psi4conda/share/psi4
    Memory:     500.0 MiB
    Threads:    20
    
  ==> Input File <==

--------------------------------------------------------------------------
MEMORY 60 GB

molecule dimer {
1 1
Li         0.000000     0.000000     0.000000
Gh(O)      1.276765     0.545153     1.397121
Gh(H)      1.439625    -0.293000     1.863141
Gh(H)      1.756552     1.287598     1.849105
Gh(O)      0.409922     1.229791    -1.545668
Gh(H)      1.146667     1.129525    -2.203588
Gh(H)     -0.234316     1.541034    -2.202116
Gh(O)     -1.716144     0.282187     0.825118
Gh(H)     -2.643062     0.455413     0.501701
Gh(H)     -1.848891    -0.348811     1.525324
Gh(O)      0.520377    -1.745389    -0.656277
Gh(H)     -0.250082    -2.060907    -1.141392
Gh(H)      0.808173    -2.502960    -0.080864

units ang
no_reorient
no_com
symmetry c1
}

set {
basis        aug-cc-pVTZ
scf_type     df
}

energy("mp2")
--------------------------------------------------------------------------

  Memory set to  55.879 GiB by Python driver.

Scratch directory: /ddmfs1a/scratch/
   => Libint2 <=

    Primary   basis highest AM E, G, H:  5, 4, 3
    Auxiliary basis highest AM E, G, H:  6, 5, 4
    Onebody   basis highest AM E, G, H:  6, 5, 4
    Solid Harmonics ordering:            gaussian

*** tstart() called on ddmfs1
*** at Mon Jan 22 13:40:39 2024

   => Loading Basis Set <=

    Name: AUG-CC-PVTZ
    Role: ORBITAL
    Keyword: BASIS
    atoms 1                     entry LI         line    85 file /ddmfs1b/softs/psi4conda/share/psi4/basis/aug-cc-pvtz.gbs 
    atoms 2, 5, 8, 11           entry O          line   331 file /ddmfs1b/softs/psi4conda/share/psi4/basis/aug-cc-pvtz.gbs 
    atoms 3-4, 6-7, 9-10, 12-13 entry H          line    40 file /ddmfs1b/softs/psi4conda/share/psi4/basis/aug-cc-pvtz.gbs 


         ---------------------------------------------------------
                                   SCF
               by Justin Turney, Rob Parrish, Andy Simmonett
                          and Daniel G. A. Smith
                              RHF Reference
                       20 Threads,  57220 MiB Core
         ---------------------------------------------------------

  ==> Geometry <==

    Molecular point group: c1
    Full point group: C1

    Geometry (in Angstrom), charge = 1, multiplicity = 1:

       Center              X                  Y                   Z               Mass       
    ------------   -----------------  -----------------  -----------------  -----------------
         LI           0.000000000000     0.000000000000     0.000000000000     7.016003436600
      Gh(O)           1.276765000000     0.545153000000     1.397121000000    15.994914619570
      Gh(H)           1.439625000000    -0.293000000000     1.863141000000     1.007825032230
      Gh(H)           1.756552000000     1.287598000000     1.849105000000     1.007825032230
      Gh(O)           0.409922000000     1.229791000000    -1.545668000000    15.994914619570
      Gh(H)           1.146667000000     1.129525000000    -2.203588000000     1.007825032230
      Gh(H)          -0.234316000000     1.541034000000    -2.202116000000     1.007825032230
      Gh(O)          -1.716144000000     0.282187000000     0.825118000000    15.994914619570
      Gh(H)          -2.643062000000     0.455413000000     0.501701000000     1.007825032230
      Gh(H)          -1.848891000000    -0.348811000000     1.525324000000     1.007825032230
      Gh(O)           0.520377000000    -1.745389000000    -0.656277000000    15.994914619570
      Gh(H)          -0.250082000000    -2.060907000000    -1.141392000000     1.007825032230
      Gh(H)           0.808173000000    -2.502960000000    -0.080864000000     1.007825032230

  Running in c1 symmetry.

  Rotational constants: A =      0.09021  B =      0.08183  C =      0.08050 [cm^-1]
  Rotational constants: A =   2704.50428  B =   2453.14277  C =   2413.22518 [MHz]
  Nuclear repulsion =    0.000000000000000

  Charge       = 1
  Multiplicity = 1
  Electrons    = 2
  Nalpha       = 1
  Nbeta        = 1

  ==> Algorithm <==

  SCF Algorithm Type is DF.
  DIIS enabled.
  MOM disabled.
  Fractional occupation disabled.
  Guess Type is SAD.
  Energy threshold   = 1.00e-08
  Density threshold  = 1.00e-08
  Integral threshold = 1.00e-12

  ==> Primary Basis <==

  Basis Set: AUG-CC-PVTZ
    Blend: AUG-CC-PVTZ
    Number of shells: 142
    Number of basis functions: 414
    Number of Cartesian functions: 475
    Spherical Harmonics?: true
    Max angular momentum: 3

   => Loading Basis Set <=

    Name: (AUG-CC-PVTZ AUX)
    Role: JKFIT
    Keyword: DF_BASIS_SCF
    atoms 1                     entry LI         line    54 file /ddmfs1b/softs/psi4conda/share/psi4/basis/def2-universal-jkfit.gbs 
    atoms 2, 5, 8, 11           entry O          line   286 file /ddmfs1b/softs/psi4conda/share/psi4/basis/aug-cc-pvtz-jkfit.gbs 
    atoms 3-4, 6-7, 9-10, 12-13 entry H          line    70 file /ddmfs1b/softs/psi4conda/share/psi4/basis/aug-cc-pvtz-jkfit.gbs 

  ==> Integral Setup <==

  DFHelper Memory: AOs need 1.080 GiB; user supplied 41.910 GiB. 
  Using in-core AOs.

  ==> MemDFJK: Density-Fitted J/K Matrices <==

    J tasked:                   Yes
    K tasked:                   Yes
    wK tasked:                   No
    OpenMP threads:              20
    Memory [MiB]:             42915
    Algorithm:                 Core
    Schwarz Cutoff:           1E-12
    Mask sparsity (%):       4.8274
    Fitting Condition:        1E-10

   => Auxiliary Basis Set <=

  Basis Set: (AUG-CC-PVTZ AUX)
    Blend: AUG-CC-PVTZ-JKFIT + DEF2-UNIVERSAL-JKFIT
    Number of shells: 249
    Number of basis functions: 835
    Number of Cartesian functions: 1024
    Spherical Harmonics?: true
    Max angular momentum: 4

  Minimum eigenvalue in the overlap matrix is 1.5390322063E-05.
  Reciprocal condition number of the overlap matrix is 1.0972043763E-06.
    Using symmetric orthogonalization.

  ==> Pre-Iterations <==

  SCF Guess: Superposition of Atomic Densities via on-the-fly atomic UHF (no occupation information).

   -------------------------
    Irrep   Nso     Nmo    
   -------------------------
     A        414     414 
   -------------------------
    Total     414     414
   -------------------------

  ==> Iterations <==

                           Total Energy        Delta E     RMS |[F,P]|

   @DF-RHF iter SAD:    -7.31415062092898   -7.31415e+00   0.00000e+00 
   @DF-RHF iter   1:    -7.23638295457074    7.77677e-02   5.48564e-06 DIIS
   @DF-RHF iter   2:    -7.23638487648447   -1.92191e-06   6.68451e-07 DIIS
   @DF-RHF iter   3:    -7.23638490795016   -3.14657e-08   3.44003e-08 DIIS
   @DF-RHF iter   4:    -7.23638490801117   -6.10063e-11   2.12344e-10 DIIS
  Energy and wave function converged.


  ==> Post-Iterations <==

    Orbital Energies [Eh]
    ---------------------

    Doubly Occupied:                                                      

       1A     -2.792353  

    Virtual:                                                              

       2A     -0.196302     3A     -0.128602     4A     -0.128601  
       5A     -0.128601     6A     -0.073773     7A     -0.056397  
       8A     -0.056392     9A     -0.056392    10A     -0.051567  
      11A     -0.050783    12A     -0.050346    13A     -0.050076  
      14A     -0.037568    15A     -0.027172    16A     -0.011037  
      17A     -0.009713    18A     -0.009298    19A     -0.008626  
      20A     -0.005753    21A      0.009245    22A      0.011516  
      23A      0.013582    24A      0.016189    25A      0.021842  
      26A      0.028451    27A      0.035753    28A      0.038436  
      29A      0.040160    30A      0.050526    31A      0.062013  
      32A      0.079549    33A      0.088180    34A      0.090154  
      35A      0.093526    36A      0.096727    37A      0.107004  
      38A      0.111441    39A      0.119169    40A      0.136534  
      41A      0.145771    42A      0.151547    43A      0.155372  
      44A      0.160174    45A      0.172555    46A      0.177973  
      47A      0.179740    48A      0.183367    49A      0.190100  
      50A      0.199493    51A      0.205576    52A      0.212793  
      53A      0.215273    54A      0.218580    55A      0.231508  
      56A      0.234911    57A      0.245709    58A      0.246321  
      59A      0.255999    60A      0.262620    61A      0.270644  
      62A      0.272367    63A      0.274489    64A      0.284358  
      65A      0.286694    66A      0.290512    67A      0.299454  
      68A      0.308684    69A      0.312128    70A      0.323098  
      71A      0.329205    72A      0.333753    73A      0.340074  
      74A      0.349716    75A      0.356462    76A      0.359934  
      77A      0.366698    78A      0.370168    79A      0.377038  
      80A      0.379801    81A      0.384724    82A      0.389568  
      83A      0.403861    84A      0.417693    85A      0.427358  
      86A      0.431531    87A      0.464456    88A      0.471745  
      89A      0.498752    90A      0.514633    91A      0.548269  
      92A      0.554568    93A      0.559500    94A      0.576563  
      95A      0.585050    96A      0.590478    97A      0.599880  
      98A      0.609289    99A      0.628089   100A      0.633935  
     101A      0.642709   102A      0.645891   103A      0.659625  
     104A      0.673728   105A      0.681460   106A      0.688054  
     107A      0.691998   108A      0.699882   109A      0.707477  
     110A      0.711374   111A      0.730106   112A      0.737854  
     113A      0.744647   114A      0.757605   115A      0.764207  
     116A      0.777727   117A      0.794999   118A      0.796386  
     119A      0.810916   120A      0.816316   121A      0.820820  
     122A      0.826657   123A      0.840009   124A      0.857295  
     125A      0.859556   126A      0.861596   127A      0.872251  
     128A      0.875579   129A      0.889321   130A      0.896611  
     131A      0.906995   132A      0.917715   133A      0.925694  
     134A      0.931854   135A      0.939373   136A      0.940834  
     137A      0.953226   138A      0.959907   139A      0.963837  
     140A      0.974019   141A      0.978542   142A      0.988176  
     143A      1.003539   144A      1.018736   145A      1.020647  
     146A      1.040463   147A      1.049924   148A      1.057731  
     149A      1.076907   150A      1.083313   151A      1.096583  
     152A      1.098797   153A      1.103081   154A      1.110159  
     155A      1.119553   156A      1.121918   157A      1.139844  
     158A      1.148355   159A      1.155415   160A      1.171663  
     161A      1.178041   162A      1.192681   163A      1.203620  
     164A      1.229059   165A      1.236094   166A      1.241629  
     167A      1.256304   168A      1.275087   169A      1.278604  
     170A      1.300329   171A      1.310258   172A      1.328752  
     173A      1.333486   174A      1.354778   175A      1.384160  
     176A      1.393553   177A      1.441691   178A      1.457375  
     179A      1.472129   180A      1.495068   181A      1.533520  
     182A      1.546517   183A      1.580259   184A      1.594901  
     185A      1.618040   186A      1.640363   187A      1.654771  
     188A      1.655308   189A      1.681436   190A      1.688545  
     191A      1.696074   192A      1.704807   193A      1.718862  
     194A      1.719840   195A      1.741581   196A      1.772146  
     197A      1.780573   198A      1.806981   199A      1.818868  
     200A      1.828593   201A      1.842258   202A      1.848869  
     203A      1.855301   204A      1.863641   205A      1.884432  
     206A      1.913035   207A      1.948057   208A      1.993063  
     209A      2.008108   210A      2.177577   211A      2.234374  
     212A      2.241934   213A      2.257264   214A      2.280506  
     215A      2.299425   216A      2.320277   217A      2.331577  
     218A      2.358396   219A      2.366444   220A      2.372875  
     221A      2.377861   222A      2.393628   223A      2.418448  
     224A      2.433019   225A      2.442162   226A      2.460707  
     227A      2.470039   228A      2.488368   229A      2.509212  
     230A      2.537899   231A      2.569114   232A      2.580463  
     233A      2.600340   234A      2.626641   235A      2.642926  
     236A      2.682551   237A      2.707372   238A      2.734925  
     239A      2.743721   240A      2.771148   241A      2.783470  
     242A      2.812599   243A      2.856703   244A      2.869730  
     245A      2.899954   246A      2.955749   247A      2.994180  
     248A      3.000474   249A      3.016491   250A      3.030614  
     251A      3.045116   252A      3.079185   253A      3.083999  
     254A      3.092138   255A      3.103753   256A      3.116298  
     257A      3.135683   258A      3.157685   259A      3.167412  
     260A      3.190346   261A      3.209315   262A      3.224188  
     263A      3.231030   264A      3.259542   265A      3.316521  
     266A      3.443191   267A      3.455343   268A      3.497910  
     269A      3.524944   270A      3.545156   271A      3.556453  
     272A      3.592691   273A      3.647956   274A      4.116697  
     275A      4.185216   276A      4.210186   277A      4.227128  
     278A      4.238820   279A      4.283510   280A      4.339811  
     281A      4.343719   282A      4.367178   283A      4.386286  
     284A      4.408622   285A      4.413132   286A      4.419416  
     287A      4.449798   288A      4.500132   289A      4.533147  
     290A      4.552867   291A      4.567153   292A      4.594544  
     293A      4.601747   294A      4.628920   295A      4.650647  
     296A      4.677376   297A      4.713834   298A      4.717735  
     299A      4.810970   300A      4.817061   301A      4.827492  
     302A      4.867438   303A      4.891703   304A      4.899055  
     305A      4.908014   306A      4.924378   307A      4.941027  
     308A      4.962453   309A      4.978781   310A      5.005227  
     311A      5.033838   312A      5.076693   313A      5.094653  
     314A      5.167122   315A      5.278171   316A      5.294698  
     317A      5.347282   318A      5.354174   319A      5.378730  
     320A      5.412808   321A      5.426383   322A      5.439309  
     323A      5.469056   324A      5.499667   325A      5.514485  
     326A      5.570316   327A      5.674675   328A      5.691108  
     329A      5.731332   330A      5.814837   331A      6.022428  
     332A      6.037438   333A      6.054307   334A      6.116770  
     335A      6.129081   336A      6.180119   337A      6.229370  
     338A      6.250848   339A      6.413361   340A      6.448389  
     341A      6.501846   342A      6.623241   343A      6.792227  
     344A      6.814720   345A      6.833878   346A      6.877972  
     347A      7.480081   348A      7.490006   349A      7.500124  
     350A      7.530171   351A      7.580553   352A      7.608975  
     353A      7.680311   354A      7.749862   355A      7.801523  
     356A      7.816421   357A      7.827030   358A      7.877535  
     359A      7.883699   360A      7.919459   361A      7.954160  
     362A      7.986697   363A      8.019619   364A      8.034730  
     365A      8.050015   366A      8.108608   367A      8.342585  
     368A      8.440485   369A      8.479735   370A      8.494932  
     371A      8.514136   372A      8.548881   373A      8.591544  
     374A      8.641759   375A      9.585224   376A      9.608955  
     377A      9.634259   378A      9.672949   379A      9.699331  
     380A      9.729429   381A      9.747767   382A      9.764626  
     383A      9.774485   384A      9.779948   385A      9.800725  
     386A      9.806977   387A      9.954389   388A      9.971758  
     389A      9.996787   390A     10.036090   391A     10.811573  
     392A     10.861480   393A     10.899334   394A     10.961064  
     395A     11.494664   396A     11.541145   397A     11.582746  
     398A     11.612422   399A     11.800232   400A     11.844118  
     401A     11.890675   402A     11.982050   403A     13.252235  
     404A     13.283821   405A     13.310188   406A     13.397632  
     407A     13.649711   408A     13.681454   409A     13.716954  
     410A     13.768946   411A     64.243900   412A     64.291522  
     413A     64.367895   414A     65.050260  

    Final Occupation by Irrep:
              A 
    DOCC [     1 ]
    NA   [     1 ]
    NB   [     1 ]

  @DF-RHF Final Energy:    -7.23638490801117

   => Energetics <=

    Nuclear Repulsion Energy =              0.0000000000000000
    One-Electron Energy =                  -8.8880639740026677
    Two-Electron Energy =                   1.6516790659915013
    Total Energy =                         -7.2363849080111660

Computation Completed


Properties will be evaluated at   0.000000,   0.000000,   0.000000 [a0]

Properties computed using the SCF density matrix


 Multipole Moments:

 ------------------------------------------------------------------------------------
     Multipole            Electronic (a.u.)      Nuclear  (a.u.)        Total (a.u.)
 ------------------------------------------------------------------------------------

 L = 1.  Multiply by 2.5417464519 to convert [e a0] to [Debye]
 Dipole X            :          0.0000005            0.0000000            0.0000005
 Dipole Y            :          0.0000075            0.0000000            0.0000075
 Dipole Z            :         -0.0000067            0.0000000           -0.0000067
 Magnitude           :                                                    0.0000101

 ------------------------------------------------------------------------------------

*** tstop() called on ddmfs1 at Mon Jan 22 13:40:41 2024
Module time:
	user time   =      39.87 seconds =       0.66 minutes
	system time =       2.33 seconds =       0.04 minutes
	total time  =          2 seconds =       0.03 minutes
Total time:
	user time   =      39.87 seconds =       0.66 minutes
	system time =       2.33 seconds =       0.04 minutes
	total time  =          2 seconds =       0.03 minutes

*** tstart() called on ddmfs1
*** at Mon Jan 22 13:40:41 2024


  //>>>>>>>>>>>>>>>>>>>>>>>>>>>>>>>>>>>//
  //               DFMP2               //
  //<<<<<<<<<<<<<<<<<<<<<<<<<<<<<<<<<<<//

   => Loading Basis Set <=

    Name: (AUG-CC-PVTZ AUX)
    Role: RIFIT
    Keyword: DF_BASIS_MP2
    atoms 1                     entry LI         line    90 file /ddmfs1b/softs/psi4conda/share/psi4/basis/def2-qzvpp-ri.gbs 
    atoms 2, 5, 8, 11           entry O          line   264 file /ddmfs1b/softs/psi4conda/share/psi4/basis/aug-cc-pvtz-ri.gbs 
    atoms 3-4, 6-7, 9-10, 12-13 entry H          line    30 file /ddmfs1b/softs/psi4conda/share/psi4/basis/aug-cc-pvtz-ri.gbs 

	 --------------------------------------------------------
	                          DF-MP2                         
	      2nd-Order Density-Fitted Moller-Plesset Theory     
	              RMP2 Wavefunction,  20 Threads             
	                                                         
	        Rob Parrish, Justin Turney, Andy Simmonett,      
	           Ed Hohenstein, and C. David Sherrill          
	 --------------------------------------------------------

   => Auxiliary Basis Set <=

  Basis Set: (AUG-CC-PVTZ AUX)
    Blend: AUG-CC-PVTZ-RI + DEF2-QZVPP-RI
    Number of shells: 251
    Number of basis functions: 893
    Number of Cartesian functions: 1114
    Spherical Harmonics?: true
    Max angular momentum: 4

	 --------------------------------------------------------
	                 NBF =   414, NAUX =   893
	 --------------------------------------------------------
	   CLASS    FOCC     OCC    AOCC    AVIR     VIR    FVIR
	   PAIRS       0       1       1     413     413       0
	 --------------------------------------------------------

	-----------------------------------------------------------
	 ==================> DF-MP2 Energies <==================== 
	-----------------------------------------------------------
	 Reference Energy          =      -7.2363849080111660 [Eh]
	 Singles Energy            =      -0.0000000000000000 [Eh]
	 Same-Spin Energy          =       0.0000000000000000 [Eh]
	 Opposite-Spin Energy      =      -0.0169724921242241 [Eh]
	 Correlation Energy        =      -0.0169724921242241 [Eh]
	 Total Energy              =      -7.2533574001353900 [Eh]
	-----------------------------------------------------------
	 ================> DF-SCS-MP2 Energies <================== 
	-----------------------------------------------------------
	 SCS Same-Spin Scale       =       0.3333333333333333 [-]
	 SCS Opposite-Spin Scale   =       1.2000000000000000 [-]
	 SCS Same-Spin Energy      =       0.0000000000000000 [Eh]
	 SCS Opposite-Spin Energy  =      -0.0203669905490689 [Eh]
	 SCS Correlation Energy    =      -0.0203669905490689 [Eh]
	 SCS Total Energy          =      -7.2567518985602346 [Eh]
	-----------------------------------------------------------


*** tstop() called on ddmfs1 at Mon Jan 22 13:40:44 2024
Module time:
	user time   =      15.44 seconds =       0.26 minutes
	system time =       0.84 seconds =       0.01 minutes
	total time  =          3 seconds =       0.05 minutes
Total time:
	user time   =      55.33 seconds =       0.92 minutes
	system time =       3.17 seconds =       0.05 minutes
	total time  =          5 seconds =       0.08 minutes

    Psi4 stopped on: Monday, 22 January 2024 01:40PM
    Psi4 wall time for execution: 0:00:05.31

*** Psi4 exiting successfully. Buy a developer a beer!
