
    -----------------------------------------------------------------------
          Psi4: An Open-Source Ab Initio Electronic Structure Package
                               Psi4 1.8.2 release

                         Git: Rev {} zzzzzzz 


    D. G. A. Smith, L. A. Burns, A. C. Simmonett, R. M. Parrish,
    M. C. Schieber, R. Galvelis, P. Kraus, H. Kruse, R. Di Remigio,
    A. Alenaizan, A. M. James, S. Lehtola, J. P. Misiewicz, M. Scheurer,
    R. A. Shaw, J. B. Schriber, Y. Xie, Z. L. Glick, D. A. Sirianni,
    J. S. O'Brien, J. M. Waldrop, A. Kumar, E. G. Hohenstein,
    B. P. Pritchard, B. R. Brooks, H. F. Schaefer III, A. Yu. Sokolov,
    K. Patkowski, A. E. DePrince III, U. Bozkaya, R. A. King,
    F. A. Evangelista, J. M. Turney, T. D. Crawford, C. D. Sherrill,
    J. Chem. Phys. 152(18) 184108 (2020). https://doi.org/10.1063/5.0006002

                            Additional Code Authors
    E. T. Seidl, C. L. Janssen, E. F. Valeev, M. L. Leininger,
    J. F. Gonthier, R. M. Richard, H. R. McAlexander, M. Saitow, X. Wang,
    P. Verma, M. H. Lechner, A. Jiang, S. Behnle, A. G. Heide,
    M. F. Herbst, and D. L. Poole

             Previous Authors, Complete List of Code Contributors,
                       and Citations for Specific Modules
    https://github.com/psi4/psi4/blob/master/codemeta.json
    https://github.com/psi4/psi4/graphs/contributors
    http://psicode.org/psi4manual/master/introduction.html#citing-psifour

    -----------------------------------------------------------------------


    Psi4 started on: Monday, 22 January 2024 01:00PM

    Process ID: 52993
    Host:       ddmfs1
    PSIDATADIR: /ddmfs1b/softs/psi4conda/share/psi4
    Memory:     500.0 MiB
    Threads:    20
    
  ==> Input File <==

--------------------------------------------------------------------------
MEMORY 60 GB

molecule dimer {
0 1
Gh(Li)     0.000000     0.000000     0.000000
Gh(O)      0.284917     1.873038     0.598396
Gh(H)     -0.265799     2.437262     1.203763
Gh(H)      0.312342     2.308963    -0.239182
O          1.375746    -1.157772    -0.584152
H          2.185946    -1.587349    -0.474694
H          0.789827    -1.882919    -1.039732
Gh(O)     -0.959321     0.359899    -1.687719
Gh(H)     -1.273101     1.273988    -1.980653
Gh(H)     -0.367583     0.108484    -2.390242
Gh(O)     -0.285954    -0.870627     1.731899
Gh(H)      0.387606    -1.563219     1.998960
Gh(H)     -1.094979    -1.130535     2.143406

units ang
no_reorient
no_com
symmetry c1
}

set {
basis        aug-cc-pVTZ
scf_type     df
}

energy("mp2")
--------------------------------------------------------------------------

  Memory set to  55.879 GiB by Python driver.

Scratch directory: /ddmfs1a/scratch/
   => Libint2 <=

    Primary   basis highest AM E, G, H:  5, 4, 3
    Auxiliary basis highest AM E, G, H:  6, 5, 4
    Onebody   basis highest AM E, G, H:  6, 5, 4
    Solid Harmonics ordering:            gaussian

*** tstart() called on ddmfs1
*** at Mon Jan 22 13:00:15 2024

   => Loading Basis Set <=

    Name: AUG-CC-PVTZ
    Role: ORBITAL
    Keyword: BASIS
    atoms 1                     entry LI         line    85 file /ddmfs1b/softs/psi4conda/share/psi4/basis/aug-cc-pvtz.gbs 
    atoms 2, 5, 8, 11           entry O          line   331 file /ddmfs1b/softs/psi4conda/share/psi4/basis/aug-cc-pvtz.gbs 
    atoms 3-4, 6-7, 9-10, 12-13 entry H          line    40 file /ddmfs1b/softs/psi4conda/share/psi4/basis/aug-cc-pvtz.gbs 


         ---------------------------------------------------------
                                   SCF
               by Justin Turney, Rob Parrish, Andy Simmonett
                          and Daniel G. A. Smith
                              RHF Reference
                       20 Threads,  57220 MiB Core
         ---------------------------------------------------------

  ==> Geometry <==

    Molecular point group: c1
    Full point group: C1

    Geometry (in Angstrom), charge = 0, multiplicity = 1:

       Center              X                  Y                   Z               Mass       
    ------------   -----------------  -----------------  -----------------  -----------------
      Gh(LI)          0.000000000000     0.000000000000     0.000000000000     7.016003436600
      Gh(O)           0.284917000000     1.873038000000     0.598396000000    15.994914619570
      Gh(H)          -0.265799000000     2.437262000000     1.203763000000     1.007825032230
      Gh(H)           0.312342000000     2.308963000000    -0.239182000000     1.007825032230
         O            1.375746000000    -1.157772000000    -0.584152000000    15.994914619570
         H            2.185946000000    -1.587349000000    -0.474694000000     1.007825032230
         H            0.789827000000    -1.882919000000    -1.039732000000     1.007825032230
      Gh(O)          -0.959321000000     0.359899000000    -1.687719000000    15.994914619570
      Gh(H)          -1.273101000000     1.273988000000    -1.980653000000     1.007825032230
      Gh(H)          -0.367583000000     0.108484000000    -2.390242000000     1.007825032230
      Gh(O)          -0.285954000000    -0.870627000000     1.731899000000    15.994914619570
      Gh(H)           0.387606000000    -1.563219000000     1.998960000000     1.007825032230
      Gh(H)          -1.094979000000    -1.130535000000     2.143406000000     1.007825032230

  Running in c1 symmetry.

  Rotational constants: A =      0.10431  B =      0.09236  C =      0.06752 [cm^-1]
  Rotational constants: A =   3127.20863  B =   2769.00340  C =   2024.27972 [MHz]
  Nuclear repulsion =    9.008495561281487

  Charge       = 0
  Multiplicity = 1
  Electrons    = 10
  Nalpha       = 5
  Nbeta        = 5

  ==> Algorithm <==

  SCF Algorithm Type is DF.
  DIIS enabled.
  MOM disabled.
  Fractional occupation disabled.
  Guess Type is SAD.
  Energy threshold   = 1.00e-08
  Density threshold  = 1.00e-08
  Integral threshold = 1.00e-12

  ==> Primary Basis <==

  Basis Set: AUG-CC-PVTZ
    Blend: AUG-CC-PVTZ
    Number of shells: 142
    Number of basis functions: 414
    Number of Cartesian functions: 475
    Spherical Harmonics?: true
    Max angular momentum: 3

   => Loading Basis Set <=

    Name: (AUG-CC-PVTZ AUX)
    Role: JKFIT
    Keyword: DF_BASIS_SCF
    atoms 1                     entry LI         line    54 file /ddmfs1b/softs/psi4conda/share/psi4/basis/def2-universal-jkfit.gbs 
    atoms 2, 5, 8, 11           entry O          line   286 file /ddmfs1b/softs/psi4conda/share/psi4/basis/aug-cc-pvtz-jkfit.gbs 
    atoms 3-4, 6-7, 9-10, 12-13 entry H          line    70 file /ddmfs1b/softs/psi4conda/share/psi4/basis/aug-cc-pvtz-jkfit.gbs 

  ==> Integral Setup <==

  DFHelper Memory: AOs need 1.082 GiB; user supplied 41.910 GiB. 
  Using in-core AOs.

  ==> MemDFJK: Density-Fitted J/K Matrices <==

    J tasked:                   Yes
    K tasked:                   Yes
    wK tasked:                   No
    OpenMP threads:              20
    Memory [MiB]:             42915
    Algorithm:                 Core
    Schwarz Cutoff:           1E-12
    Mask sparsity (%):       4.6290
    Fitting Condition:        1E-10

   => Auxiliary Basis Set <=

  Basis Set: (AUG-CC-PVTZ AUX)
    Blend: AUG-CC-PVTZ-JKFIT + DEF2-UNIVERSAL-JKFIT
    Number of shells: 249
    Number of basis functions: 835
    Number of Cartesian functions: 1024
    Spherical Harmonics?: true
    Max angular momentum: 4

  Minimum eigenvalue in the overlap matrix is 1.3672565722E-05.
  Reciprocal condition number of the overlap matrix is 9.4897270896E-07.
    Using symmetric orthogonalization.

  ==> Pre-Iterations <==

  SCF Guess: Superposition of Atomic Densities via on-the-fly atomic UHF (no occupation information).

   -------------------------
    Irrep   Nso     Nmo    
   -------------------------
     A        414     414 
   -------------------------
    Total     414     414
   -------------------------

  ==> Iterations <==

                           Total Energy        Delta E     RMS |[F,P]|

   @DF-RHF iter SAD:   -75.44967579860810   -7.54497e+01   0.00000e+00 
   @DF-RHF iter   1:   -75.96530664872141   -5.15631e-01   1.13662e-03 DIIS/ADIIS
   @DF-RHF iter   2:   -76.01801119643279   -5.27045e-02   7.97471e-04 DIIS/ADIIS
   @DF-RHF iter   3:   -76.05199934901579   -3.39882e-02   5.48178e-05 DIIS
   @DF-RHF iter   4:   -76.05244778872941   -4.48440e-04   1.40767e-05 DIIS
   @DF-RHF iter   5:   -76.05248106486398   -3.32761e-05   3.41738e-06 DIIS
   @DF-RHF iter   6:   -76.05248411175430   -3.04689e-06   7.59329e-07 DIIS
   @DF-RHF iter   7:   -76.05248427233937   -1.60585e-07   1.30112e-07 DIIS
   @DF-RHF iter   8:   -76.05248427636646   -4.02709e-09   2.34610e-08 DIIS
   @DF-RHF iter   9:   -76.05248427647672   -1.10262e-10   6.47616e-09 DIIS
  Energy and wave function converged.


  ==> Post-Iterations <==

    Orbital Energies [Eh]
    ---------------------

    Doubly Occupied:                                                      

       1A    -20.571080     2A     -1.345854     3A     -0.703298  
       4A     -0.582306     5A     -0.509214  

    Virtual:                                                              

       6A      0.008787     7A      0.017719     8A      0.018722  
       9A      0.019471    10A      0.044442    11A      0.054470  
      12A      0.057269    13A      0.061462    14A      0.063529  
      15A      0.064062    16A      0.067099    17A      0.071172  
      18A      0.076247    19A      0.085073    20A      0.090234  
      21A      0.098750    22A      0.136508    23A      0.146540  
      24A      0.153263    25A      0.153529    26A      0.155749  
      27A      0.162350    28A      0.165398    29A      0.167593  
      30A      0.171250    31A      0.180999    32A      0.186416  
      33A      0.194779    34A      0.196616    35A      0.208904  
      36A      0.216896    37A      0.219167    38A      0.224306  
      39A      0.243455    40A      0.250168    41A      0.258704  
      42A      0.261029    43A      0.292998    44A      0.307122  
      45A      0.310346    46A      0.316271    47A      0.330268  
      48A      0.332036    49A      0.340293    50A      0.347094  
      51A      0.356134    52A      0.360309    53A      0.367793  
      54A      0.374618    55A      0.377052    56A      0.384340  
      57A      0.392298    58A      0.394374    59A      0.398541  
      60A      0.404877    61A      0.405342    62A      0.409404  
      63A      0.414625    64A      0.427201    65A      0.430880  
      66A      0.441060    67A      0.445930    68A      0.447348  
      69A      0.454147    70A      0.465273    71A      0.471386  
      72A      0.472272    73A      0.479707    74A      0.484208  
      75A      0.495991    76A      0.500212    77A      0.502384  
      78A      0.514593    79A      0.525527    80A      0.534138  
      81A      0.541271    82A      0.555542    83A      0.564963  
      84A      0.569844    85A      0.586999    86A      0.597871  
      87A      0.603073    88A      0.612722    89A      0.633413  
      90A      0.645534    91A      0.662541    92A      0.693125  
      93A      0.737654    94A      0.759885    95A      0.777959  
      96A      0.785715    97A      0.792415    98A      0.805213  
      99A      0.813258   100A      0.816067   101A      0.819778  
     102A      0.833320   103A      0.835430   104A      0.843707  
     105A      0.853200   106A      0.860216   107A      0.872658  
     108A      0.888775   109A      0.894842   110A      0.897493  
     111A      0.909105   112A      0.917876   113A      0.924173  
     114A      0.937007   115A      0.944756   116A      0.955862  
     117A      0.963949   118A      0.978381   119A      0.983497  
     120A      0.990395   121A      0.993463   122A      1.002727  
     123A      1.004334   124A      1.011581   125A      1.026081  
     126A      1.034824   127A      1.049897   128A      1.053452  
     129A      1.059798   130A      1.063065   131A      1.068520  
     132A      1.082721   133A      1.086102   134A      1.097453  
     135A      1.109751   136A      1.116812   137A      1.123126  
     138A      1.138490   139A      1.144811   140A      1.146484  
     141A      1.158831   142A      1.168156   143A      1.181818  
     144A      1.186979   145A      1.190325   146A      1.206798  
     147A      1.216753   148A      1.229987   149A      1.233228  
     150A      1.248826   151A      1.259382   152A      1.265522  
     153A      1.272339   154A      1.284607   155A      1.295093  
     156A      1.325717   157A      1.334234   158A      1.347298  
     159A      1.355310   160A      1.362178   161A      1.382559  
     162A      1.383246   163A      1.400753   164A      1.418762  
     165A      1.431535   166A      1.450265   167A      1.469202  
     168A      1.479773   169A      1.483003   170A      1.511338  
     171A      1.519116   172A      1.532377   173A      1.535932  
     174A      1.567668   175A      1.575704   176A      1.586366  
     177A      1.603994   178A      1.621958   179A      1.625686  
     180A      1.673827   181A      1.678673   182A      1.694881  
     183A      1.736525   184A      1.775745   185A      1.786284  
     186A      1.799289   187A      1.826225   188A      1.836905  
     189A      1.854699   190A      1.863785   191A      1.882642  
     192A      1.890299   193A      1.914894   194A      1.920217  
     195A      1.938265   196A      1.945897   197A      1.960934  
     198A      1.978117   199A      1.990849   200A      2.010624  
     201A      2.027147   202A      2.043338   203A      2.053741  
     204A      2.069647   205A      2.090583   206A      2.098505  
     207A      2.143422   208A      2.150937   209A      2.173365  
     210A      2.277486   211A      2.327746   212A      2.359530  
     213A      2.389949   214A      2.418295   215A      2.434577  
     216A      2.495951   217A      2.504451   218A      2.525445  
     219A      2.543802   220A      2.577490   221A      2.595705  
     222A      2.611945   223A      2.633889   224A      2.657668  
     225A      2.676406   226A      2.689133   227A      2.700528  
     228A      2.718713   229A      2.719823   230A      2.730713  
     231A      2.773833   232A      2.791531   233A      2.800294  
     234A      2.810440   235A      2.833366   236A      2.843614  
     237A      2.855248   238A      2.871396   239A      2.898834  
     240A      2.908900   241A      2.952519   242A      2.973209  
     243A      2.994875   244A      2.999902   245A      3.022817  
     246A      3.063749   247A      3.113880   248A      3.138075  
     249A      3.196846   250A      3.207181   251A      3.237814  
     252A      3.239844   253A      3.254095   254A      3.274901  
     255A      3.288659   256A      3.323674   257A      3.326838  
     258A      3.344735   259A      3.358439   260A      3.373085  
     261A      3.397569   262A      3.410862   263A      3.427198  
     264A      3.456713   265A      3.479090   266A      3.499474  
     267A      3.549362   268A      3.603883   269A      3.690746  
     270A      3.727504   271A      3.760151   272A      3.778748  
     273A      3.828882   274A      3.844010   275A      3.867633  
     276A      4.122312   277A      4.131904   278A      4.287135  
     279A      4.351690   280A      4.375443   281A      4.412428  
     282A      4.445374   283A      4.486554   284A      4.503133  
     285A      4.528402   286A      4.575091   287A      4.584480  
     288A      4.591684   289A      4.605689   290A      4.627238  
     291A      4.649986   292A      4.656106   293A      4.685870  
     294A      4.708353   295A      4.729536   296A      4.742629  
     297A      4.769563   298A      4.794405   299A      4.797776  
     300A      4.833060   301A      4.851402   302A      4.876515  
     303A      4.893868   304A      4.913832   305A      4.983950  
     306A      5.058794   307A      5.068236   308A      5.076038  
     309A      5.080403   310A      5.106721   311A      5.118278  
     312A      5.136460   313A      5.165313   314A      5.188516  
     315A      5.208058   316A      5.216881   317A      5.278300  
     318A      5.310429   319A      5.378613   320A      5.387551  
     321A      5.497869   322A      5.535141   323A      5.539497  
     324A      5.560322   325A      5.581142   326A      5.605356  
     327A      5.621359   328A      5.697623   329A      5.738365  
     330A      5.809186   331A      5.810781   332A      5.845613  
     333A      5.954744   334A      5.964766   335A      5.987927  
     336A      6.309114   337A      6.349464   338A      6.389667  
     339A      6.427179   340A      6.431101   341A      6.480831  
     342A      6.490445   343A      6.622163   344A      6.683722  
     345A      6.709869   346A      6.776591   347A      6.834186  
     348A      7.002743   349A      7.069408   350A      7.119514  
     351A      7.136127   352A      7.156767   353A      7.351018  
     354A      7.376266   355A      7.403756   356A      7.521409  
     357A      7.559644   358A      7.768141   359A      7.795766  
     360A      7.822187   361A      7.826618   362A      7.876771  
     363A      7.891833   364A      7.922159   365A      7.950375  
     366A      8.066496   367A      8.115273   368A      8.123540  
     369A      8.171915   370A      8.186625   371A      8.235358  
     372A      8.264706   373A      8.332888   374A      8.359640  
     375A      8.407222   376A      8.708157   377A      8.747532  
     378A      8.801777   379A      8.824278   380A      8.849612  
     381A      8.859454   382A      8.875239   383A      9.897447  
     384A      9.956972   385A      9.980403   386A     10.003580  
     387A     10.031061   388A     10.051220   389A     10.085379  
     390A     10.099602   391A     10.119918   392A     10.254436  
     393A     10.270400   394A     10.302185   395A     11.096801  
     396A     11.134061   397A     11.149313   398A     11.864373  
     399A     11.895561   400A     11.935422   401A     12.154406  
     402A     12.244875   403A     12.336270   404A     13.107339  
     405A     13.525617   406A     13.589948   407A     13.592243  
     408A     13.979557   409A     14.035917   410A     14.043455  
     411A     16.035149   412A     64.679376   413A     65.095838  
     414A     65.623632  

    Final Occupation by Irrep:
              A 
    DOCC [     5 ]
    NA   [     5 ]
    NB   [     5 ]

  @DF-RHF Final Energy:   -76.05248427647672

   => Energetics <=

    Nuclear Repulsion Energy =              9.0084955612814870
    One-Electron Energy =                -122.6984517830410226
    Two-Electron Energy =                  37.6374719452828117
    Total Energy =                        -76.0524842764767186

Computation Completed


Properties will be evaluated at   0.000000,   0.000000,   0.000000 [a0]

Properties computed using the SCF density matrix


 Multipole Moments:

 ------------------------------------------------------------------------------------
     Multipole            Electronic (a.u.)      Nuclear  (a.u.)        Total (a.u.)
 ------------------------------------------------------------------------------------

 L = 1.  Multiply by 2.5417464519 to convert [e a0] to [Debye]
 Dipole X            :        -26.2562018           26.4216612            0.1654594
 Dipole Y            :         23.3107122          -24.0608321           -0.7501199
 Dipole Z            :         11.4745050          -11.6929487           -0.2184437
 Magnitude           :                                                    0.7986077

 ------------------------------------------------------------------------------------

*** tstop() called on ddmfs1 at Mon Jan 22 13:00:18 2024
Module time:
	user time   =      53.87 seconds =       0.90 minutes
	system time =       2.85 seconds =       0.05 minutes
	total time  =          3 seconds =       0.05 minutes
Total time:
	user time   =      53.87 seconds =       0.90 minutes
	system time =       2.85 seconds =       0.05 minutes
	total time  =          3 seconds =       0.05 minutes

*** tstart() called on ddmfs1
*** at Mon Jan 22 13:00:18 2024


  //>>>>>>>>>>>>>>>>>>>>>>>>>>>>>>>>>>>//
  //               DFMP2               //
  //<<<<<<<<<<<<<<<<<<<<<<<<<<<<<<<<<<<//

   => Loading Basis Set <=

    Name: (AUG-CC-PVTZ AUX)
    Role: RIFIT
    Keyword: DF_BASIS_MP2
    atoms 1                     entry LI         line    90 file /ddmfs1b/softs/psi4conda/share/psi4/basis/def2-qzvpp-ri.gbs 
    atoms 2, 5, 8, 11           entry O          line   264 file /ddmfs1b/softs/psi4conda/share/psi4/basis/aug-cc-pvtz-ri.gbs 
    atoms 3-4, 6-7, 9-10, 12-13 entry H          line    30 file /ddmfs1b/softs/psi4conda/share/psi4/basis/aug-cc-pvtz-ri.gbs 

	 --------------------------------------------------------
	                          DF-MP2                         
	      2nd-Order Density-Fitted Moller-Plesset Theory     
	              RMP2 Wavefunction,  20 Threads             
	                                                         
	        Rob Parrish, Justin Turney, Andy Simmonett,      
	           Ed Hohenstein, and C. David Sherrill          
	 --------------------------------------------------------

   => Auxiliary Basis Set <=

  Basis Set: (AUG-CC-PVTZ AUX)
    Blend: AUG-CC-PVTZ-RI + DEF2-QZVPP-RI
    Number of shells: 251
    Number of basis functions: 893
    Number of Cartesian functions: 1114
    Spherical Harmonics?: true
    Max angular momentum: 4

	 --------------------------------------------------------
	                 NBF =   414, NAUX =   893
	 --------------------------------------------------------
	   CLASS    FOCC     OCC    AOCC    AVIR     VIR    FVIR
	   PAIRS       0       5       5     409     409       0
	 --------------------------------------------------------

	-----------------------------------------------------------
	 ==================> DF-MP2 Energies <==================== 
	-----------------------------------------------------------
	 Reference Energy          =     -76.0524842764767186 [Eh]
	 Singles Energy            =      -0.0000000000000000 [Eh]
	 Same-Spin Energy          =      -0.0688256527989527 [Eh]
	 Opposite-Spin Energy      =      -0.2174685199220542 [Eh]
	 Correlation Energy        =      -0.2862941727210069 [Eh]
	 Total Energy              =     -76.3387784491977186 [Eh]
	-----------------------------------------------------------
	 ================> DF-SCS-MP2 Energies <================== 
	-----------------------------------------------------------
	 SCS Same-Spin Scale       =       0.3333333333333333 [-]
	 SCS Opposite-Spin Scale   =       1.2000000000000000 [-]
	 SCS Same-Spin Energy      =      -0.0229418842663176 [Eh]
	 SCS Opposite-Spin Energy  =      -0.2609622239064651 [Eh]
	 SCS Correlation Energy    =      -0.2839041081727827 [Eh]
	 SCS Total Energy          =     -76.3363883846494957 [Eh]
	-----------------------------------------------------------


*** tstop() called on ddmfs1 at Mon Jan 22 13:00:21 2024
Module time:
	user time   =      16.57 seconds =       0.28 minutes
	system time =       0.98 seconds =       0.02 minutes
	total time  =          3 seconds =       0.05 minutes
Total time:
	user time   =      70.45 seconds =       1.17 minutes
	system time =       3.83 seconds =       0.06 minutes
	total time  =          6 seconds =       0.10 minutes

    Psi4 stopped on: Monday, 22 January 2024 01:00PM
    Psi4 wall time for execution: 0:00:06.09

*** Psi4 exiting successfully. Buy a developer a beer!
