
    -----------------------------------------------------------------------
          Psi4: An Open-Source Ab Initio Electronic Structure Package
                               Psi4 1.8.2 release

                         Git: Rev {} zzzzzzz 


    D. G. A. Smith, L. A. Burns, A. C. Simmonett, R. M. Parrish,
    M. C. Schieber, R. Galvelis, P. Kraus, H. Kruse, R. Di Remigio,
    A. Alenaizan, A. M. James, S. Lehtola, J. P. Misiewicz, M. Scheurer,
    R. A. Shaw, J. B. Schriber, Y. Xie, Z. L. Glick, D. A. Sirianni,
    J. S. O'Brien, J. M. Waldrop, A. Kumar, E. G. Hohenstein,
    B. P. Pritchard, B. R. Brooks, H. F. Schaefer III, A. Yu. Sokolov,
    K. Patkowski, A. E. DePrince III, U. Bozkaya, R. A. King,
    F. A. Evangelista, J. M. Turney, T. D. Crawford, C. D. Sherrill,
    J. Chem. Phys. 152(18) 184108 (2020). https://doi.org/10.1063/5.0006002

                            Additional Code Authors
    E. T. Seidl, C. L. Janssen, E. F. Valeev, M. L. Leininger,
    J. F. Gonthier, R. M. Richard, H. R. McAlexander, M. Saitow, X. Wang,
    P. Verma, M. H. Lechner, A. Jiang, S. Behnle, A. G. Heide,
    M. F. Herbst, and D. L. Poole

             Previous Authors, Complete List of Code Contributors,
                       and Citations for Specific Modules
    https://github.com/psi4/psi4/blob/master/codemeta.json
    https://github.com/psi4/psi4/graphs/contributors
    http://psicode.org/psi4manual/master/introduction.html#citing-psifour

    -----------------------------------------------------------------------


    Psi4 started on: Monday, 22 January 2024 12:58PM

    Process ID: 52535
    Host:       ddmfs1
    PSIDATADIR: /ddmfs1b/softs/psi4conda/share/psi4
    Memory:     500.0 MiB
    Threads:    20
    
  ==> Input File <==

--------------------------------------------------------------------------
MEMORY 60 GB

molecule dimer {
0 1
Gh(Li)     0.000000     0.000000     0.000000
Gh(O)      1.891419    -0.158379     0.528671
Gh(H)      2.349768    -0.987879     0.327543
Gh(H)      1.829373    -0.013513     1.475622
O         -0.554841     1.482555     1.052622
H         -0.087815     1.879686     1.842708
H         -0.786767     2.214477     0.472406
Gh(O)     -0.527123    -0.402664    -1.792316
Gh(H)     -0.769570     0.305457    -2.402126
Gh(H)     -0.735432    -1.286504    -2.275183

units ang
no_reorient
no_com
symmetry c1
}

set {
basis        aug-cc-pVTZ
scf_type     df
}

energy("mp2")
--------------------------------------------------------------------------

  Memory set to  55.879 GiB by Python driver.

Scratch directory: /ddmfs1a/scratch/
   => Libint2 <=

    Primary   basis highest AM E, G, H:  5, 4, 3
    Auxiliary basis highest AM E, G, H:  6, 5, 4
    Onebody   basis highest AM E, G, H:  6, 5, 4
    Solid Harmonics ordering:            gaussian

*** tstart() called on ddmfs1
*** at Mon Jan 22 12:58:14 2024

   => Loading Basis Set <=

    Name: AUG-CC-PVTZ
    Role: ORBITAL
    Keyword: BASIS
    atoms 1              entry LI         line    85 file /ddmfs1b/softs/psi4conda/share/psi4/basis/aug-cc-pvtz.gbs 
    atoms 2, 5, 8        entry O          line   331 file /ddmfs1b/softs/psi4conda/share/psi4/basis/aug-cc-pvtz.gbs 
    atoms 3-4, 6-7, 9-10 entry H          line    40 file /ddmfs1b/softs/psi4conda/share/psi4/basis/aug-cc-pvtz.gbs 


         ---------------------------------------------------------
                                   SCF
               by Justin Turney, Rob Parrish, Andy Simmonett
                          and Daniel G. A. Smith
                              RHF Reference
                       20 Threads,  57220 MiB Core
         ---------------------------------------------------------

  ==> Geometry <==

    Molecular point group: c1
    Full point group: C1

    Geometry (in Angstrom), charge = 0, multiplicity = 1:

       Center              X                  Y                   Z               Mass       
    ------------   -----------------  -----------------  -----------------  -----------------
      Gh(LI)          0.000000000000     0.000000000000     0.000000000000     7.016003436600
      Gh(O)           1.891419000000    -0.158379000000     0.528671000000    15.994914619570
      Gh(H)           2.349768000000    -0.987879000000     0.327543000000     1.007825032230
      Gh(H)           1.829373000000    -0.013513000000     1.475622000000     1.007825032230
         O           -0.554841000000     1.482555000000     1.052622000000    15.994914619570
         H           -0.087815000000     1.879686000000     1.842708000000     1.007825032230
         H           -0.786767000000     2.214477000000     0.472406000000     1.007825032230
      Gh(O)          -0.527123000000    -0.402664000000    -1.792316000000    15.994914619570
      Gh(H)          -0.769570000000     0.305457000000    -2.402126000000     1.007825032230
      Gh(H)          -0.735432000000    -1.286504000000    -2.275183000000     1.007825032230

  Running in c1 symmetry.

  Rotational constants: A =      0.17741  B =      0.12785  C =      0.08118 [cm^-1]
  Rotational constants: A =   5318.64032  B =   3832.98190  C =   2433.86503 [MHz]
  Nuclear repulsion =    8.968390223608477

  Charge       = 0
  Multiplicity = 1
  Electrons    = 10
  Nalpha       = 5
  Nbeta        = 5

  ==> Algorithm <==

  SCF Algorithm Type is DF.
  DIIS enabled.
  MOM disabled.
  Fractional occupation disabled.
  Guess Type is SAD.
  Energy threshold   = 1.00e-08
  Density threshold  = 1.00e-08
  Integral threshold = 1.00e-12

  ==> Primary Basis <==

  Basis Set: AUG-CC-PVTZ
    Blend: AUG-CC-PVTZ
    Number of shells: 110
    Number of basis functions: 322
    Number of Cartesian functions: 370
    Spherical Harmonics?: true
    Max angular momentum: 3

   => Loading Basis Set <=

    Name: (AUG-CC-PVTZ AUX)
    Role: JKFIT
    Keyword: DF_BASIS_SCF
    atoms 1              entry LI         line    54 file /ddmfs1b/softs/psi4conda/share/psi4/basis/def2-universal-jkfit.gbs 
    atoms 2, 5, 8        entry O          line   286 file /ddmfs1b/softs/psi4conda/share/psi4/basis/aug-cc-pvtz-jkfit.gbs 
    atoms 3-4, 6-7, 9-10 entry H          line    70 file /ddmfs1b/softs/psi4conda/share/psi4/basis/aug-cc-pvtz-jkfit.gbs 

  ==> Integral Setup <==

  DFHelper Memory: AOs need 0.511 GiB; user supplied 41.910 GiB. 
  Using in-core AOs.

  ==> MemDFJK: Density-Fitted J/K Matrices <==

    J tasked:                   Yes
    K tasked:                   Yes
    wK tasked:                   No
    OpenMP threads:              20
    Memory [MiB]:             42915
    Algorithm:                 Core
    Schwarz Cutoff:           1E-12
    Mask sparsity (%):       4.4539
    Fitting Condition:        1E-10

   => Auxiliary Basis Set <=

  Basis Set: (AUG-CC-PVTZ AUX)
    Blend: AUG-CC-PVTZ-JKFIT + DEF2-UNIVERSAL-JKFIT
    Number of shells: 191
    Number of basis functions: 639
    Number of Cartesian functions: 783
    Spherical Harmonics?: true
    Max angular momentum: 4

  Minimum eigenvalue in the overlap matrix is 2.1741519371E-05.
  Reciprocal condition number of the overlap matrix is 1.7707430097E-06.
    Using symmetric orthogonalization.

  ==> Pre-Iterations <==

  SCF Guess: Superposition of Atomic Densities via on-the-fly atomic UHF (no occupation information).

   -------------------------
    Irrep   Nso     Nmo    
   -------------------------
     A        322     322 
   -------------------------
    Total     322     322
   -------------------------

  ==> Iterations <==

                           Total Energy        Delta E     RMS |[F,P]|

   @DF-RHF iter SAD:   -75.44766954539232   -7.54477e+01   0.00000e+00 
   @DF-RHF iter   1:   -75.97210987276996   -5.24440e-01   1.45072e-03 DIIS/ADIIS
   @DF-RHF iter   2:   -76.02391517898781   -5.18053e-02   1.01151e-03 DIIS/ADIIS
   @DF-RHF iter   3:   -76.05694630069063   -3.30311e-02   6.91319e-05 DIIS
   @DF-RHF iter   4:   -76.05737324774105   -4.26947e-04   1.73843e-05 DIIS
   @DF-RHF iter   5:   -76.05740306528031   -2.98175e-05   4.04365e-06 DIIS
   @DF-RHF iter   6:   -76.05740562042270   -2.55514e-06   9.00444e-07 DIIS
   @DF-RHF iter   7:   -76.05740575861678   -1.38194e-07   1.63660e-07 DIIS
   @DF-RHF iter   8:   -76.05740576258681   -3.97003e-09   2.82815e-08 DIIS
   @DF-RHF iter   9:   -76.05740576268407   -9.72591e-11   7.43007e-09 DIIS
  Energy and wave function converged.


  ==> Post-Iterations <==

    Orbital Energies [Eh]
    ---------------------

    Doubly Occupied:                                                      

       1A    -20.570083     2A     -1.340303     3A     -0.708838  
       4A     -0.575976     5A     -0.507757  

    Virtual:                                                              

       6A      0.009262     7A      0.017920     8A      0.018562  
       9A      0.020394    10A      0.045843    11A      0.056722  
      12A      0.057851    13A      0.062298    14A      0.065320  
      15A      0.070467    16A      0.073891    17A      0.077003  
      18A      0.085424    19A      0.091073    20A      0.133137  
      21A      0.143561    22A      0.151416    23A      0.154018  
      24A      0.160441    25A      0.163777    26A      0.167250  
      27A      0.173728    28A      0.180475    29A      0.184802  
      30A      0.188444    31A      0.203816    32A      0.209866  
      33A      0.212015    34A      0.223227    35A      0.230727  
      36A      0.241976    37A      0.257865    38A      0.283016  
      39A      0.296121    40A      0.307326    41A      0.317772  
      42A      0.333037    43A      0.337198    44A      0.344556  
      45A      0.356185    46A      0.362144    47A      0.365786  
      48A      0.371990    49A      0.375683    50A      0.384746  
      51A      0.388794    52A      0.394244    53A      0.401618  
      54A      0.413741    55A      0.415140    56A      0.418778  
      57A      0.422267    58A      0.432979    59A      0.441147  
      60A      0.446533    61A      0.453074    62A      0.461213  
      63A      0.461607    64A      0.468161    65A      0.477524  
      66A      0.479331    67A      0.483805    68A      0.490991  
      69A      0.511128    70A      0.516907    71A      0.522945  
      72A      0.540128    73A      0.567939    74A      0.578228  
      75A      0.618315    76A      0.626905    77A      0.643031  
      78A      0.690221    79A      0.714053    80A      0.746408  
      81A      0.751682    82A      0.774330    83A      0.785976  
      84A      0.813689    85A      0.824997    86A      0.827647  
      87A      0.839413    88A      0.846629    89A      0.853326  
      90A      0.863844    91A      0.870882    92A      0.875446  
      93A      0.884104    94A      0.891085    95A      0.896149  
      96A      0.912096    97A      0.924262    98A      0.931690  
      99A      0.939509   100A      0.954781   101A      0.960025  
     102A      0.980657   103A      0.987798   104A      0.991602  
     105A      1.003338   106A      1.004560   107A      1.023304  
     108A      1.032473   109A      1.045209   110A      1.054936  
     111A      1.062476   112A      1.065671   113A      1.072993  
     114A      1.094710   115A      1.102517   116A      1.111013  
     117A      1.116368   118A      1.130695   119A      1.134053  
     120A      1.144569   121A      1.164602   122A      1.169867  
     123A      1.189862   124A      1.190895   125A      1.197927  
     126A      1.216727   127A      1.240868   128A      1.262667  
     129A      1.266010   130A      1.278957   131A      1.282953  
     132A      1.293220   133A      1.309862   134A      1.319486  
     135A      1.339460   136A      1.360802   137A      1.398027  
     138A      1.411885   139A      1.436205   140A      1.460012  
     141A      1.469629   142A      1.483754   143A      1.515126  
     144A      1.542736   145A      1.574942   146A      1.585239  
     147A      1.610695   148A      1.628537   149A      1.663675  
     150A      1.718150   151A      1.734112   152A      1.779442  
     153A      1.814636   154A      1.821768   155A      1.842276  
     156A      1.848067   157A      1.863916   158A      1.873679  
     159A      1.906050   160A      1.918545   161A      1.932595  
     162A      1.975426   163A      1.993480   164A      2.004747  
     165A      2.026012   166A      2.050318   167A      2.067749  
     168A      2.085188   169A      2.133587   170A      2.200329  
     171A      2.272076   172A      2.353089   173A      2.385606  
     174A      2.406951   175A      2.438153   176A      2.498986  
     177A      2.510544   178A      2.535149   179A      2.556498  
     180A      2.598880   181A      2.608233   182A      2.622067  
     183A      2.652683   184A      2.665359   185A      2.671323  
     186A      2.707584   187A      2.731425   188A      2.736907  
     189A      2.782755   190A      2.804480   191A      2.818141  
     192A      2.844625   193A      2.863864   194A      2.917647  
     195A      2.938939   196A      2.951971   197A      2.958854  
     198A      2.969157   199A      3.016813   200A      3.048121  
     201A      3.110326   202A      3.220740   203A      3.228823  
     204A      3.259174   205A      3.274138   206A      3.306783  
     207A      3.313515   208A      3.331122   209A      3.349692  
     210A      3.410432   211A      3.418901   212A      3.440870  
     213A      3.490342   214A      3.645169   215A      3.723005  
     216A      3.776180   217A      3.857391   218A      3.881311  
     219A      3.915481   220A      4.133917   221A      4.242557  
     222A      4.277138   223A      4.323913   224A      4.355960  
     225A      4.456720   226A      4.497914   227A      4.504309  
     228A      4.522525   229A      4.570347   230A      4.575437  
     231A      4.596765   232A      4.609071   233A      4.631121  
     234A      4.650205   235A      4.725518   236A      4.734703  
     237A      4.757101   238A      4.789846   239A      4.812021  
     240A      4.838352   241A      4.858176   242A      4.880977  
     243A      5.006358   244A      5.038803   245A      5.058751  
     246A      5.088808   247A      5.127692   248A      5.140509  
     249A      5.187562   250A      5.196028   251A      5.243978  
     252A      5.262494   253A      5.318240   254A      5.364572  
     255A      5.437494   256A      5.511713   257A      5.540011  
     258A      5.572381   259A      5.645053   260A      5.680149  
     261A      5.767243   262A      5.805145   263A      5.841105  
     264A      5.903007   265A      6.182132   266A      6.297762  
     267A      6.338568   268A      6.352589   269A      6.446120  
     270A      6.645901   271A      6.653530   272A      6.842959  
     273A      6.870348   274A      6.923097   275A      7.013128  
     276A      7.121125   277A      7.185592   278A      7.315689  
     279A      7.349817   280A      7.384137   281A      7.432100  
     282A      7.462012   283A      7.624520   284A      7.726071  
     285A      7.788906   286A      7.843819   287A      7.897285  
     288A      7.927992   289A      7.952454   290A      8.054211  
     291A      8.188951   292A      8.201654   293A      8.242230  
     294A      8.309442   295A      8.352064   296A      8.646897  
     297A      8.712394   298A      8.773201   299A      8.816774  
     300A      8.867988   301A      9.858709   302A      9.879684  
     303A      9.986540   304A     10.000877   305A     10.029389  
     306A     10.092714   307A     10.206105   308A     10.248924  
     309A     10.969022   310A     11.162377   311A     11.751228  
     312A     11.831244   313A     12.011831   314A     12.241206  
     315A     12.422938   316A     13.428935   317A     13.568930  
     318A     13.932431   319A     14.015960   320A     15.577820  
     321A     63.762172   322A     65.317265  

    Final Occupation by Irrep:
              A 
    DOCC [     5 ]
    NA   [     5 ]
    NB   [     5 ]

  @DF-RHF Final Energy:   -76.05740576268407

   => Energetics <=

    Nuclear Repulsion Energy =              8.9683902236084769
    One-Electron Energy =                -122.6456760153674850
    Two-Electron Energy =                  37.6198800290749347
    Total Energy =                        -76.0574057626840698

Computation Completed


Properties will be evaluated at   0.000000,   0.000000,   0.000000 [a0]

Properties computed using the SCF density matrix


 Multipole Moments:

 ------------------------------------------------------------------------------------
     Multipole            Electronic (a.u.)      Nuclear  (a.u.)        Total (a.u.)
 ------------------------------------------------------------------------------------

 L = 1.  Multiply by 2.5417464519 to convert [e a0] to [Debye]
 Dipole X            :         10.1928137          -10.0407007            0.1521129
 Dipole Y            :        -29.4039378           30.1498301            0.7458923
 Dipole Z            :        -20.1549676           20.2882698            0.1333021
 Magnitude           :                                                    0.7728281

 ------------------------------------------------------------------------------------

*** tstop() called on ddmfs1 at Mon Jan 22 12:58:16 2024
Module time:
	user time   =      30.82 seconds =       0.51 minutes
	system time =       1.77 seconds =       0.03 minutes
	total time  =          2 seconds =       0.03 minutes
Total time:
	user time   =      30.82 seconds =       0.51 minutes
	system time =       1.77 seconds =       0.03 minutes
	total time  =          2 seconds =       0.03 minutes

*** tstart() called on ddmfs1
*** at Mon Jan 22 12:58:16 2024


  //>>>>>>>>>>>>>>>>>>>>>>>>>>>>>>>>>>>//
  //               DFMP2               //
  //<<<<<<<<<<<<<<<<<<<<<<<<<<<<<<<<<<<//

   => Loading Basis Set <=

    Name: (AUG-CC-PVTZ AUX)
    Role: RIFIT
    Keyword: DF_BASIS_MP2
    atoms 1              entry LI         line    90 file /ddmfs1b/softs/psi4conda/share/psi4/basis/def2-qzvpp-ri.gbs 
    atoms 2, 5, 8        entry O          line   264 file /ddmfs1b/softs/psi4conda/share/psi4/basis/aug-cc-pvtz-ri.gbs 
    atoms 3-4, 6-7, 9-10 entry H          line    30 file /ddmfs1b/softs/psi4conda/share/psi4/basis/aug-cc-pvtz-ri.gbs 

	 --------------------------------------------------------
	                          DF-MP2                         
	      2nd-Order Density-Fitted Moller-Plesset Theory     
	              RMP2 Wavefunction,  20 Threads             
	                                                         
	        Rob Parrish, Justin Turney, Andy Simmonett,      
	           Ed Hohenstein, and C. David Sherrill          
	 --------------------------------------------------------

   => Auxiliary Basis Set <=

  Basis Set: (AUG-CC-PVTZ AUX)
    Blend: AUG-CC-PVTZ-RI + DEF2-QZVPP-RI
    Number of shells: 195
    Number of basis functions: 695
    Number of Cartesian functions: 868
    Spherical Harmonics?: true
    Max angular momentum: 4

	 --------------------------------------------------------
	                 NBF =   322, NAUX =   695
	 --------------------------------------------------------
	   CLASS    FOCC     OCC    AOCC    AVIR     VIR    FVIR
	   PAIRS       0       5       5     317     317       0
	 --------------------------------------------------------

	-----------------------------------------------------------
	 ==================> DF-MP2 Energies <==================== 
	-----------------------------------------------------------
	 Reference Energy          =     -76.0574057626840698 [Eh]
	 Singles Energy            =      -0.0000000000000000 [Eh]
	 Same-Spin Energy          =      -0.0687888798681826 [Eh]
	 Opposite-Spin Energy      =      -0.2170163366166204 [Eh]
	 Correlation Energy        =      -0.2858052164848030 [Eh]
	 Total Energy              =     -76.3432109791688731 [Eh]
	-----------------------------------------------------------
	 ================> DF-SCS-MP2 Energies <================== 
	-----------------------------------------------------------
	 SCS Same-Spin Scale       =       0.3333333333333333 [-]
	 SCS Opposite-Spin Scale   =       1.2000000000000000 [-]
	 SCS Same-Spin Energy      =      -0.0229296266227275 [Eh]
	 SCS Opposite-Spin Energy  =      -0.2604196039399445 [Eh]
	 SCS Correlation Energy    =      -0.2833492305626720 [Eh]
	 SCS Total Energy          =     -76.3407549932467475 [Eh]
	-----------------------------------------------------------


*** tstop() called on ddmfs1 at Mon Jan 22 12:58:17 2024
Module time:
	user time   =      10.89 seconds =       0.18 minutes
	system time =       0.58 seconds =       0.01 minutes
	total time  =          1 seconds =       0.02 minutes
Total time:
	user time   =      41.73 seconds =       0.70 minutes
	system time =       2.35 seconds =       0.04 minutes
	total time  =          3 seconds =       0.05 minutes

    Psi4 stopped on: Monday, 22 January 2024 12:58PM
    Psi4 wall time for execution: 0:00:03.75

*** Psi4 exiting successfully. Buy a developer a beer!
