
    -----------------------------------------------------------------------
          Psi4: An Open-Source Ab Initio Electronic Structure Package
                               Psi4 1.8.2 release

                         Git: Rev {} zzzzzzz 


    D. G. A. Smith, L. A. Burns, A. C. Simmonett, R. M. Parrish,
    M. C. Schieber, R. Galvelis, P. Kraus, H. Kruse, R. Di Remigio,
    A. Alenaizan, A. M. James, S. Lehtola, J. P. Misiewicz, M. Scheurer,
    R. A. Shaw, J. B. Schriber, Y. Xie, Z. L. Glick, D. A. Sirianni,
    J. S. O'Brien, J. M. Waldrop, A. Kumar, E. G. Hohenstein,
    B. P. Pritchard, B. R. Brooks, H. F. Schaefer III, A. Yu. Sokolov,
    K. Patkowski, A. E. DePrince III, U. Bozkaya, R. A. King,
    F. A. Evangelista, J. M. Turney, T. D. Crawford, C. D. Sherrill,
    J. Chem. Phys. 152(18) 184108 (2020). https://doi.org/10.1063/5.0006002

                            Additional Code Authors
    E. T. Seidl, C. L. Janssen, E. F. Valeev, M. L. Leininger,
    J. F. Gonthier, R. M. Richard, H. R. McAlexander, M. Saitow, X. Wang,
    P. Verma, M. H. Lechner, A. Jiang, S. Behnle, A. G. Heide,
    M. F. Herbst, and D. L. Poole

             Previous Authors, Complete List of Code Contributors,
                       and Citations for Specific Modules
    https://github.com/psi4/psi4/blob/master/codemeta.json
    https://github.com/psi4/psi4/graphs/contributors
    http://psicode.org/psi4manual/master/introduction.html#citing-psifour

    -----------------------------------------------------------------------


    Psi4 started on: Monday, 22 January 2024 01:35PM

    Process ID: 60080
    Host:       ddmfs1
    PSIDATADIR: /ddmfs1b/softs/psi4conda/share/psi4
    Memory:     500.0 MiB
    Threads:    20
    
  ==> Input File <==

--------------------------------------------------------------------------
MEMORY 60 GB

molecule dimer {
0 1
Gh(Li)     0.000000     0.000000     0.000000
Gh(O)      1.625213     0.972567    -0.130984
Gh(H)      2.385363     0.442167     0.052306
Gh(H)      1.744821     1.783338     0.393105
O         -0.494873    -0.049516    -1.857659
H         -1.472930    -0.211893    -1.914216
H         -0.138603    -0.782973    -2.357050
Gh(O)     -0.071954    -1.647819     0.654952
Gh(H)      0.228828    -1.705075     1.564639
Gh(H)     -0.688509    -2.401562     0.512174
Gh(O)     -1.490186     0.845902     1.174509
Gh(H)     -1.068979     0.975324     2.036246
Gh(H)     -2.159523     0.106016     1.305168

units ang
no_reorient
no_com
symmetry c1
}

set {
basis        aug-cc-pVTZ
scf_type     df
}

energy("mp2")
--------------------------------------------------------------------------

  Memory set to  55.879 GiB by Python driver.

Scratch directory: /ddmfs1a/scratch/
   => Libint2 <=

    Primary   basis highest AM E, G, H:  5, 4, 3
    Auxiliary basis highest AM E, G, H:  6, 5, 4
    Onebody   basis highest AM E, G, H:  6, 5, 4
    Solid Harmonics ordering:            gaussian

*** tstart() called on ddmfs1
*** at Mon Jan 22 13:35:58 2024

   => Loading Basis Set <=

    Name: AUG-CC-PVTZ
    Role: ORBITAL
    Keyword: BASIS
    atoms 1                     entry LI         line    85 file /ddmfs1b/softs/psi4conda/share/psi4/basis/aug-cc-pvtz.gbs 
    atoms 2, 5, 8, 11           entry O          line   331 file /ddmfs1b/softs/psi4conda/share/psi4/basis/aug-cc-pvtz.gbs 
    atoms 3-4, 6-7, 9-10, 12-13 entry H          line    40 file /ddmfs1b/softs/psi4conda/share/psi4/basis/aug-cc-pvtz.gbs 


         ---------------------------------------------------------
                                   SCF
               by Justin Turney, Rob Parrish, Andy Simmonett
                          and Daniel G. A. Smith
                              RHF Reference
                       20 Threads,  57220 MiB Core
         ---------------------------------------------------------

  ==> Geometry <==

    Molecular point group: c1
    Full point group: C1

    Geometry (in Angstrom), charge = 0, multiplicity = 1:

       Center              X                  Y                   Z               Mass       
    ------------   -----------------  -----------------  -----------------  -----------------
      Gh(LI)          0.000000000000     0.000000000000     0.000000000000     7.016003436600
      Gh(O)           1.625213000000     0.972567000000    -0.130984000000    15.994914619570
      Gh(H)           2.385363000000     0.442167000000     0.052306000000     1.007825032230
      Gh(H)           1.744821000000     1.783338000000     0.393105000000     1.007825032230
         O           -0.494873000000    -0.049516000000    -1.857659000000    15.994914619570
         H           -1.472930000000    -0.211893000000    -1.914216000000     1.007825032230
         H           -0.138603000000    -0.782973000000    -2.357050000000     1.007825032230
      Gh(O)          -0.071954000000    -1.647819000000     0.654952000000    15.994914619570
      Gh(H)           0.228828000000    -1.705075000000     1.564639000000     1.007825032230
      Gh(H)          -0.688509000000    -2.401562000000     0.512174000000     1.007825032230
      Gh(O)          -1.490186000000     0.845902000000     1.174509000000    15.994914619570
      Gh(H)          -1.068979000000     0.975324000000     2.036246000000     1.007825032230
      Gh(H)          -2.159523000000     0.106016000000     1.305168000000     1.007825032230

  Running in c1 symmetry.

  Rotational constants: A =      0.10280  B =      0.08632  C =      0.07966 [cm^-1]
  Rotational constants: A =   3081.80510  B =   2587.70269  C =   2388.12171 [MHz]
  Nuclear repulsion =    9.039177639905084

  Charge       = 0
  Multiplicity = 1
  Electrons    = 10
  Nalpha       = 5
  Nbeta        = 5

  ==> Algorithm <==

  SCF Algorithm Type is DF.
  DIIS enabled.
  MOM disabled.
  Fractional occupation disabled.
  Guess Type is SAD.
  Energy threshold   = 1.00e-08
  Density threshold  = 1.00e-08
  Integral threshold = 1.00e-12

  ==> Primary Basis <==

  Basis Set: AUG-CC-PVTZ
    Blend: AUG-CC-PVTZ
    Number of shells: 142
    Number of basis functions: 414
    Number of Cartesian functions: 475
    Spherical Harmonics?: true
    Max angular momentum: 3

   => Loading Basis Set <=

    Name: (AUG-CC-PVTZ AUX)
    Role: JKFIT
    Keyword: DF_BASIS_SCF
    atoms 1                     entry LI         line    54 file /ddmfs1b/softs/psi4conda/share/psi4/basis/def2-universal-jkfit.gbs 
    atoms 2, 5, 8, 11           entry O          line   286 file /ddmfs1b/softs/psi4conda/share/psi4/basis/aug-cc-pvtz-jkfit.gbs 
    atoms 3-4, 6-7, 9-10, 12-13 entry H          line    70 file /ddmfs1b/softs/psi4conda/share/psi4/basis/aug-cc-pvtz-jkfit.gbs 

  ==> Integral Setup <==

  DFHelper Memory: AOs need 1.090 GiB; user supplied 41.910 GiB. 
  Using in-core AOs.

  ==> MemDFJK: Density-Fitted J/K Matrices <==

    J tasked:                   Yes
    K tasked:                   Yes
    wK tasked:                   No
    OpenMP threads:              20
    Memory [MiB]:             42915
    Algorithm:                 Core
    Schwarz Cutoff:           1E-12
    Mask sparsity (%):       3.8741
    Fitting Condition:        1E-10

   => Auxiliary Basis Set <=

  Basis Set: (AUG-CC-PVTZ AUX)
    Blend: AUG-CC-PVTZ-JKFIT + DEF2-UNIVERSAL-JKFIT
    Number of shells: 249
    Number of basis functions: 835
    Number of Cartesian functions: 1024
    Spherical Harmonics?: true
    Max angular momentum: 4

  Minimum eigenvalue in the overlap matrix is 1.4385214876E-05.
  Reciprocal condition number of the overlap matrix is 9.7258265030E-07.
    Using symmetric orthogonalization.

  ==> Pre-Iterations <==

  SCF Guess: Superposition of Atomic Densities via on-the-fly atomic UHF (no occupation information).

   -------------------------
    Irrep   Nso     Nmo    
   -------------------------
     A        414     414 
   -------------------------
    Total     414     414
   -------------------------

  ==> Iterations <==

                           Total Energy        Delta E     RMS |[F,P]|

   @DF-RHF iter SAD:   -75.45991583833465   -7.54599e+01   0.00000e+00 
   @DF-RHF iter   1:   -75.97278188845895   -5.12866e-01   1.12971e-03 DIIS/ADIIS
   @DF-RHF iter   2:   -76.02493549352752   -5.21536e-02   7.85278e-04 DIIS/ADIIS
   @DF-RHF iter   3:   -76.05778871130751   -3.28532e-02   5.35002e-05 DIIS
   @DF-RHF iter   4:   -76.05820071706927   -4.12006e-04   1.32863e-05 DIIS
   @DF-RHF iter   5:   -76.05822896636577   -2.82493e-05   3.09750e-06 DIIS
   @DF-RHF iter   6:   -76.05823136964844   -2.40328e-06   6.77108e-07 DIIS
   @DF-RHF iter   7:   -76.05823149395786   -1.24309e-07   1.17294e-07 DIIS
   @DF-RHF iter   8:   -76.05823149718437   -3.22650e-09   2.00535e-08 DIIS
   @DF-RHF iter   9:   -76.05823149725965   -7.52891e-11   5.04709e-09 DIIS
  Energy and wave function converged.


  ==> Post-Iterations <==

    Orbital Energies [Eh]
    ---------------------

    Doubly Occupied:                                                      

       1A    -20.570931     2A     -1.346573     3A     -0.704053  
       4A     -0.585806     5A     -0.509629  

    Virtual:                                                              

       6A      0.008062     7A      0.017843     8A      0.018169  
       9A      0.019754    10A      0.042544    11A      0.055634  
      12A      0.058103    13A      0.059149    14A      0.062138  
      15A      0.064459    16A      0.066366    17A      0.071369  
      18A      0.080584    19A      0.088994    20A      0.098317  
      21A      0.101218    22A      0.121508    23A      0.147641  
      24A      0.152823    25A      0.156431    26A      0.158802  
      27A      0.160527    28A      0.161554    29A      0.167548  
      30A      0.172593    31A      0.177215    32A      0.183640  
      33A      0.188968    34A      0.196388    35A      0.212061  
      36A      0.218084    37A      0.219669    38A      0.228605  
      39A      0.242887    40A      0.245103    41A      0.252982  
      42A      0.268932    43A      0.300299    44A      0.304573  
      45A      0.311103    46A      0.320726    47A      0.329946  
      48A      0.336495    49A      0.342427    50A      0.349373  
      51A      0.352992    52A      0.359285    53A      0.362228  
      54A      0.372463    55A      0.375646    56A      0.381491  
      57A      0.386412    58A      0.392129    59A      0.395432  
      60A      0.404084    61A      0.408541    62A      0.416112  
      63A      0.426401    64A      0.430002    65A      0.433447  
      66A      0.435734    67A      0.443038    68A      0.456987  
      69A      0.461411    70A      0.466736    71A      0.467517  
      72A      0.480119    73A      0.482846    74A      0.489946  
      75A      0.494146    76A      0.497729    77A      0.500143  
      78A      0.515510    79A      0.525738    80A      0.535199  
      81A      0.543961    82A      0.559154    83A      0.561121  
      84A      0.572979    85A      0.579958    86A      0.599940  
      87A      0.610890    88A      0.618003    89A      0.625254  
      90A      0.640719    91A      0.682803    92A      0.714074  
      93A      0.732017    94A      0.748999    95A      0.760984  
      96A      0.776121    97A      0.793031    98A      0.808987  
      99A      0.819358   100A      0.824833   101A      0.826140  
     102A      0.839820   103A      0.848746   104A      0.856844  
     105A      0.859894   106A      0.869035   107A      0.877079  
     108A      0.888608   109A      0.893657   110A      0.905039  
     111A      0.917175   112A      0.923023   113A      0.930456  
     114A      0.940688   115A      0.956134   116A      0.964245  
     117A      0.970318   118A      0.983227   119A      0.988276  
     120A      0.991602   121A      0.995975   122A      1.004628  
     123A      1.019597   124A      1.029596   125A      1.030003  
     126A      1.034416   127A      1.042829   128A      1.058187  
     129A      1.070435   130A      1.074386   131A      1.078128  
     132A      1.088717   133A      1.102176   134A      1.107906  
     135A      1.123763   136A      1.130886   137A      1.138016  
     138A      1.143591   139A      1.163250   140A      1.166026  
     141A      1.174806   142A      1.180479   143A      1.184956  
     144A      1.193925   145A      1.204128   146A      1.212280  
     147A      1.220850   148A      1.224310   149A      1.238931  
     150A      1.255725   151A      1.258346   152A      1.264835  
     153A      1.286729   154A      1.294244   155A      1.306527  
     156A      1.311921   157A      1.324717   158A      1.333925  
     159A      1.347962   160A      1.366062   161A      1.400011  
     162A      1.422203   163A      1.424721   164A      1.438349  
     165A      1.444905   166A      1.462750   167A      1.468389  
     168A      1.478952   169A      1.501913   170A      1.516526  
     171A      1.527480   172A      1.534103   173A      1.560895  
     174A      1.569186   175A      1.572846   176A      1.594827  
     177A      1.613756   178A      1.633976   179A      1.659618  
     180A      1.675391   181A      1.698224   182A      1.715949  
     183A      1.723321   184A      1.750390   185A      1.766590  
     186A      1.796623   187A      1.829648   188A      1.849304  
     189A      1.857702   190A      1.860344   191A      1.888128  
     192A      1.895157   193A      1.923881   194A      1.930163  
     195A      1.951038   196A      1.957306   197A      1.994568  
     198A      2.004188   199A      2.018482   200A      2.024387  
     201A      2.029146   202A      2.045360   203A      2.065938  
     204A      2.072524   205A      2.084093   206A      2.104767  
     207A      2.126583   208A      2.144946   209A      2.165922  
     210A      2.230072   211A      2.309191   212A      2.329584  
     213A      2.384595   214A      2.452764   215A      2.485054  
     216A      2.504294   217A      2.542853   218A      2.551559  
     219A      2.560743   220A      2.586171   221A      2.607667  
     222A      2.628426   223A      2.632135   224A      2.654992  
     225A      2.675827   226A      2.682272   227A      2.704461  
     228A      2.720518   229A      2.741475   230A      2.762208  
     231A      2.763832   232A      2.793372   233A      2.807045  
     234A      2.819935   235A      2.834479   236A      2.851768  
     237A      2.869437   238A      2.893855   239A      2.905347  
     240A      2.937237   241A      2.960780   242A      2.974697  
     243A      2.992727   244A      3.002420   245A      3.065851  
     246A      3.094127   247A      3.108388   248A      3.142828  
     249A      3.167318   250A      3.182673   251A      3.241727  
     252A      3.258291   253A      3.265605   254A      3.281572  
     255A      3.312160   256A      3.320043   257A      3.346351  
     258A      3.354194   259A      3.368028   260A      3.385395  
     261A      3.391833   262A      3.409121   263A      3.458811  
     264A      3.491711   265A      3.542759   266A      3.556287  
     267A      3.577933   268A      3.632192   269A      3.706887  
     270A      3.762157   271A      3.791962   272A      3.802382  
     273A      3.821695   274A      3.853341   275A      3.934864  
     276A      3.972568   277A      4.157297   278A      4.283283  
     279A      4.324940   280A      4.363931   281A      4.440650  
     282A      4.457552   283A      4.480231   284A      4.544275  
     285A      4.559345   286A      4.583251   287A      4.590817  
     288A      4.603279   289A      4.612789   290A      4.639501  
     291A      4.653970   292A      4.671442   293A      4.692400  
     294A      4.704118   295A      4.738838   296A      4.756537  
     297A      4.785107   298A      4.801405   299A      4.813433  
     300A      4.830715   301A      4.855429   302A      4.889806  
     303A      4.935938   304A      4.953149   305A      5.012658  
     306A      5.060671   307A      5.082377   308A      5.107052  
     309A      5.118329   310A      5.135634   311A      5.146680  
     312A      5.171224   313A      5.190787   314A      5.212686  
     315A      5.221382   316A      5.239349   317A      5.306665  
     318A      5.319717   319A      5.342223   320A      5.373270  
     321A      5.427192   322A      5.460941   323A      5.562060  
     324A      5.584033   325A      5.608832   326A      5.639624  
     327A      5.679201   328A      5.701122   329A      5.710779  
     330A      5.776290   331A      5.820072   332A      5.828028  
     333A      5.927226   334A      5.958599   335A      5.999886  
     336A      6.307085   337A      6.363038   338A      6.386881  
     339A      6.405116   340A      6.439527   341A      6.494328  
     342A      6.524201   343A      6.644374   344A      6.670767  
     345A      6.777443   346A      6.831892   347A      6.883872  
     348A      7.013720   349A      7.028617   350A      7.127979  
     351A      7.193883   352A      7.233476   353A      7.306093  
     354A      7.370456   355A      7.426216   356A      7.440374  
     357A      7.528131   358A      7.671663   359A      7.787022  
     360A      7.826686   361A      7.840921   362A      7.878655  
     363A      7.894301   364A      7.938227   365A      8.007299  
     366A      8.037040   367A      8.142953   368A      8.173888  
     369A      8.181772   370A      8.216310   371A      8.269271  
     372A      8.282946   373A      8.322093   374A      8.354563  
     375A      8.415917   376A      8.671585   377A      8.761214  
     378A      8.791070   379A      8.837285   380A      8.862380  
     381A      8.874030   382A      8.919502   383A      9.931287  
     384A      9.977711   385A     10.000243   386A     10.024790  
     387A     10.041935   388A     10.064177   389A     10.077332  
     390A     10.085273   391A     10.091751   392A     10.232342  
     393A     10.268772   394A     10.300779   395A     11.049449  
     396A     11.189265   397A     11.279802   398A     11.817289  
     399A     11.948215   400A     11.999339   401A     12.049017  
     402A     12.323521   403A     12.411073   404A     13.145104  
     405A     13.511590   406A     13.626793   407A     13.661586  
     408A     13.995081   409A     14.020081   410A     14.053651  
     411A     15.988227   412A     64.643636   413A     65.402416  
     414A     66.066881  

    Final Occupation by Irrep:
              A 
    DOCC [     5 ]
    NA   [     5 ]
    NB   [     5 ]

  @DF-RHF Final Energy:   -76.05823149725965

   => Energetics <=

    Nuclear Repulsion Energy =              9.0391776399050840
    One-Electron Energy =                -122.7608312746558852
    Two-Electron Energy =                  37.6634221374911320
    Total Energy =                        -76.0582314972596691

Computation Completed


Properties will be evaluated at   0.000000,   0.000000,   0.000000 [a0]

Properties computed using the SCF density matrix


 Multipole Moments:

 ------------------------------------------------------------------------------------
     Multipole            Electronic (a.u.)      Nuclear  (a.u.)        Total (a.u.)
 ------------------------------------------------------------------------------------

 L = 1.  Multiply by 2.5417464519 to convert [e a0] to [Debye]
 Dipole X            :         10.1263295          -10.5267515           -0.4004220
 Dipole Y            :          2.0406673           -2.6285977           -0.5879304
 Dipole Z            :         35.7896896          -36.1552569           -0.3655674
 Magnitude           :                                                    0.7997746

 ------------------------------------------------------------------------------------

*** tstop() called on ddmfs1 at Mon Jan 22 13:36:02 2024
Module time:
	user time   =      54.30 seconds =       0.90 minutes
	system time =       2.69 seconds =       0.04 minutes
	total time  =          4 seconds =       0.07 minutes
Total time:
	user time   =      54.30 seconds =       0.90 minutes
	system time =       2.69 seconds =       0.04 minutes
	total time  =          4 seconds =       0.07 minutes

*** tstart() called on ddmfs1
*** at Mon Jan 22 13:36:02 2024


  //>>>>>>>>>>>>>>>>>>>>>>>>>>>>>>>>>>>//
  //               DFMP2               //
  //<<<<<<<<<<<<<<<<<<<<<<<<<<<<<<<<<<<//

   => Loading Basis Set <=

    Name: (AUG-CC-PVTZ AUX)
    Role: RIFIT
    Keyword: DF_BASIS_MP2
    atoms 1                     entry LI         line    90 file /ddmfs1b/softs/psi4conda/share/psi4/basis/def2-qzvpp-ri.gbs 
    atoms 2, 5, 8, 11           entry O          line   264 file /ddmfs1b/softs/psi4conda/share/psi4/basis/aug-cc-pvtz-ri.gbs 
    atoms 3-4, 6-7, 9-10, 12-13 entry H          line    30 file /ddmfs1b/softs/psi4conda/share/psi4/basis/aug-cc-pvtz-ri.gbs 

	 --------------------------------------------------------
	                          DF-MP2                         
	      2nd-Order Density-Fitted Moller-Plesset Theory     
	              RMP2 Wavefunction,  20 Threads             
	                                                         
	        Rob Parrish, Justin Turney, Andy Simmonett,      
	           Ed Hohenstein, and C. David Sherrill          
	 --------------------------------------------------------

   => Auxiliary Basis Set <=

  Basis Set: (AUG-CC-PVTZ AUX)
    Blend: AUG-CC-PVTZ-RI + DEF2-QZVPP-RI
    Number of shells: 251
    Number of basis functions: 893
    Number of Cartesian functions: 1114
    Spherical Harmonics?: true
    Max angular momentum: 4

	 --------------------------------------------------------
	                 NBF =   414, NAUX =   893
	 --------------------------------------------------------
	   CLASS    FOCC     OCC    AOCC    AVIR     VIR    FVIR
	   PAIRS       0       5       5     409     409       0
	 --------------------------------------------------------

	-----------------------------------------------------------
	 ==================> DF-MP2 Energies <==================== 
	-----------------------------------------------------------
	 Reference Energy          =     -76.0582314972596549 [Eh]
	 Singles Energy            =      -0.0000000000000000 [Eh]
	 Same-Spin Energy          =      -0.0687864955948677 [Eh]
	 Opposite-Spin Energy      =      -0.2171249451104796 [Eh]
	 Correlation Energy        =      -0.2859114407053472 [Eh]
	 Total Energy              =     -76.3441429379650032 [Eh]
	-----------------------------------------------------------
	 ================> DF-SCS-MP2 Energies <================== 
	-----------------------------------------------------------
	 SCS Same-Spin Scale       =       0.3333333333333333 [-]
	 SCS Opposite-Spin Scale   =       1.2000000000000000 [-]
	 SCS Same-Spin Energy      =      -0.0229288318649559 [Eh]
	 SCS Opposite-Spin Energy  =      -0.2605499341325754 [Eh]
	 SCS Correlation Energy    =      -0.2834787659975313 [Eh]
	 SCS Total Energy          =     -76.3417102632571840 [Eh]
	-----------------------------------------------------------


*** tstop() called on ddmfs1 at Mon Jan 22 13:36:05 2024
Module time:
	user time   =      16.52 seconds =       0.28 minutes
	system time =       0.94 seconds =       0.02 minutes
	total time  =          3 seconds =       0.05 minutes
Total time:
	user time   =      70.83 seconds =       1.18 minutes
	system time =       3.63 seconds =       0.06 minutes
	total time  =          7 seconds =       0.12 minutes

    Psi4 stopped on: Monday, 22 January 2024 01:36PM
    Psi4 wall time for execution: 0:00:06.13

*** Psi4 exiting successfully. Buy a developer a beer!
