
    -----------------------------------------------------------------------
          Psi4: An Open-Source Ab Initio Electronic Structure Package
                               Psi4 1.8.2 release

                         Git: Rev {} zzzzzzz 


    D. G. A. Smith, L. A. Burns, A. C. Simmonett, R. M. Parrish,
    M. C. Schieber, R. Galvelis, P. Kraus, H. Kruse, R. Di Remigio,
    A. Alenaizan, A. M. James, S. Lehtola, J. P. Misiewicz, M. Scheurer,
    R. A. Shaw, J. B. Schriber, Y. Xie, Z. L. Glick, D. A. Sirianni,
    J. S. O'Brien, J. M. Waldrop, A. Kumar, E. G. Hohenstein,
    B. P. Pritchard, B. R. Brooks, H. F. Schaefer III, A. Yu. Sokolov,
    K. Patkowski, A. E. DePrince III, U. Bozkaya, R. A. King,
    F. A. Evangelista, J. M. Turney, T. D. Crawford, C. D. Sherrill,
    J. Chem. Phys. 152(18) 184108 (2020). https://doi.org/10.1063/5.0006002

                            Additional Code Authors
    E. T. Seidl, C. L. Janssen, E. F. Valeev, M. L. Leininger,
    J. F. Gonthier, R. M. Richard, H. R. McAlexander, M. Saitow, X. Wang,
    P. Verma, M. H. Lechner, A. Jiang, S. Behnle, A. G. Heide,
    M. F. Herbst, and D. L. Poole

             Previous Authors, Complete List of Code Contributors,
                       and Citations for Specific Modules
    https://github.com/psi4/psi4/blob/master/codemeta.json
    https://github.com/psi4/psi4/graphs/contributors
    http://psicode.org/psi4manual/master/introduction.html#citing-psifour

    -----------------------------------------------------------------------


    Psi4 started on: Monday, 22 January 2024 01:15PM

    Process ID: 56104
    Host:       ddmfs1
    PSIDATADIR: /ddmfs1b/softs/psi4conda/share/psi4
    Memory:     500.0 MiB
    Threads:    20
    
  ==> Input File <==

--------------------------------------------------------------------------
MEMORY 60 GB

molecule dimer {
1 1
Li         0.000000     0.000000     0.000000
Gh(O)      1.014907    -1.846591     0.065476
Gh(H)      0.268180    -2.329649    -0.359526
Gh(H)      1.399774    -2.433915     0.796256
Gh(O)      1.462449     1.073689     0.580959
Gh(H)      1.086336     1.782468     1.119353
Gh(H)      2.002930     0.547479     1.110363
Gh(O)     -0.252680     0.490401    -1.807295
Gh(H)      0.113651     0.060304    -2.550227
Gh(H)     -1.152599     0.460089    -2.081251
Gh(O)     -1.692409     0.463443     0.935552
Gh(H)     -2.421769     0.480840     0.338377
Gh(H)     -1.923923    -0.014474     1.749577

units ang
no_reorient
no_com
symmetry c1
}

set {
basis        aug-cc-pVTZ
scf_type     df
}

energy("mp2")
--------------------------------------------------------------------------

  Memory set to  55.879 GiB by Python driver.

Scratch directory: /ddmfs1a/scratch/
   => Libint2 <=

    Primary   basis highest AM E, G, H:  5, 4, 3
    Auxiliary basis highest AM E, G, H:  6, 5, 4
    Onebody   basis highest AM E, G, H:  6, 5, 4
    Solid Harmonics ordering:            gaussian

*** tstart() called on ddmfs1
*** at Mon Jan 22 13:15:23 2024

   => Loading Basis Set <=

    Name: AUG-CC-PVTZ
    Role: ORBITAL
    Keyword: BASIS
    atoms 1                     entry LI         line    85 file /ddmfs1b/softs/psi4conda/share/psi4/basis/aug-cc-pvtz.gbs 
    atoms 2, 5, 8, 11           entry O          line   331 file /ddmfs1b/softs/psi4conda/share/psi4/basis/aug-cc-pvtz.gbs 
    atoms 3-4, 6-7, 9-10, 12-13 entry H          line    40 file /ddmfs1b/softs/psi4conda/share/psi4/basis/aug-cc-pvtz.gbs 


         ---------------------------------------------------------
                                   SCF
               by Justin Turney, Rob Parrish, Andy Simmonett
                          and Daniel G. A. Smith
                              RHF Reference
                       20 Threads,  57220 MiB Core
         ---------------------------------------------------------

  ==> Geometry <==

    Molecular point group: c1
    Full point group: C1

    Geometry (in Angstrom), charge = 1, multiplicity = 1:

       Center              X                  Y                   Z               Mass       
    ------------   -----------------  -----------------  -----------------  -----------------
         LI           0.000000000000     0.000000000000     0.000000000000     7.016003436600
      Gh(O)           1.014907000000    -1.846591000000     0.065476000000    15.994914619570
      Gh(H)           0.268180000000    -2.329649000000    -0.359526000000     1.007825032230
      Gh(H)           1.399774000000    -2.433915000000     0.796256000000     1.007825032230
      Gh(O)           1.462449000000     1.073689000000     0.580959000000    15.994914619570
      Gh(H)           1.086336000000     1.782468000000     1.119353000000     1.007825032230
      Gh(H)           2.002930000000     0.547479000000     1.110363000000     1.007825032230
      Gh(O)          -0.252680000000     0.490401000000    -1.807295000000    15.994914619570
      Gh(H)           0.113651000000     0.060304000000    -2.550227000000     1.007825032230
      Gh(H)          -1.152599000000     0.460089000000    -2.081251000000     1.007825032230
      Gh(O)          -1.692409000000     0.463443000000     0.935552000000    15.994914619570
      Gh(H)          -2.421769000000     0.480840000000     0.338377000000     1.007825032230
      Gh(H)          -1.923923000000    -0.014474000000     1.749577000000     1.007825032230

  Running in c1 symmetry.

  Rotational constants: A =      0.09886  B =      0.07972  C =      0.07693 [cm^-1]
  Rotational constants: A =   2963.80791  B =   2389.95907  C =   2306.26109 [MHz]
  Nuclear repulsion =    0.000000000000000

  Charge       = 1
  Multiplicity = 1
  Electrons    = 2
  Nalpha       = 1
  Nbeta        = 1

  ==> Algorithm <==

  SCF Algorithm Type is DF.
  DIIS enabled.
  MOM disabled.
  Fractional occupation disabled.
  Guess Type is SAD.
  Energy threshold   = 1.00e-08
  Density threshold  = 1.00e-08
  Integral threshold = 1.00e-12

  ==> Primary Basis <==

  Basis Set: AUG-CC-PVTZ
    Blend: AUG-CC-PVTZ
    Number of shells: 142
    Number of basis functions: 414
    Number of Cartesian functions: 475
    Spherical Harmonics?: true
    Max angular momentum: 3

   => Loading Basis Set <=

    Name: (AUG-CC-PVTZ AUX)
    Role: JKFIT
    Keyword: DF_BASIS_SCF
    atoms 1                     entry LI         line    54 file /ddmfs1b/softs/psi4conda/share/psi4/basis/def2-universal-jkfit.gbs 
    atoms 2, 5, 8, 11           entry O          line   286 file /ddmfs1b/softs/psi4conda/share/psi4/basis/aug-cc-pvtz-jkfit.gbs 
    atoms 3-4, 6-7, 9-10, 12-13 entry H          line    70 file /ddmfs1b/softs/psi4conda/share/psi4/basis/aug-cc-pvtz-jkfit.gbs 

  ==> Integral Setup <==

  DFHelper Memory: AOs need 1.083 GiB; user supplied 41.910 GiB. 
  Using in-core AOs.

  ==> MemDFJK: Density-Fitted J/K Matrices <==

    J tasked:                   Yes
    K tasked:                   Yes
    wK tasked:                   No
    OpenMP threads:              20
    Memory [MiB]:             42915
    Algorithm:                 Core
    Schwarz Cutoff:           1E-12
    Mask sparsity (%):       4.5217
    Fitting Condition:        1E-10

   => Auxiliary Basis Set <=

  Basis Set: (AUG-CC-PVTZ AUX)
    Blend: AUG-CC-PVTZ-JKFIT + DEF2-UNIVERSAL-JKFIT
    Number of shells: 249
    Number of basis functions: 835
    Number of Cartesian functions: 1024
    Spherical Harmonics?: true
    Max angular momentum: 4

  Minimum eigenvalue in the overlap matrix is 1.9822478225E-05.
  Reciprocal condition number of the overlap matrix is 1.3757769070E-06.
    Using symmetric orthogonalization.

  ==> Pre-Iterations <==

  SCF Guess: Superposition of Atomic Densities via on-the-fly atomic UHF (no occupation information).

   -------------------------
    Irrep   Nso     Nmo    
   -------------------------
     A        414     414 
   -------------------------
    Total     414     414
   -------------------------

  ==> Iterations <==

                           Total Energy        Delta E     RMS |[F,P]|

   @DF-RHF iter SAD:    -7.31416294570997   -7.31416e+00   0.00000e+00 
   @DF-RHF iter   1:    -7.23638293837841    7.77800e-02   5.48697e-06 DIIS
   @DF-RHF iter   2:    -7.23638486242969   -1.92405e-06   6.70423e-07 DIIS
   @DF-RHF iter   3:    -7.23638489404367   -3.16140e-08   3.47291e-08 DIIS
   @DF-RHF iter   4:    -7.23638489410558   -6.19114e-11   2.16730e-10 DIIS
  Energy and wave function converged.


  ==> Post-Iterations <==

    Orbital Energies [Eh]
    ---------------------

    Doubly Occupied:                                                      

       1A     -2.792353  

    Virtual:                                                              

       2A     -0.196302     3A     -0.128603     4A     -0.128601  
       5A     -0.128600     6A     -0.073772     7A     -0.056394  
       8A     -0.056389     9A     -0.056388    10A     -0.051391  
      11A     -0.051187    12A     -0.050477    13A     -0.050192  
      14A     -0.038852    15A     -0.026378    16A     -0.009952  
      17A     -0.008965    18A     -0.008591    19A     -0.008319  
      20A     -0.006295    21A      0.001086    22A      0.012323  
      23A      0.014383    24A      0.018592    25A      0.019360  
      26A      0.023045    27A      0.036127    28A      0.040034  
      29A      0.043494    30A      0.058215    31A      0.062950  
      32A      0.075093    33A      0.088770    34A      0.092443  
      35A      0.096623    36A      0.100501    37A      0.106683  
      38A      0.115408    39A      0.119084    40A      0.139726  
      41A      0.144146    42A      0.150830    43A      0.156186  
      44A      0.159341    45A      0.163957    46A      0.166932  
      47A      0.175277    48A      0.180085    49A      0.184361  
      50A      0.189179    51A      0.203579    52A      0.213386  
      53A      0.216257    54A      0.224928    55A      0.229447  
      56A      0.233150    57A      0.240008    58A      0.251846  
      59A      0.256102    60A      0.264424    61A      0.269332  
      62A      0.276508    63A      0.281461    64A      0.288102  
      65A      0.288769    66A      0.300153    67A      0.302459  
      68A      0.313285    69A      0.316692    70A      0.322365  
      71A      0.333774    72A      0.340687    73A      0.343849  
      74A      0.354708    75A      0.358275    76A      0.360250  
      77A      0.367136    78A      0.369392    79A      0.381611  
      80A      0.388954    81A      0.397019    82A      0.401620  
      83A      0.406090    84A      0.418554    85A      0.428275  
      86A      0.442638    87A      0.456368    88A      0.465497  
      89A      0.472240    90A      0.515421    91A      0.537553  
      92A      0.557265    93A      0.567421    94A      0.571038  
      95A      0.585423    96A      0.587631    97A      0.594386  
      98A      0.605754    99A      0.630551   100A      0.639538  
     101A      0.648012   102A      0.653908   103A      0.661115  
     104A      0.673100   105A      0.679512   106A      0.685578  
     107A      0.696201   108A      0.703974   109A      0.710864  
     110A      0.712915   111A      0.724525   112A      0.728536  
     113A      0.743636   114A      0.756789   115A      0.764011  
     116A      0.782137   117A      0.785859   118A      0.804294  
     119A      0.813049   120A      0.820809   121A      0.823506  
     122A      0.831465   123A      0.836161   124A      0.847089  
     125A      0.853022   126A      0.864493   127A      0.874504  
     128A      0.876177   129A      0.878928   130A      0.890284  
     131A      0.899393   132A      0.915565   133A      0.923502  
     134A      0.930745   135A      0.942298   136A      0.947392  
     137A      0.965482   138A      0.969029   139A      0.974810  
     140A      0.979719   141A      0.988157   142A      0.990963  
     143A      1.001849   144A      1.012779   145A      1.037314  
     146A      1.043546   147A      1.063308   148A      1.068618  
     149A      1.081620   150A      1.087361   151A      1.098731  
     152A      1.106291   153A      1.113592   154A      1.117507  
     155A      1.133096   156A      1.137905   157A      1.151615  
     158A      1.165337   159A      1.177292   160A      1.193826  
     161A      1.200555   162A      1.215885   163A      1.220134  
     164A      1.232050   165A      1.243775   166A      1.267146  
     167A      1.285963   168A      1.303998   169A      1.308410  
     170A      1.325578   171A      1.328797   172A      1.345026  
     173A      1.357436   174A      1.373862   175A      1.388929  
     176A      1.410760   177A      1.430247   178A      1.465378  
     179A      1.473585   180A      1.516328   181A      1.536175  
     182A      1.550154   183A      1.563925   184A      1.581617  
     185A      1.620188   186A      1.645328   187A      1.667614  
     188A      1.674124   189A      1.685503   190A      1.698252  
     191A      1.716351   192A      1.720223   193A      1.739266  
     194A      1.749581   195A      1.758217   196A      1.781644  
     197A      1.786506   198A      1.798463   199A      1.815694  
     200A      1.827991   201A      1.843543   202A      1.855683  
     203A      1.858724   204A      1.870766   205A      1.894772  
     206A      1.902772   207A      1.916295   208A      1.968365  
     209A      2.029681   210A      2.167490   211A      2.198471  
     212A      2.226338   213A      2.267345   214A      2.272471  
     215A      2.290763   216A      2.303446   217A      2.332638  
     218A      2.340576   219A      2.360640   220A      2.401274  
     221A      2.406565   222A      2.414418   223A      2.424515  
     224A      2.434612   225A      2.455463   226A      2.472916  
     227A      2.477235   228A      2.524399   229A      2.536987  
     230A      2.574038   231A      2.579071   232A      2.601864  
     233A      2.644938   234A      2.670907   235A      2.680280  
     236A      2.710625   237A      2.716686   238A      2.753268  
     239A      2.758951   240A      2.776962   241A      2.801685  
     242A      2.851401   243A      2.882590   244A      2.903469  
     245A      2.917246   246A      2.962047   247A      3.011859  
     248A      3.014132   249A      3.042819   250A      3.051060  
     251A      3.056938   252A      3.077418   253A      3.094359  
     254A      3.101126   255A      3.111343   256A      3.122038  
     257A      3.140140   258A      3.158094   259A      3.179450  
     260A      3.189145   261A      3.221993   262A      3.248266  
     263A      3.253230   264A      3.309794   265A      3.330827  
     266A      3.415863   267A      3.450361   268A      3.473107  
     269A      3.501996   270A      3.532837   271A      3.553744  
     272A      3.583737   273A      3.615032   274A      4.156041  
     275A      4.177933   276A      4.253962   277A      4.258594  
     278A      4.321747   279A      4.338911   280A      4.351092  
     281A      4.375040   282A      4.386825   283A      4.424924  
     284A      4.432327   285A      4.454104   286A      4.477094  
     287A      4.487810   288A      4.540085   289A      4.552086  
     290A      4.559515   291A      4.574447   292A      4.583616  
     293A      4.633207   294A      4.643623   295A      4.680466  
     296A      4.697988   297A      4.714329   298A      4.755564  
     299A      4.823284   300A      4.836603   301A      4.847692  
     302A      4.864131   303A      4.870169   304A      4.897306  
     305A      4.919338   306A      4.936345   307A      4.949115  
     308A      4.964069   309A      5.020351   310A      5.035029  
     311A      5.063546   312A      5.085793   313A      5.111178  
     314A      5.185790   315A      5.215642   316A      5.318955  
     317A      5.358547   318A      5.375270   319A      5.424352  
     320A      5.438645   321A      5.465252   322A      5.542231  
     323A      5.548846   324A      5.565939   325A      5.611196  
     326A      5.642820   327A      5.662155   328A      5.685429  
     329A      5.756773   330A      5.877456   331A      6.035231  
     332A      6.054816   333A      6.116957   334A      6.162811  
     335A      6.200422   336A      6.211373   337A      6.248666  
     338A      6.351479   339A      6.479831   340A      6.614194  
     341A      6.645877   342A      6.658192   343A      6.722995  
     344A      6.920136   345A      6.974630   346A      7.020910  
     347A      7.497404   348A      7.507526   349A      7.526730  
     350A      7.548288   351A      7.576559   352A      7.607347  
     353A      7.628251   354A      7.763942   355A      7.827042  
     356A      7.892377   357A      7.917835   358A      7.922053  
     359A      7.939113   360A      7.963814   361A      7.995076  
     362A      8.051634   363A      8.076193   364A      8.088001  
     365A      8.134562   366A      8.191839   367A      8.425648  
     368A      8.452596   369A      8.582910   370A      8.619843  
     371A      8.657611   372A      8.669562   373A      8.757338  
     374A      8.798089   375A      9.585606   376A      9.628400  
     377A      9.677744   378A      9.690427   379A      9.741356  
     380A      9.756601   381A      9.771791   382A      9.789447  
     383A      9.792042   384A      9.812535   385A      9.827361  
     386A      9.832375   387A      9.945664   388A      9.963270  
     389A      9.975101   390A     10.033835   391A     10.736343  
     392A     10.941355   393A     11.020370   394A     11.235977  
     395A     11.542408   396A     11.605368   397A     11.636830  
     398A     11.674766   399A     11.744963   400A     12.132329  
     401A     12.289017   402A     12.333842   403A     13.167306  
     404A     13.404577   405A     13.560642   406A     13.624877  
     407A     13.654646   408A     13.730633   409A     13.740281  
     410A     13.797110   411A     63.643103   412A     65.750357  
     413A     66.657323   414A     66.948983  

    Final Occupation by Irrep:
              A 
    DOCC [     1 ]
    NA   [     1 ]
    NB   [     1 ]

  @DF-RHF Final Energy:    -7.23638489410558

   => Energetics <=

    Nuclear Repulsion Energy =              0.0000000000000000
    One-Electron Energy =                  -8.8880647613857260
    Two-Electron Energy =                   1.6516798672801429
    Total Energy =                         -7.2363848941055835

Computation Completed


Properties will be evaluated at   0.000000,   0.000000,   0.000000 [a0]

Properties computed using the SCF density matrix


 Multipole Moments:

 ------------------------------------------------------------------------------------
     Multipole            Electronic (a.u.)      Nuclear  (a.u.)        Total (a.u.)
 ------------------------------------------------------------------------------------

 L = 1.  Multiply by 2.5417464519 to convert [e a0] to [Debye]
 Dipole X            :         -0.0000011            0.0000000           -0.0000011
 Dipole Y            :         -0.0000085            0.0000000           -0.0000085
 Dipole Z            :          0.0000017            0.0000000            0.0000017
 Magnitude           :                                                    0.0000087

 ------------------------------------------------------------------------------------

*** tstop() called on ddmfs1 at Mon Jan 22 13:15:25 2024
Module time:
	user time   =      40.40 seconds =       0.67 minutes
	system time =       2.42 seconds =       0.04 minutes
	total time  =          2 seconds =       0.03 minutes
Total time:
	user time   =      40.40 seconds =       0.67 minutes
	system time =       2.42 seconds =       0.04 minutes
	total time  =          2 seconds =       0.03 minutes

*** tstart() called on ddmfs1
*** at Mon Jan 22 13:15:25 2024


  //>>>>>>>>>>>>>>>>>>>>>>>>>>>>>>>>>>>//
  //               DFMP2               //
  //<<<<<<<<<<<<<<<<<<<<<<<<<<<<<<<<<<<//

   => Loading Basis Set <=

    Name: (AUG-CC-PVTZ AUX)
    Role: RIFIT
    Keyword: DF_BASIS_MP2
    atoms 1                     entry LI         line    90 file /ddmfs1b/softs/psi4conda/share/psi4/basis/def2-qzvpp-ri.gbs 
    atoms 2, 5, 8, 11           entry O          line   264 file /ddmfs1b/softs/psi4conda/share/psi4/basis/aug-cc-pvtz-ri.gbs 
    atoms 3-4, 6-7, 9-10, 12-13 entry H          line    30 file /ddmfs1b/softs/psi4conda/share/psi4/basis/aug-cc-pvtz-ri.gbs 

	 --------------------------------------------------------
	                          DF-MP2                         
	      2nd-Order Density-Fitted Moller-Plesset Theory     
	              RMP2 Wavefunction,  20 Threads             
	                                                         
	        Rob Parrish, Justin Turney, Andy Simmonett,      
	           Ed Hohenstein, and C. David Sherrill          
	 --------------------------------------------------------

   => Auxiliary Basis Set <=

  Basis Set: (AUG-CC-PVTZ AUX)
    Blend: AUG-CC-PVTZ-RI + DEF2-QZVPP-RI
    Number of shells: 251
    Number of basis functions: 893
    Number of Cartesian functions: 1114
    Spherical Harmonics?: true
    Max angular momentum: 4

	 --------------------------------------------------------
	                 NBF =   414, NAUX =   893
	 --------------------------------------------------------
	   CLASS    FOCC     OCC    AOCC    AVIR     VIR    FVIR
	   PAIRS       0       1       1     413     413       0
	 --------------------------------------------------------

	-----------------------------------------------------------
	 ==================> DF-MP2 Energies <==================== 
	-----------------------------------------------------------
	 Reference Energy          =      -7.2363848941055835 [Eh]
	 Singles Energy            =      -0.0000000000000000 [Eh]
	 Same-Spin Energy          =       0.0000000000000000 [Eh]
	 Opposite-Spin Energy      =      -0.0169378448980970 [Eh]
	 Correlation Energy        =      -0.0169378448980970 [Eh]
	 Total Energy              =      -7.2533227390036803 [Eh]
	-----------------------------------------------------------
	 ================> DF-SCS-MP2 Energies <================== 
	-----------------------------------------------------------
	 SCS Same-Spin Scale       =       0.3333333333333333 [-]
	 SCS Opposite-Spin Scale   =       1.2000000000000000 [-]
	 SCS Same-Spin Energy      =       0.0000000000000000 [Eh]
	 SCS Opposite-Spin Energy  =      -0.0203254138777163 [Eh]
	 SCS Correlation Energy    =      -0.0203254138777163 [Eh]
	 SCS Total Energy          =      -7.2567103079833002 [Eh]
	-----------------------------------------------------------


*** tstop() called on ddmfs1 at Mon Jan 22 13:15:28 2024
Module time:
	user time   =      15.59 seconds =       0.26 minutes
	system time =       0.86 seconds =       0.01 minutes
	total time  =          3 seconds =       0.05 minutes
Total time:
	user time   =      56.00 seconds =       0.93 minutes
	system time =       3.28 seconds =       0.05 minutes
	total time  =          5 seconds =       0.08 minutes

    Psi4 stopped on: Monday, 22 January 2024 01:15PM
    Psi4 wall time for execution: 0:00:05.33

*** Psi4 exiting successfully. Buy a developer a beer!
