
    -----------------------------------------------------------------------
          Psi4: An Open-Source Ab Initio Electronic Structure Package
                               Psi4 1.8.2 release

                         Git: Rev {} zzzzzzz 


    D. G. A. Smith, L. A. Burns, A. C. Simmonett, R. M. Parrish,
    M. C. Schieber, R. Galvelis, P. Kraus, H. Kruse, R. Di Remigio,
    A. Alenaizan, A. M. James, S. Lehtola, J. P. Misiewicz, M. Scheurer,
    R. A. Shaw, J. B. Schriber, Y. Xie, Z. L. Glick, D. A. Sirianni,
    J. S. O'Brien, J. M. Waldrop, A. Kumar, E. G. Hohenstein,
    B. P. Pritchard, B. R. Brooks, H. F. Schaefer III, A. Yu. Sokolov,
    K. Patkowski, A. E. DePrince III, U. Bozkaya, R. A. King,
    F. A. Evangelista, J. M. Turney, T. D. Crawford, C. D. Sherrill,
    J. Chem. Phys. 152(18) 184108 (2020). https://doi.org/10.1063/5.0006002

                            Additional Code Authors
    E. T. Seidl, C. L. Janssen, E. F. Valeev, M. L. Leininger,
    J. F. Gonthier, R. M. Richard, H. R. McAlexander, M. Saitow, X. Wang,
    P. Verma, M. H. Lechner, A. Jiang, S. Behnle, A. G. Heide,
    M. F. Herbst, and D. L. Poole

             Previous Authors, Complete List of Code Contributors,
                       and Citations for Specific Modules
    https://github.com/psi4/psi4/blob/master/codemeta.json
    https://github.com/psi4/psi4/graphs/contributors
    http://psicode.org/psi4manual/master/introduction.html#citing-psifour

    -----------------------------------------------------------------------


    Psi4 started on: Monday, 22 January 2024 01:40PM

    Process ID: 60957
    Host:       ddmfs1
    PSIDATADIR: /ddmfs1b/softs/psi4conda/share/psi4
    Memory:     500.0 MiB
    Threads:    20
    
  ==> Input File <==

--------------------------------------------------------------------------
MEMORY 60 GB

molecule dimer {
0 1
Gh(Li)     0.000000     0.000000     0.000000
O          0.893831    -0.282893     1.641377
H          0.718451     0.374103     2.337286
H          1.825254    -0.373815     1.492424
Gh(O)      1.120839     1.073113    -0.996718
Gh(H)      1.303960     0.761379    -1.868653
Gh(H)      0.652772     1.948855    -1.098737
Gh(O)     -1.672896     0.785810     0.484622
Gh(H)     -2.287744     0.750544    -0.303037
Gh(H)     -1.709276     1.657872     0.942048

units ang
no_reorient
no_com
symmetry c1
}

set {
basis        aug-cc-pVTZ
scf_type     df
}

energy("mp2")
--------------------------------------------------------------------------

  Memory set to  55.879 GiB by Python driver.

Scratch directory: /ddmfs1a/scratch/
   => Libint2 <=

    Primary   basis highest AM E, G, H:  5, 4, 3
    Auxiliary basis highest AM E, G, H:  6, 5, 4
    Onebody   basis highest AM E, G, H:  6, 5, 4
    Solid Harmonics ordering:            gaussian

*** tstart() called on ddmfs1
*** at Mon Jan 22 13:40:20 2024

   => Loading Basis Set <=

    Name: AUG-CC-PVTZ
    Role: ORBITAL
    Keyword: BASIS
    atoms 1              entry LI         line    85 file /ddmfs1b/softs/psi4conda/share/psi4/basis/aug-cc-pvtz.gbs 
    atoms 2, 5, 8        entry O          line   331 file /ddmfs1b/softs/psi4conda/share/psi4/basis/aug-cc-pvtz.gbs 
    atoms 3-4, 6-7, 9-10 entry H          line    40 file /ddmfs1b/softs/psi4conda/share/psi4/basis/aug-cc-pvtz.gbs 


         ---------------------------------------------------------
                                   SCF
               by Justin Turney, Rob Parrish, Andy Simmonett
                          and Daniel G. A. Smith
                              RHF Reference
                       20 Threads,  57220 MiB Core
         ---------------------------------------------------------

  ==> Geometry <==

    Molecular point group: c1
    Full point group: C1

    Geometry (in Angstrom), charge = 0, multiplicity = 1:

       Center              X                  Y                   Z               Mass       
    ------------   -----------------  -----------------  -----------------  -----------------
      Gh(LI)          0.000000000000     0.000000000000     0.000000000000     7.016003436600
         O            0.893831000000    -0.282893000000     1.641377000000    15.994914619570
         H            0.718451000000     0.374103000000     2.337286000000     1.007825032230
         H            1.825254000000    -0.373815000000     1.492424000000     1.007825032230
      Gh(O)           1.120839000000     1.073113000000    -0.996718000000    15.994914619570
      Gh(H)           1.303960000000     0.761379000000    -1.868653000000     1.007825032230
      Gh(H)           0.652772000000     1.948855000000    -1.098737000000     1.007825032230
      Gh(O)          -1.672896000000     0.785810000000     0.484622000000    15.994914619570
      Gh(H)          -2.287744000000     0.750544000000    -0.303037000000     1.007825032230
      Gh(H)          -1.709276000000     1.657872000000     0.942048000000     1.007825032230

  Running in c1 symmetry.

  Rotational constants: A =      0.15172  B =      0.13854  C =      0.09439 [cm^-1]
  Rotational constants: A =   4548.46132  B =   4153.30730  C =   2829.65401 [MHz]
  Nuclear repulsion =    9.153155188740637

  Charge       = 0
  Multiplicity = 1
  Electrons    = 10
  Nalpha       = 5
  Nbeta        = 5

  ==> Algorithm <==

  SCF Algorithm Type is DF.
  DIIS enabled.
  MOM disabled.
  Fractional occupation disabled.
  Guess Type is SAD.
  Energy threshold   = 1.00e-08
  Density threshold  = 1.00e-08
  Integral threshold = 1.00e-12

  ==> Primary Basis <==

  Basis Set: AUG-CC-PVTZ
    Blend: AUG-CC-PVTZ
    Number of shells: 110
    Number of basis functions: 322
    Number of Cartesian functions: 370
    Spherical Harmonics?: true
    Max angular momentum: 3

   => Loading Basis Set <=

    Name: (AUG-CC-PVTZ AUX)
    Role: JKFIT
    Keyword: DF_BASIS_SCF
    atoms 1              entry LI         line    54 file /ddmfs1b/softs/psi4conda/share/psi4/basis/def2-universal-jkfit.gbs 
    atoms 2, 5, 8        entry O          line   286 file /ddmfs1b/softs/psi4conda/share/psi4/basis/aug-cc-pvtz-jkfit.gbs 
    atoms 3-4, 6-7, 9-10 entry H          line    70 file /ddmfs1b/softs/psi4conda/share/psi4/basis/aug-cc-pvtz-jkfit.gbs 

  ==> Integral Setup <==

  DFHelper Memory: AOs need 0.520 GiB; user supplied 41.910 GiB. 
  Using in-core AOs.

  ==> MemDFJK: Density-Fitted J/K Matrices <==

    J tasked:                   Yes
    K tasked:                   Yes
    wK tasked:                   No
    OpenMP threads:              20
    Memory [MiB]:             42915
    Algorithm:                 Core
    Schwarz Cutoff:           1E-12
    Mask sparsity (%):       2.6407
    Fitting Condition:        1E-10

   => Auxiliary Basis Set <=

  Basis Set: (AUG-CC-PVTZ AUX)
    Blend: AUG-CC-PVTZ-JKFIT + DEF2-UNIVERSAL-JKFIT
    Number of shells: 191
    Number of basis functions: 639
    Number of Cartesian functions: 783
    Spherical Harmonics?: true
    Max angular momentum: 4

  Minimum eigenvalue in the overlap matrix is 2.5220507883E-05.
  Reciprocal condition number of the overlap matrix is 1.9388798715E-06.
    Using symmetric orthogonalization.

  ==> Pre-Iterations <==

  SCF Guess: Superposition of Atomic Densities via on-the-fly atomic UHF (no occupation information).

   -------------------------
    Irrep   Nso     Nmo    
   -------------------------
     A        322     322 
   -------------------------
    Total     322     322
   -------------------------

  ==> Iterations <==

                           Total Energy        Delta E     RMS |[F,P]|

   @DF-RHF iter SAD:   -75.46840336261948   -7.54684e+01   0.00000e+00 
   @DF-RHF iter   1:   -75.97572108579632   -5.07318e-01   1.45550e-03 ADIIS/DIIS
   @DF-RHF iter   2:   -76.02800452149761   -5.22834e-02   9.87667e-04 ADIIS/DIIS
   @DF-RHF iter   3:   -76.05912858399755   -3.11241e-02   6.72173e-05 DIIS
   @DF-RHF iter   4:   -76.05952654897767   -3.97965e-04   1.61846e-05 DIIS
   @DF-RHF iter   5:   -76.05955153993527   -2.49910e-05   3.67808e-06 DIIS
   @DF-RHF iter   6:   -76.05955362847993   -2.08854e-06   8.30610e-07 DIIS
   @DF-RHF iter   7:   -76.05955374706083   -1.18581e-07   1.59434e-07 DIIS
   @DF-RHF iter   8:   -76.05955375092812   -3.86729e-09   2.62027e-08 DIIS
   @DF-RHF iter   9:   -76.05955375101102   -8.29061e-11   6.58905e-09 DIIS
  Energy and wave function converged.


  ==> Post-Iterations <==

    Orbital Energies [Eh]
    ---------------------

    Doubly Occupied:                                                      

       1A    -20.564630     2A     -1.347712     3A     -0.727630  
       4A     -0.572123     5A     -0.508197  

    Virtual:                                                              

       6A      0.008566     7A      0.018184     8A      0.018318  
       9A      0.020081    10A      0.044145    11A      0.056540  
      12A      0.059057    13A      0.060680    14A      0.066022  
      15A      0.066672    16A      0.070260    17A      0.073115  
      18A      0.084926    19A      0.099020    20A      0.127015  
      21A      0.145691    22A      0.153988    23A      0.157284  
      24A      0.160110    25A      0.164415    26A      0.166282  
      27A      0.170731    28A      0.176561    29A      0.183217  
      30A      0.189883    31A      0.193066    32A      0.195173  
      33A      0.218323    34A      0.222854    35A      0.240848  
      36A      0.244911    37A      0.253521    38A      0.288022  
      39A      0.294681    40A      0.317425    41A      0.328467  
      42A      0.333270    43A      0.334987    44A      0.339055  
      45A      0.350752    46A      0.354664    47A      0.362468  
      48A      0.373572    49A      0.379558    50A      0.383481  
      51A      0.394028    52A      0.396533    53A      0.405764  
      54A      0.414229    55A      0.415973    56A      0.424604  
      57A      0.429339    58A      0.435342    59A      0.441870  
      60A      0.448647    61A      0.451907    62A      0.458508  
      63A      0.466718    64A      0.473334    65A      0.476391  
      66A      0.481520    67A      0.487205    68A      0.499104  
      69A      0.506881    70A      0.520705    71A      0.534990  
      72A      0.554003    73A      0.560632    74A      0.583821  
      75A      0.587684    76A      0.602818    77A      0.660655  
      78A      0.692513    79A      0.718166    80A      0.741581  
      81A      0.759597    82A      0.787724    83A      0.793039  
      84A      0.810163    85A      0.819859    86A      0.828446  
      87A      0.831013    88A      0.838504    89A      0.848403  
      90A      0.852717    91A      0.867790    92A      0.869486  
      93A      0.882176    94A      0.899072    95A      0.908523  
      96A      0.918509    97A      0.939009    98A      0.944367  
      99A      0.953341   100A      0.960359   101A      0.977898  
     102A      0.985162   103A      0.988482   104A      0.988706  
     105A      1.005353   106A      1.013411   107A      1.017631  
     108A      1.032821   109A      1.039357   110A      1.061995  
     111A      1.070697   112A      1.077805   113A      1.094980  
     114A      1.097964   115A      1.108265   116A      1.121148  
     117A      1.123210   118A      1.140279   119A      1.151387  
     120A      1.157609   121A      1.171145   122A      1.180530  
     123A      1.198520   124A      1.209328   125A      1.211098  
     126A      1.229577   127A      1.251599   128A      1.257875  
     129A      1.275727   130A      1.286877   131A      1.307329  
     132A      1.314737   133A      1.322445   134A      1.347002  
     135A      1.358936   136A      1.388312   137A      1.408126  
     138A      1.415356   139A      1.430154   140A      1.462788  
     141A      1.467884   142A      1.490376   143A      1.515894  
     144A      1.542269   145A      1.566954   146A      1.595012  
     147A      1.622513   148A      1.676457   149A      1.707006  
     150A      1.721031   151A      1.744841   152A      1.749853  
     153A      1.789171   154A      1.824598   155A      1.842274  
     156A      1.853273   157A      1.869381   158A      1.887603  
     159A      1.907703   160A      1.958661   161A      1.961594  
     162A      1.981605   163A      1.994371   164A      2.022991  
     165A      2.031230   166A      2.061757   167A      2.094118  
     168A      2.126521   169A      2.142509   170A      2.167231  
     171A      2.251974   172A      2.378687   173A      2.395662  
     174A      2.431868   175A      2.435387   176A      2.472885  
     177A      2.524953   178A      2.529057   179A      2.568972  
     180A      2.583033   181A      2.611132   182A      2.653462  
     183A      2.666319   184A      2.681123   185A      2.714041  
     186A      2.727758   187A      2.760995   188A      2.781153  
     189A      2.797058   190A      2.834167   191A      2.841457  
     192A      2.870704   193A      2.880828   194A      2.914887  
     195A      2.925908   196A      2.982889   197A      2.988989  
     198A      3.024492   199A      3.034267   200A      3.104330  
     201A      3.120833   202A      3.198184   203A      3.224100  
     204A      3.256872   205A      3.282336   206A      3.292297  
     207A      3.313050   208A      3.342856   209A      3.371449  
     210A      3.412634   211A      3.435376   212A      3.491371  
     213A      3.527055   214A      3.686704   215A      3.731264  
     216A      3.754111   217A      3.810016   218A      3.903690  
     219A      3.962726   220A      4.137578   221A      4.269215  
     222A      4.326811   223A      4.370962   224A      4.415748  
     225A      4.445615   226A      4.487938   227A      4.544907  
     228A      4.550890   229A      4.577373   230A      4.606161  
     231A      4.630604   232A      4.634617   233A      4.655787  
     234A      4.695222   235A      4.726973   236A      4.742851  
     237A      4.755497   238A      4.778065   239A      4.810053  
     240A      4.843822   241A      4.852696   242A      4.877046  
     243A      5.023271   244A      5.055536   245A      5.099464  
     246A      5.154287   247A      5.168871   248A      5.192551  
     249A      5.206118   250A      5.227401   251A      5.282199  
     252A      5.286414   253A      5.400281   254A      5.416187  
     255A      5.465986   256A      5.517000   257A      5.518973  
     258A      5.582484   259A      5.610361   260A      5.707278  
     261A      5.761825   262A      5.807482   263A      5.886235  
     264A      5.905784   265A      6.237062   266A      6.268987  
     267A      6.323974   268A      6.362953   269A      6.452013  
     270A      6.649886   271A      6.717683   272A      6.786744  
     273A      6.872711   274A      6.925950   275A      6.985273  
     276A      7.117994   277A      7.232245   278A      7.345446  
     279A      7.389788   280A      7.429068   281A      7.440831  
     282A      7.483625   283A      7.677962   284A      7.783848  
     285A      7.812851   286A      7.861130   287A      7.879748  
     288A      7.948324   289A      8.040753   290A      8.133180  
     291A      8.152823   292A      8.230885   293A      8.242976  
     294A      8.283302   295A      8.333850   296A      8.669577  
     297A      8.676101   298A      8.753948   299A      8.828558  
     300A      8.876085   301A      9.908345   302A      9.940015  
     303A      9.970647   304A     10.013519   305A     10.056482  
     306A     10.075359   307A     10.187421   308A     10.249860  
     309A     10.979838   310A     11.117386   311A     11.746944  
     312A     11.853797   313A     12.041861   314A     12.248329  
     315A     12.445373   316A     13.413490   317A     13.550572  
     318A     13.994803   319A     14.001155   320A     16.337604  
     321A     64.010043   322A     65.081873  

    Final Occupation by Irrep:
              A 
    DOCC [     5 ]
    NA   [     5 ]
    NB   [     5 ]

  @DF-RHF Final Energy:   -76.05955375101102

   => Energetics <=

    Nuclear Repulsion Energy =              9.1531551887406373
    One-Electron Energy =                -122.9848297853828001
    Two-Electron Energy =                  37.7721208456311430
    Total Energy =                        -76.0595537510110091

Computation Completed


Properties will be evaluated at   0.000000,   0.000000,   0.000000 [a0]

Properties computed using the SCF density matrix


 Multipole Moments:

 ------------------------------------------------------------------------------------
     Multipole            Electronic (a.u.)      Nuclear  (a.u.)        Total (a.u.)
 ------------------------------------------------------------------------------------

 L = 1.  Multiply by 2.5417464519 to convert [e a0] to [Debye]
 Dipole X            :        -17.8054512           18.3196721            0.5142210
 Dipole Y            :          4.6574424           -4.2761781            0.3812643
 Dipole Z            :        -31.6826414           32.0511270            0.3684856
 Magnitude           :                                                    0.7386253

 ------------------------------------------------------------------------------------

*** tstop() called on ddmfs1 at Mon Jan 22 13:40:22 2024
Module time:
	user time   =      31.46 seconds =       0.52 minutes
	system time =       1.59 seconds =       0.03 minutes
	total time  =          2 seconds =       0.03 minutes
Total time:
	user time   =      31.46 seconds =       0.52 minutes
	system time =       1.59 seconds =       0.03 minutes
	total time  =          2 seconds =       0.03 minutes

*** tstart() called on ddmfs1
*** at Mon Jan 22 13:40:22 2024


  //>>>>>>>>>>>>>>>>>>>>>>>>>>>>>>>>>>>//
  //               DFMP2               //
  //<<<<<<<<<<<<<<<<<<<<<<<<<<<<<<<<<<<//

   => Loading Basis Set <=

    Name: (AUG-CC-PVTZ AUX)
    Role: RIFIT
    Keyword: DF_BASIS_MP2
    atoms 1              entry LI         line    90 file /ddmfs1b/softs/psi4conda/share/psi4/basis/def2-qzvpp-ri.gbs 
    atoms 2, 5, 8        entry O          line   264 file /ddmfs1b/softs/psi4conda/share/psi4/basis/aug-cc-pvtz-ri.gbs 
    atoms 3-4, 6-7, 9-10 entry H          line    30 file /ddmfs1b/softs/psi4conda/share/psi4/basis/aug-cc-pvtz-ri.gbs 

	 --------------------------------------------------------
	                          DF-MP2                         
	      2nd-Order Density-Fitted Moller-Plesset Theory     
	              RMP2 Wavefunction,  20 Threads             
	                                                         
	        Rob Parrish, Justin Turney, Andy Simmonett,      
	           Ed Hohenstein, and C. David Sherrill          
	 --------------------------------------------------------

   => Auxiliary Basis Set <=

  Basis Set: (AUG-CC-PVTZ AUX)
    Blend: AUG-CC-PVTZ-RI + DEF2-QZVPP-RI
    Number of shells: 195
    Number of basis functions: 695
    Number of Cartesian functions: 868
    Spherical Harmonics?: true
    Max angular momentum: 4

	 --------------------------------------------------------
	                 NBF =   322, NAUX =   695
	 --------------------------------------------------------
	   CLASS    FOCC     OCC    AOCC    AVIR     VIR    FVIR
	   PAIRS       0       5       5     317     317       0
	 --------------------------------------------------------

	-----------------------------------------------------------
	 ==================> DF-MP2 Energies <==================== 
	-----------------------------------------------------------
	 Reference Energy          =     -76.0595537510110233 [Eh]
	 Singles Energy            =      -0.0000000000000000 [Eh]
	 Same-Spin Energy          =      -0.0683952349429566 [Eh]
	 Opposite-Spin Energy      =      -0.2157811608944066 [Eh]
	 Correlation Energy        =      -0.2841763958373633 [Eh]
	 Total Energy              =     -76.3437301468483867 [Eh]
	-----------------------------------------------------------
	 ================> DF-SCS-MP2 Energies <================== 
	-----------------------------------------------------------
	 SCS Same-Spin Scale       =       0.3333333333333333 [-]
	 SCS Opposite-Spin Scale   =       1.2000000000000000 [-]
	 SCS Same-Spin Energy      =      -0.0227984116476522 [Eh]
	 SCS Opposite-Spin Energy  =      -0.2589373930732879 [Eh]
	 SCS Correlation Energy    =      -0.2817358047209402 [Eh]
	 SCS Total Energy          =     -76.3412895557319615 [Eh]
	-----------------------------------------------------------


*** tstop() called on ddmfs1 at Mon Jan 22 13:40:24 2024
Module time:
	user time   =      10.93 seconds =       0.18 minutes
	system time =       0.57 seconds =       0.01 minutes
	total time  =          2 seconds =       0.03 minutes
Total time:
	user time   =      42.41 seconds =       0.71 minutes
	system time =       2.16 seconds =       0.04 minutes
	total time  =          4 seconds =       0.07 minutes

    Psi4 stopped on: Monday, 22 January 2024 01:40PM
    Psi4 wall time for execution: 0:00:03.76

*** Psi4 exiting successfully. Buy a developer a beer!
