
    -----------------------------------------------------------------------
          Psi4: An Open-Source Ab Initio Electronic Structure Package
                               Psi4 1.8.2 release

                         Git: Rev {} zzzzzzz 


    D. G. A. Smith, L. A. Burns, A. C. Simmonett, R. M. Parrish,
    M. C. Schieber, R. Galvelis, P. Kraus, H. Kruse, R. Di Remigio,
    A. Alenaizan, A. M. James, S. Lehtola, J. P. Misiewicz, M. Scheurer,
    R. A. Shaw, J. B. Schriber, Y. Xie, Z. L. Glick, D. A. Sirianni,
    J. S. O'Brien, J. M. Waldrop, A. Kumar, E. G. Hohenstein,
    B. P. Pritchard, B. R. Brooks, H. F. Schaefer III, A. Yu. Sokolov,
    K. Patkowski, A. E. DePrince III, U. Bozkaya, R. A. King,
    F. A. Evangelista, J. M. Turney, T. D. Crawford, C. D. Sherrill,
    J. Chem. Phys. 152(18) 184108 (2020). https://doi.org/10.1063/5.0006002

                            Additional Code Authors
    E. T. Seidl, C. L. Janssen, E. F. Valeev, M. L. Leininger,
    J. F. Gonthier, R. M. Richard, H. R. McAlexander, M. Saitow, X. Wang,
    P. Verma, M. H. Lechner, A. Jiang, S. Behnle, A. G. Heide,
    M. F. Herbst, and D. L. Poole

             Previous Authors, Complete List of Code Contributors,
                       and Citations for Specific Modules
    https://github.com/psi4/psi4/blob/master/codemeta.json
    https://github.com/psi4/psi4/graphs/contributors
    http://psicode.org/psi4manual/master/introduction.html#citing-psifour

    -----------------------------------------------------------------------


    Psi4 started on: Monday, 22 January 2024 01:53PM

    Process ID: 63632
    Host:       ddmfs1
    PSIDATADIR: /ddmfs1b/softs/psi4conda/share/psi4
    Memory:     500.0 MiB
    Threads:    20
    
  ==> Input File <==

--------------------------------------------------------------------------
MEMORY 60 GB

molecule dimer {
1 1
Li         0.000000     0.000000     0.000000
O         -0.266443     1.938313    -0.248340
H         -0.088316     2.610611    -0.926278
H         -0.885622     2.402495     0.339436
O         -1.305581    -1.041945    -1.192735
H         -1.614892    -1.898100    -0.899961
H         -0.845776    -1.154356    -2.000716
O          2.066109    -0.498860    -0.290542
H          2.623530    -0.650184     0.499648
H          2.518418    -0.862145    -1.036711
O         -0.099893    -0.786188     1.651962
H          0.363831    -1.589227     1.918952
H         -1.018921    -0.908196     1.943922

units ang
no_reorient
no_com
symmetry c1
}

set {
basis        aug-cc-pVTZ
scf_type     df
}

energy("mp2")
--------------------------------------------------------------------------

  Memory set to  55.879 GiB by Python driver.

Scratch directory: /ddmfs1a/scratch/
   => Libint2 <=

    Primary   basis highest AM E, G, H:  5, 4, 3
    Auxiliary basis highest AM E, G, H:  6, 5, 4
    Onebody   basis highest AM E, G, H:  6, 5, 4
    Solid Harmonics ordering:            gaussian

*** tstart() called on ddmfs1
*** at Mon Jan 22 13:53:40 2024

   => Loading Basis Set <=

    Name: AUG-CC-PVTZ
    Role: ORBITAL
    Keyword: BASIS
    atoms 1                     entry LI         line    85 file /ddmfs1b/softs/psi4conda/share/psi4/basis/aug-cc-pvtz.gbs 
    atoms 2, 5, 8, 11           entry O          line   331 file /ddmfs1b/softs/psi4conda/share/psi4/basis/aug-cc-pvtz.gbs 
    atoms 3-4, 6-7, 9-10, 12-13 entry H          line    40 file /ddmfs1b/softs/psi4conda/share/psi4/basis/aug-cc-pvtz.gbs 


         ---------------------------------------------------------
                                   SCF
               by Justin Turney, Rob Parrish, Andy Simmonett
                          and Daniel G. A. Smith
                              RHF Reference
                       20 Threads,  57220 MiB Core
         ---------------------------------------------------------

  ==> Geometry <==

    Molecular point group: c1
    Full point group: C1

    Geometry (in Angstrom), charge = 1, multiplicity = 1:

       Center              X                  Y                   Z               Mass       
    ------------   -----------------  -----------------  -----------------  -----------------
         LI           0.000000000000     0.000000000000     0.000000000000     7.016003436600
         O           -0.266443000000     1.938313000000    -0.248340000000    15.994914619570
         H           -0.088316000000     2.610611000000    -0.926278000000     1.007825032230
         H           -0.885622000000     2.402495000000     0.339436000000     1.007825032230
         O           -1.305581000000    -1.041945000000    -1.192735000000    15.994914619570
         H           -1.614892000000    -1.898100000000    -0.899961000000     1.007825032230
         H           -0.845776000000    -1.154356000000    -2.000716000000     1.007825032230
         O            2.066109000000    -0.498860000000    -0.290542000000    15.994914619570
         H            2.623530000000    -0.650184000000     0.499648000000     1.007825032230
         H            2.518418000000    -0.862145000000    -1.036711000000     1.007825032230
         O           -0.099893000000    -0.786188000000     1.651962000000    15.994914619570
         H            0.363831000000    -1.589227000000     1.918952000000     1.007825032230
         H           -1.018921000000    -0.908196000000     1.943922000000     1.007825032230

  Running in c1 symmetry.

  Rotational constants: A =      0.08973  B =      0.08362  C =      0.07160 [cm^-1]
  Rotational constants: A =   2690.13561  B =   2506.88440  C =   2146.38256 [MHz]
  Nuclear repulsion =  160.094106179017047

  Charge       = 1
  Multiplicity = 1
  Electrons    = 42
  Nalpha       = 21
  Nbeta        = 21

  ==> Algorithm <==

  SCF Algorithm Type is DF.
  DIIS enabled.
  MOM disabled.
  Fractional occupation disabled.
  Guess Type is SAD.
  Energy threshold   = 1.00e-08
  Density threshold  = 1.00e-08
  Integral threshold = 1.00e-12

  ==> Primary Basis <==

  Basis Set: AUG-CC-PVTZ
    Blend: AUG-CC-PVTZ
    Number of shells: 142
    Number of basis functions: 414
    Number of Cartesian functions: 475
    Spherical Harmonics?: true
    Max angular momentum: 3

   => Loading Basis Set <=

    Name: (AUG-CC-PVTZ AUX)
    Role: JKFIT
    Keyword: DF_BASIS_SCF
    atoms 1                     entry LI         line    54 file /ddmfs1b/softs/psi4conda/share/psi4/basis/def2-universal-jkfit.gbs 
    atoms 2, 5, 8, 11           entry O          line   286 file /ddmfs1b/softs/psi4conda/share/psi4/basis/aug-cc-pvtz-jkfit.gbs 
    atoms 3-4, 6-7, 9-10, 12-13 entry H          line    70 file /ddmfs1b/softs/psi4conda/share/psi4/basis/aug-cc-pvtz-jkfit.gbs 

  ==> Integral Setup <==

  DFHelper Memory: AOs need 1.075 GiB; user supplied 41.910 GiB. 
  Using in-core AOs.

  ==> MemDFJK: Density-Fitted J/K Matrices <==

    J tasked:                   Yes
    K tasked:                   Yes
    wK tasked:                   No
    OpenMP threads:              20
    Memory [MiB]:             42915
    Algorithm:                 Core
    Schwarz Cutoff:           1E-12
    Mask sparsity (%):       5.2918
    Fitting Condition:        1E-10

   => Auxiliary Basis Set <=

  Basis Set: (AUG-CC-PVTZ AUX)
    Blend: AUG-CC-PVTZ-JKFIT + DEF2-UNIVERSAL-JKFIT
    Number of shells: 249
    Number of basis functions: 835
    Number of Cartesian functions: 1024
    Spherical Harmonics?: true
    Max angular momentum: 4

  Minimum eigenvalue in the overlap matrix is 1.4976989579E-05.
  Reciprocal condition number of the overlap matrix is 1.0688701304E-06.
    Using symmetric orthogonalization.

  ==> Pre-Iterations <==

  SCF Guess: Superposition of Atomic Densities via on-the-fly atomic UHF (no occupation information).

   -------------------------
    Irrep   Nso     Nmo    
   -------------------------
     A        414     414 
   -------------------------
    Total     414     414
   -------------------------

  ==> Iterations <==

                           Total Energy        Delta E     RMS |[F,P]|

   @DF-RHF iter SAD:  -309.57841898642209   -3.09578e+02   0.00000e+00 
   @DF-RHF iter   1:  -311.28294688885416   -1.70453e+00   2.30269e-03 DIIS/ADIIS
   @DF-RHF iter   2:  -311.50893222996206   -2.25985e-01   1.49447e-03 DIIS/ADIIS
   @DF-RHF iter   3:  -311.62661227679411   -1.17680e-01   1.11983e-04 DIIS/ADIIS
   @DF-RHF iter   4:  -311.62826154049372   -1.64926e-03   2.78833e-05 DIIS
   @DF-RHF iter   5:  -311.62836541331535   -1.03873e-04   7.50988e-06 DIIS
   @DF-RHF iter   6:  -311.62837410147841   -8.68816e-06   3.21773e-06 DIIS
   @DF-RHF iter   7:  -311.62837510179577   -1.00032e-06   6.66945e-07 DIIS
   @DF-RHF iter   8:  -311.62837519094728   -8.91515e-08   1.12598e-07 DIIS
   @DF-RHF iter   9:  -311.62837519343685   -2.48957e-09   1.97884e-08 DIIS
   @DF-RHF iter  10:  -311.62837519350387   -6.70184e-11   5.22192e-09 DIIS
  Energy and wave function converged.


  ==> Post-Iterations <==

    Orbital Energies [Eh]
    ---------------------

    Doubly Occupied:                                                      

       1A    -20.757295     2A    -20.741041     3A    -20.740868  
       4A    -20.737026     5A     -2.536130     6A     -1.545130  
       7A     -1.537735     8A     -1.523560     9A     -1.522471  
      10A     -0.911613    11A     -0.908364    12A     -0.892166  
      13A     -0.878727    14A     -0.799818    15A     -0.785074  
      16A     -0.770688    17A     -0.763717    18A     -0.715707  
      19A     -0.691922    20A     -0.686967    21A     -0.682501  

    Virtual:                                                              

      22A     -0.099456    23A     -0.076666    24A     -0.075247  
      25A     -0.071130    26A     -0.046308    27A     -0.044392  
      28A     -0.042121    29A     -0.040785    30A     -0.039210  
      31A     -0.038005    32A     -0.029314    33A     -0.028503  
      34A     -0.021961    35A     -0.010227    36A     -0.000007  
      37A      0.003321    38A      0.027650    39A      0.028791  
      40A      0.033697    41A      0.040733    42A      0.046594  
      43A      0.052145    44A      0.054367    45A      0.056128  
      46A      0.060682    47A      0.064259    48A      0.068604  
      49A      0.073973    50A      0.078578    51A      0.083403  
      52A      0.094935    53A      0.104281    54A      0.110298  
      55A      0.118070    56A      0.119952    57A      0.125200  
      58A      0.133626    59A      0.147096    60A      0.163472  
      61A      0.169932    62A      0.178561    63A      0.192952  
      64A      0.201657    65A      0.209252    66A      0.212746  
      67A      0.214807    68A      0.225549    69A      0.232374  
      70A      0.235636    71A      0.241587    72A      0.252717  
      73A      0.257016    74A      0.260058    75A      0.263389  
      76A      0.273762    77A      0.276588    78A      0.280831  
      79A      0.284704    80A      0.292113    81A      0.298129  
      82A      0.305508    83A      0.309969    84A      0.315015  
      85A      0.316553    86A      0.325232    87A      0.331125  
      88A      0.333588    89A      0.343395    90A      0.345694  
      91A      0.351647    92A      0.354025    93A      0.361132  
      94A      0.365771    95A      0.370367    96A      0.371430  
      97A      0.385083    98A      0.393316    99A      0.402724  
     100A      0.408889   101A      0.425028   102A      0.428736  
     103A      0.438269   104A      0.443437   105A      0.464820  
     106A      0.490192   107A      0.504165   108A      0.537892  
     109A      0.542674   110A      0.568950   111A      0.586675  
     112A      0.588670   113A      0.596029   114A      0.606555  
     115A      0.619717   116A      0.623602   117A      0.629539  
     118A      0.643196   119A      0.645884   120A      0.661472  
     121A      0.667321   122A      0.689639   123A      0.696272  
     124A      0.699262   125A      0.710721   126A      0.719699  
     127A      0.727930   128A      0.745471   129A      0.755902  
     130A      0.762863   131A      0.768421   132A      0.770868  
     133A      0.783683   134A      0.792935   135A      0.806334  
     136A      0.809845   137A      0.819888   138A      0.824130  
     139A      0.826476   140A      0.831180   141A      0.839714  
     142A      0.853860   143A      0.862959   144A      0.865942  
     145A      0.873378   146A      0.892916   147A      0.894401  
     148A      0.910866   149A      0.915764   150A      0.929103  
     151A      0.931100   152A      0.942650   153A      0.944953  
     154A      0.950379   155A      0.963817   156A      0.967122  
     157A      0.971694   158A      0.978231   159A      0.993063  
     160A      0.999924   161A      1.011397   162A      1.019909  
     163A      1.022428   164A      1.032770   165A      1.043263  
     166A      1.052546   167A      1.060154   168A      1.067169  
     169A      1.071877   170A      1.078157   171A      1.094426  
     172A      1.109032   173A      1.115142   174A      1.138672  
     175A      1.149038   176A      1.150796   177A      1.167352  
     178A      1.183179   179A      1.191170   180A      1.196168  
     181A      1.212220   182A      1.239027   183A      1.242737  
     184A      1.258735   185A      1.264862   186A      1.283065  
     187A      1.298176   188A      1.334741   189A      1.336922  
     190A      1.346337   191A      1.382852   192A      1.393811  
     193A      1.415664   194A      1.438357   195A      1.439159  
     196A      1.474303   197A      1.488304   198A      1.503398  
     199A      1.509384   200A      1.549147   201A      1.564372  
     202A      1.584281   203A      1.588247   204A      1.611560  
     205A      1.632099   206A      1.649822   207A      1.659834  
     208A      1.661504   209A      1.686066   210A      1.694192  
     211A      1.705265   212A      1.725167   213A      1.730321  
     214A      1.748732   215A      1.762051   216A      1.792693  
     217A      1.822964   218A      1.871973   219A      1.885860  
     220A      1.894116   221A      1.906176   222A      1.928989  
     223A      1.935808   224A      1.960218   225A      1.977548  
     226A      2.020792   227A      2.042374   228A      2.080230  
     229A      2.108066   230A      2.172149   231A      2.193462  
     232A      2.210672   233A      2.220109   234A      2.225838  
     235A      2.235430   236A      2.267102   237A      2.291722  
     238A      2.296002   239A      2.322277   240A      2.340215  
     241A      2.371559   242A      2.380237   243A      2.397014  
     244A      2.422098   245A      2.437965   246A      2.456688  
     247A      2.480587   248A      2.495068   249A      2.507103  
     250A      2.523504   251A      2.536182   252A      2.560981  
     253A      2.565944   254A      2.586567   255A      2.606547  
     256A      2.613957   257A      2.633169   258A      2.640043  
     259A      2.649352   260A      2.663229   261A      2.680206  
     262A      2.701449   263A      2.716884   264A      2.727663  
     265A      2.735768   266A      2.750658   267A      2.756036  
     268A      2.779149   269A      2.802908   270A      2.811913  
     271A      2.825108   272A      2.841939   273A      2.868309  
     274A      2.904090   275A      2.933090   276A      2.992235  
     277A      3.045288   278A      3.622019   279A      3.674520  
     280A      3.693389   281A      3.706931   282A      3.768119  
     283A      3.798680   284A      3.839205   285A      3.853861  
     286A      3.925804   287A      3.931043   288A      3.962058  
     289A      3.982543   290A      4.050238   291A      4.092241  
     292A      4.096084   293A      4.110830   294A      4.116607  
     295A      4.137961   296A      4.153707   297A      4.166349  
     298A      4.184090   299A      4.209153   300A      4.235746  
     301A      4.244243   302A      4.253256   303A      4.265438  
     304A      4.314994   305A      4.342983   306A      4.356809  
     307A      4.368616   308A      4.375417   309A      4.393860  
     310A      4.404281   311A      4.412780   312A      4.420626  
     313A      4.455272   314A      4.458935   315A      4.473204  
     316A      4.486945   317A      4.505348   318A      4.516760  
     319A      4.527930   320A      4.565149   321A      4.598645  
     322A      4.652674   323A      4.660603   324A      4.674642  
     325A      4.691265   326A      4.739863   327A      4.747296  
     328A      4.763323   329A      4.768446   330A      4.853082  
     331A      4.982278   332A      4.993580   333A      4.995831  
     334A      5.012530   335A      5.039678   336A      5.065591  
     337A      5.092186   338A      5.110175   339A      5.159017  
     340A      5.186213   341A      5.200489   342A      5.237212  
     343A      5.260127   344A      5.292099   345A      5.301991  
     346A      5.328608   347A      5.378021   348A      5.390632  
     349A      5.412419   350A      5.465502   351A      5.683019  
     352A      5.709382   353A      5.745323   354A      5.783380  
     355A      6.118505   356A      6.161307   357A      6.192454  
     358A      6.255666   359A      6.454010   360A      6.468624  
     361A      6.482994   362A      6.494621   363A      6.590646  
     364A      6.667536   365A      6.677090   366A      6.709716  
     367A      6.774239   368A      6.777123   369A      6.822930  
     370A      6.882252   371A      6.996264   372A      7.017524  
     373A      7.023057   374A      7.067013   375A      7.124713  
     376A      7.137469   377A      7.145113   378A      7.149831  
     379A      7.169614   380A      7.172711   381A      7.196041  
     382A      7.211938   383A      7.220540   384A      7.223777  
     385A      7.240845   386A      7.250426   387A      7.252824  
     388A      7.273355   389A      7.281481   390A      7.304248  
     391A      7.316095   392A      7.328988   393A      7.355585  
     394A      7.381993   395A      7.468785   396A      7.519958  
     397A      7.532670   398A      7.593563   399A      7.710914  
     400A      7.746886   401A      7.780014   402A      7.785098  
     403A      7.809717   404A      7.830912   405A      7.858524  
     406A      7.881494   407A      8.659705   408A      8.688684  
     409A      8.705988   410A      8.818560   411A     15.634863  
     412A     15.927549   413A     15.950625   414A     16.570275  

    Final Occupation by Irrep:
              A 
    DOCC [    21 ]
    NA   [    21 ]
    NB   [    21 ]

  @DF-RHF Final Energy:  -311.62837519350387

   => Energetics <=

    Nuclear Repulsion Energy =            160.0941061790170465
    One-Electron Energy =                -741.1879175345148951
    Two-Electron Energy =                 269.4654361619939209
    Total Energy =                       -311.6283751935038708

Computation Completed


Properties will be evaluated at   0.000000,   0.000000,   0.000000 [a0]

Properties computed using the SCF density matrix


 Multipole Moments:

 ------------------------------------------------------------------------------------
     Multipole            Electronic (a.u.)      Nuclear  (a.u.)        Total (a.u.)
 ------------------------------------------------------------------------------------

 L = 1.  Multiply by 2.5417464519 to convert [e a0] to [Debye]
 Dipole X            :         -7.7190064            7.9477875            0.2287811
 Dipole Y            :          8.8336001           -9.7482316           -0.9146315
 Dipole Z            :          1.5242015           -1.5097929            0.0144086
 Magnitude           :                                                    0.9429206

 ------------------------------------------------------------------------------------

*** tstop() called on ddmfs1 at Mon Jan 22 13:53:44 2024
Module time:
	user time   =      70.03 seconds =       1.17 minutes
	system time =       3.37 seconds =       0.06 minutes
	total time  =          4 seconds =       0.07 minutes
Total time:
	user time   =      70.03 seconds =       1.17 minutes
	system time =       3.37 seconds =       0.06 minutes
	total time  =          4 seconds =       0.07 minutes

*** tstart() called on ddmfs1
*** at Mon Jan 22 13:53:44 2024


  //>>>>>>>>>>>>>>>>>>>>>>>>>>>>>>>>>>>//
  //               DFMP2               //
  //<<<<<<<<<<<<<<<<<<<<<<<<<<<<<<<<<<<//

   => Loading Basis Set <=

    Name: (AUG-CC-PVTZ AUX)
    Role: RIFIT
    Keyword: DF_BASIS_MP2
    atoms 1                     entry LI         line    90 file /ddmfs1b/softs/psi4conda/share/psi4/basis/def2-qzvpp-ri.gbs 
    atoms 2, 5, 8, 11           entry O          line   264 file /ddmfs1b/softs/psi4conda/share/psi4/basis/aug-cc-pvtz-ri.gbs 
    atoms 3-4, 6-7, 9-10, 12-13 entry H          line    30 file /ddmfs1b/softs/psi4conda/share/psi4/basis/aug-cc-pvtz-ri.gbs 

	 --------------------------------------------------------
	                          DF-MP2                         
	      2nd-Order Density-Fitted Moller-Plesset Theory     
	              RMP2 Wavefunction,  20 Threads             
	                                                         
	        Rob Parrish, Justin Turney, Andy Simmonett,      
	           Ed Hohenstein, and C. David Sherrill          
	 --------------------------------------------------------

   => Auxiliary Basis Set <=

  Basis Set: (AUG-CC-PVTZ AUX)
    Blend: AUG-CC-PVTZ-RI + DEF2-QZVPP-RI
    Number of shells: 251
    Number of basis functions: 893
    Number of Cartesian functions: 1114
    Spherical Harmonics?: true
    Max angular momentum: 4

	 --------------------------------------------------------
	                 NBF =   414, NAUX =   893
	 --------------------------------------------------------
	   CLASS    FOCC     OCC    AOCC    AVIR     VIR    FVIR
	   PAIRS       0      21      21     393     393       0
	 --------------------------------------------------------

	-----------------------------------------------------------
	 ==================> DF-MP2 Energies <==================== 
	-----------------------------------------------------------
	 Reference Energy          =    -311.6283751935038708 [Eh]
	 Singles Energy            =      -0.0000000000000000 [Eh]
	 Same-Spin Energy          =      -0.2749577600904446 [Eh]
	 Opposite-Spin Energy      =      -0.8773050321922944 [Eh]
	 Correlation Energy        =      -1.1522627922827391 [Eh]
	 Total Energy              =    -312.7806379857865977 [Eh]
	-----------------------------------------------------------
	 ================> DF-SCS-MP2 Energies <================== 
	-----------------------------------------------------------
	 SCS Same-Spin Scale       =       0.3333333333333333 [-]
	 SCS Opposite-Spin Scale   =       1.2000000000000000 [-]
	 SCS Same-Spin Energy      =      -0.0916525866968149 [Eh]
	 SCS Opposite-Spin Energy  =      -1.0527660386307531 [Eh]
	 SCS Correlation Energy    =      -1.1444186253275681 [Eh]
	 SCS Total Energy          =    -312.7727938188314170 [Eh]
	-----------------------------------------------------------


*** tstop() called on ddmfs1 at Mon Jan 22 13:53:47 2024
Module time:
	user time   =      23.39 seconds =       0.39 minutes
	system time =       1.13 seconds =       0.02 minutes
	total time  =          3 seconds =       0.05 minutes
Total time:
	user time   =      93.43 seconds =       1.56 minutes
	system time =       4.50 seconds =       0.07 minutes
	total time  =          7 seconds =       0.12 minutes

    Psi4 stopped on: Monday, 22 January 2024 01:53PM
    Psi4 wall time for execution: 0:00:07.27

*** Psi4 exiting successfully. Buy a developer a beer!
