
    -----------------------------------------------------------------------
          Psi4: An Open-Source Ab Initio Electronic Structure Package
                               Psi4 1.8.2 release

                         Git: Rev {} zzzzzzz 


    D. G. A. Smith, L. A. Burns, A. C. Simmonett, R. M. Parrish,
    M. C. Schieber, R. Galvelis, P. Kraus, H. Kruse, R. Di Remigio,
    A. Alenaizan, A. M. James, S. Lehtola, J. P. Misiewicz, M. Scheurer,
    R. A. Shaw, J. B. Schriber, Y. Xie, Z. L. Glick, D. A. Sirianni,
    J. S. O'Brien, J. M. Waldrop, A. Kumar, E. G. Hohenstein,
    B. P. Pritchard, B. R. Brooks, H. F. Schaefer III, A. Yu. Sokolov,
    K. Patkowski, A. E. DePrince III, U. Bozkaya, R. A. King,
    F. A. Evangelista, J. M. Turney, T. D. Crawford, C. D. Sherrill,
    J. Chem. Phys. 152(18) 184108 (2020). https://doi.org/10.1063/5.0006002

                            Additional Code Authors
    E. T. Seidl, C. L. Janssen, E. F. Valeev, M. L. Leininger,
    J. F. Gonthier, R. M. Richard, H. R. McAlexander, M. Saitow, X. Wang,
    P. Verma, M. H. Lechner, A. Jiang, S. Behnle, A. G. Heide,
    M. F. Herbst, and D. L. Poole

             Previous Authors, Complete List of Code Contributors,
                       and Citations for Specific Modules
    https://github.com/psi4/psi4/blob/master/codemeta.json
    https://github.com/psi4/psi4/graphs/contributors
    http://psicode.org/psi4manual/master/introduction.html#citing-psifour

    -----------------------------------------------------------------------


    Psi4 started on: Monday, 22 January 2024 01:21PM

    Process ID: 57335
    Host:       ddmfs1
    PSIDATADIR: /ddmfs1b/softs/psi4conda/share/psi4
    Memory:     500.0 MiB
    Threads:    20
    
  ==> Input File <==

--------------------------------------------------------------------------
MEMORY 60 GB

molecule dimer {
0 1
Gh(Li)     0.000000     0.000000     0.000000
Gh(O)     -1.511539    -0.373056     1.444335
Gh(H)     -2.171177    -0.773198     0.881789
Gh(H)     -1.822922     0.301399     2.156054
Gh(O)      1.489676     0.881894     1.248380
Gh(H)      2.269207     0.733811     0.702855
Gh(H)      1.792827     0.767859     2.219903
O         -1.062894     1.282392    -0.795663
H         -1.976557     1.447197    -0.506702
H         -1.068516     1.674872    -1.716630
Gh(O)      0.712000    -1.014444    -1.465121
Gh(H)      0.958402    -1.983537    -1.419085
Gh(H)      0.828894    -0.834982    -2.421806

units ang
no_reorient
no_com
symmetry c1
}

set {
basis        aug-cc-pVTZ
scf_type     df
}

energy("mp2")
--------------------------------------------------------------------------

  Memory set to  55.879 GiB by Python driver.

Scratch directory: /ddmfs1a/scratch/
   => Libint2 <=

    Primary   basis highest AM E, G, H:  5, 4, 3
    Auxiliary basis highest AM E, G, H:  6, 5, 4
    Onebody   basis highest AM E, G, H:  6, 5, 4
    Solid Harmonics ordering:            gaussian

*** tstart() called on ddmfs1
*** at Mon Jan 22 13:21:36 2024

   => Loading Basis Set <=

    Name: AUG-CC-PVTZ
    Role: ORBITAL
    Keyword: BASIS
    atoms 1                     entry LI         line    85 file /ddmfs1b/softs/psi4conda/share/psi4/basis/aug-cc-pvtz.gbs 
    atoms 2, 5, 8, 11           entry O          line   331 file /ddmfs1b/softs/psi4conda/share/psi4/basis/aug-cc-pvtz.gbs 
    atoms 3-4, 6-7, 9-10, 12-13 entry H          line    40 file /ddmfs1b/softs/psi4conda/share/psi4/basis/aug-cc-pvtz.gbs 


         ---------------------------------------------------------
                                   SCF
               by Justin Turney, Rob Parrish, Andy Simmonett
                          and Daniel G. A. Smith
                              RHF Reference
                       20 Threads,  57220 MiB Core
         ---------------------------------------------------------

  ==> Geometry <==

    Molecular point group: c1
    Full point group: C1

    Geometry (in Angstrom), charge = 0, multiplicity = 1:

       Center              X                  Y                   Z               Mass       
    ------------   -----------------  -----------------  -----------------  -----------------
      Gh(LI)          0.000000000000     0.000000000000     0.000000000000     7.016003436600
      Gh(O)          -1.511539000000    -0.373056000000     1.444335000000    15.994914619570
      Gh(H)          -2.171177000000    -0.773198000000     0.881789000000     1.007825032230
      Gh(H)          -1.822922000000     0.301399000000     2.156054000000     1.007825032230
      Gh(O)           1.489676000000     0.881894000000     1.248380000000    15.994914619570
      Gh(H)           2.269207000000     0.733811000000     0.702855000000     1.007825032230
      Gh(H)           1.792827000000     0.767859000000     2.219903000000     1.007825032230
         O           -1.062894000000     1.282392000000    -0.795663000000    15.994914619570
         H           -1.976557000000     1.447197000000    -0.506702000000     1.007825032230
         H           -1.068516000000     1.674872000000    -1.716630000000     1.007825032230
      Gh(O)           0.712000000000    -1.014444000000    -1.465121000000    15.994914619570
      Gh(H)           0.958402000000    -1.983537000000    -1.419085000000     1.007825032230
      Gh(H)           0.828894000000    -0.834982000000    -2.421806000000     1.007825032230

  Running in c1 symmetry.

  Rotational constants: A =      0.09519  B =      0.08411  C =      0.06667 [cm^-1]
  Rotational constants: A =   2853.86462  B =   2521.60315  C =   1998.74219 [MHz]
  Nuclear repulsion =    8.928428399669395

  Charge       = 0
  Multiplicity = 1
  Electrons    = 10
  Nalpha       = 5
  Nbeta        = 5

  ==> Algorithm <==

  SCF Algorithm Type is DF.
  DIIS enabled.
  MOM disabled.
  Fractional occupation disabled.
  Guess Type is SAD.
  Energy threshold   = 1.00e-08
  Density threshold  = 1.00e-08
  Integral threshold = 1.00e-12

  ==> Primary Basis <==

  Basis Set: AUG-CC-PVTZ
    Blend: AUG-CC-PVTZ
    Number of shells: 142
    Number of basis functions: 414
    Number of Cartesian functions: 475
    Spherical Harmonics?: true
    Max angular momentum: 3

   => Loading Basis Set <=

    Name: (AUG-CC-PVTZ AUX)
    Role: JKFIT
    Keyword: DF_BASIS_SCF
    atoms 1                     entry LI         line    54 file /ddmfs1b/softs/psi4conda/share/psi4/basis/def2-universal-jkfit.gbs 
    atoms 2, 5, 8, 11           entry O          line   286 file /ddmfs1b/softs/psi4conda/share/psi4/basis/aug-cc-pvtz-jkfit.gbs 
    atoms 3-4, 6-7, 9-10, 12-13 entry H          line    70 file /ddmfs1b/softs/psi4conda/share/psi4/basis/aug-cc-pvtz-jkfit.gbs 

  ==> Integral Setup <==

  DFHelper Memory: AOs need 1.075 GiB; user supplied 41.910 GiB. 
  Using in-core AOs.

  ==> MemDFJK: Density-Fitted J/K Matrices <==

    J tasked:                   Yes
    K tasked:                   Yes
    wK tasked:                   No
    OpenMP threads:              20
    Memory [MiB]:             42915
    Algorithm:                 Core
    Schwarz Cutoff:           1E-12
    Mask sparsity (%):       5.3023
    Fitting Condition:        1E-10

   => Auxiliary Basis Set <=

  Basis Set: (AUG-CC-PVTZ AUX)
    Blend: AUG-CC-PVTZ-JKFIT + DEF2-UNIVERSAL-JKFIT
    Number of shells: 249
    Number of basis functions: 835
    Number of Cartesian functions: 1024
    Spherical Harmonics?: true
    Max angular momentum: 4

  Minimum eigenvalue in the overlap matrix is 1.3426748517E-05.
  Reciprocal condition number of the overlap matrix is 9.6298413599E-07.
    Using symmetric orthogonalization.

  ==> Pre-Iterations <==

  SCF Guess: Superposition of Atomic Densities via on-the-fly atomic UHF (no occupation information).

   -------------------------
    Irrep   Nso     Nmo    
   -------------------------
     A        414     414 
   -------------------------
    Total     414     414
   -------------------------

  ==> Iterations <==

                           Total Energy        Delta E     RMS |[F,P]|

   @DF-RHF iter SAD:   -75.44633015639354   -7.54463e+01   0.00000e+00 
   @DF-RHF iter   1:   -75.97054565941414   -5.24216e-01   1.12754e-03 DIIS/ADIIS
   @DF-RHF iter   2:   -76.02227522914438   -5.17296e-02   7.95106e-04 DIIS/ADIIS
   @DF-RHF iter   3:   -76.05617148882200   -3.38963e-02   5.42170e-05 DIIS
   @DF-RHF iter   4:   -76.05659992394939   -4.28435e-04   1.38092e-05 DIIS
   @DF-RHF iter   5:   -76.05663108731031   -3.11634e-05   3.24870e-06 DIIS
   @DF-RHF iter   6:   -76.05663377223375   -2.68492e-06   7.06500e-07 DIIS
   @DF-RHF iter   7:   -76.05663390838085   -1.36147e-07   1.20180e-07 DIIS
   @DF-RHF iter   8:   -76.05663391175612   -3.37528e-09   2.08275e-08 DIIS
   @DF-RHF iter   9:   -76.05663391183754   -8.14140e-11   5.28254e-09 DIIS
  Energy and wave function converged.


  ==> Post-Iterations <==

    Orbital Energies [Eh]
    ---------------------

    Doubly Occupied:                                                      

       1A    -20.573325     2A     -1.340903     3A     -0.696561  
       4A     -0.584653     5A     -0.508851  

    Virtual:                                                              

       6A      0.008934     7A      0.018008     8A      0.018276  
       9A      0.019532    10A      0.044377    11A      0.054080  
      12A      0.057790    13A      0.058797    14A      0.061007  
      15A      0.064899    16A      0.066783    17A      0.068848  
      18A      0.073879    19A      0.085086    20A      0.092239  
      21A      0.105090    22A      0.145820    23A      0.149613  
      24A      0.151644    25A      0.154231    26A      0.159886  
      27A      0.162647    28A      0.163623    29A      0.168997  
      30A      0.171970    31A      0.172015    32A      0.176624  
      33A      0.186661    34A      0.192963    35A      0.204236  
      36A      0.217843    37A      0.218076    38A      0.228090  
      39A      0.248091    40A      0.254565    41A      0.266349  
      42A      0.272086    43A      0.287095    44A      0.302619  
      45A      0.316400    46A      0.324779    47A      0.330411  
      48A      0.335609    49A      0.345235    50A      0.350013  
      51A      0.360429    52A      0.364226    53A      0.367549  
      54A      0.372817    55A      0.374484    56A      0.381012  
      57A      0.385430    58A      0.393663    59A      0.395068  
      60A      0.403726    61A      0.404265    62A      0.408499  
      63A      0.412414    64A      0.416212    65A      0.429883  
      66A      0.432586    67A      0.435387    68A      0.445068  
      69A      0.450435    70A      0.454513    71A      0.455949  
      72A      0.471570    73A      0.479020    74A      0.487684  
      75A      0.493460    76A      0.496344    77A      0.502682  
      78A      0.511255    79A      0.518133    80A      0.522040  
      81A      0.524709    82A      0.538488    83A      0.550936  
      84A      0.558728    85A      0.579866    86A      0.584588  
      87A      0.598108    88A      0.616165    89A      0.618929  
      90A      0.659429    91A      0.679218    92A      0.713833  
      93A      0.740872    94A      0.759816    95A      0.769030  
      96A      0.781431    97A      0.799716    98A      0.806860  
      99A      0.810595   100A      0.816599   101A      0.824514  
     102A      0.834802   103A      0.842716   104A      0.852098  
     105A      0.854755   106A      0.862453   107A      0.868154  
     108A      0.877533   109A      0.892856   110A      0.897374  
     111A      0.900659   112A      0.902120   113A      0.923821  
     114A      0.930415   115A      0.935494   116A      0.947875  
     117A      0.954432   118A      0.960504   119A      0.965231  
     120A      0.976678   121A      0.983081   122A      0.994912  
     123A      1.002277   124A      1.004290   125A      1.014832  
     126A      1.022441   127A      1.033642   128A      1.039039  
     129A      1.054885   130A      1.061321   131A      1.064303  
     132A      1.073160   133A      1.078818   134A      1.091928  
     135A      1.100964   136A      1.103603   137A      1.113949  
     138A      1.122591   139A      1.131164   140A      1.150454  
     141A      1.151674   142A      1.155577   143A      1.167916  
     144A      1.173494   145A      1.182601   146A      1.193467  
     147A      1.198622   148A      1.204671   149A      1.213588  
     150A      1.225749   151A      1.229067   152A      1.237958  
     153A      1.258226   154A      1.261478   155A      1.268283  
     156A      1.297717   157A      1.303041   158A      1.319391  
     159A      1.326437   160A      1.333402   161A      1.360266  
     162A      1.365642   163A      1.374463   164A      1.395600  
     165A      1.412037   166A      1.430906   167A      1.436888  
     168A      1.449257   169A      1.454269   170A      1.468147  
     171A      1.483845   172A      1.501407   173A      1.516798  
     174A      1.539623   175A      1.571581   176A      1.577831  
     177A      1.607545   178A      1.624009   179A      1.633236  
     180A      1.658697   181A      1.687978   182A      1.705579  
     183A      1.730836   184A      1.747424   185A      1.753541  
     186A      1.773133   187A      1.799024   188A      1.825537  
     189A      1.841586   190A      1.851874   191A      1.878532  
     192A      1.895099   193A      1.902332   194A      1.911353  
     195A      1.935932   196A      1.942547   197A      1.951050  
     198A      1.959897   199A      1.976062   200A      1.989309  
     201A      1.998240   202A      2.001115   203A      2.049627  
     204A      2.064211   205A      2.081684   206A      2.098176  
     207A      2.113866   208A      2.120017   209A      2.137226  
     210A      2.223522   211A      2.280198   212A      2.296933  
     213A      2.341871   214A      2.359499   215A      2.440363  
     216A      2.475287   217A      2.509183   218A      2.522504  
     219A      2.537424   220A      2.574960   221A      2.584261  
     222A      2.603451   223A      2.610972   224A      2.617076  
     225A      2.637214   226A      2.663650   227A      2.666730  
     228A      2.679463   229A      2.696933   230A      2.722267  
     231A      2.746501   232A      2.762858   233A      2.772546  
     234A      2.817393   235A      2.821936   236A      2.844815  
     237A      2.852791   238A      2.873192   239A      2.903483  
     240A      2.911372   241A      2.933933   242A      2.936214  
     243A      2.967339   244A      2.990497   245A      2.996855  
     246A      3.026133   247A      3.062734   248A      3.073153  
     249A      3.096407   250A      3.169958   251A      3.198350  
     252A      3.210671   253A      3.230835   254A      3.250587  
     255A      3.274130   256A      3.281156   257A      3.305690  
     258A      3.313616   259A      3.321506   260A      3.349269  
     261A      3.358761   262A      3.375317   263A      3.397581  
     264A      3.407536   265A      3.446041   266A      3.467137  
     267A      3.513491   268A      3.530296   269A      3.693549  
     270A      3.744162   271A      3.772509   272A      3.792658  
     273A      3.827382   274A      3.891199   275A      3.925369  
     276A      3.959034   277A      4.123914   278A      4.277034  
     279A      4.332883   280A      4.366500   281A      4.394253  
     282A      4.414134   283A      4.425290   284A      4.459006  
     285A      4.511992   286A      4.535588   287A      4.545275  
     288A      4.557831   289A      4.576063   290A      4.605687  
     291A      4.610794   292A      4.625261   293A      4.646777  
     294A      4.693162   295A      4.699238   296A      4.731216  
     297A      4.750028   298A      4.755465   299A      4.795097  
     300A      4.813069   301A      4.837224   302A      4.850675  
     303A      4.885580   304A      4.888775   305A      4.917155  
     306A      4.973030   307A      5.010504   308A      5.040580  
     309A      5.057248   310A      5.092512   311A      5.113538  
     312A      5.134171   313A      5.158769   314A      5.178579  
     315A      5.185179   316A      5.225592   317A      5.255179  
     318A      5.280257   319A      5.322401   320A      5.369483  
     321A      5.397319   322A      5.459708   323A      5.472455  
     324A      5.512238   325A      5.518545   326A      5.539009  
     327A      5.576178   328A      5.632200   329A      5.664813  
     330A      5.684731   331A      5.720631   332A      5.764971  
     333A      5.838178   334A      5.904167   335A      6.018643  
     336A      6.152698   337A      6.242987   338A      6.297663  
     339A      6.311219   340A      6.415470   341A      6.427984  
     342A      6.430050   343A      6.613196   344A      6.654497  
     345A      6.661498   346A      6.813804   347A      6.875996  
     348A      7.009754   349A      7.018303   350A      7.053985  
     351A      7.116778   352A      7.181776   353A      7.280867  
     354A      7.327382   355A      7.414850   356A      7.425295  
     357A      7.519366   358A      7.643377   359A      7.740793  
     360A      7.774722   361A      7.794426   362A      7.837460  
     363A      7.866605   364A      7.897964   365A      7.967098  
     366A      8.004815   367A      8.068051   368A      8.110591  
     369A      8.147629   370A      8.154965   371A      8.198778  
     372A      8.274076   373A      8.276874   374A      8.301612  
     375A      8.353748   376A      8.626574   377A      8.635398  
     378A      8.672944   379A      8.740300   380A      8.770454  
     381A      8.807813   382A      8.824996   383A      9.864576  
     384A      9.929229   385A      9.957676   386A      9.992685  
     387A     10.026056   388A     10.033099   389A     10.045345  
     390A     10.067456   391A     10.092445   392A     10.124090  
     393A     10.252337   394A     10.312875   395A     10.845471  
     396A     10.985163   397A     11.132585   398A     11.746387  
     399A     11.819527   400A     11.835425   401A     11.953120  
     402A     12.032946   403A     12.157034   404A     12.873584  
     405A     13.400016   406A     13.447568   407A     13.549805  
     408A     13.934341   409A     14.005605   410A     14.077337  
     411A     15.444646   412A     63.782780   413A     64.196393  
     414A     64.623291  

    Final Occupation by Irrep:
              A 
    DOCC [     5 ]
    NA   [     5 ]
    NB   [     5 ]

  @DF-RHF Final Energy:   -76.05663391183754

   => Energetics <=

    Nuclear Repulsion Energy =              8.9284283996693947
    One-Electron Energy =                -122.5615350609000984
    Two-Electron Energy =                  37.5764727493931687
    Total Energy =                        -76.0566339118375367

Computation Completed


Properties will be evaluated at   0.000000,   0.000000,   0.000000 [a0]

Properties computed using the SCF density matrix


 Multipole Moments:

 ------------------------------------------------------------------------------------
     Multipole            Electronic (a.u.)      Nuclear  (a.u.)        Total (a.u.)
 ------------------------------------------------------------------------------------

 L = 1.  Multiply by 2.5417464519 to convert [e a0] to [Debye]
 Dipole X            :         21.2244923          -21.8229825           -0.5984902
 Dipole Y            :        -24.9265918           25.2868127            0.3602209
 Dipole Z            :         15.8251753          -16.2301698           -0.4049946
 Magnitude           :                                                    0.8074467

 ------------------------------------------------------------------------------------

*** tstop() called on ddmfs1 at Mon Jan 22 13:21:39 2024
Module time:
	user time   =      53.64 seconds =       0.89 minutes
	system time =       2.48 seconds =       0.04 minutes
	total time  =          3 seconds =       0.05 minutes
Total time:
	user time   =      53.64 seconds =       0.89 minutes
	system time =       2.48 seconds =       0.04 minutes
	total time  =          3 seconds =       0.05 minutes

*** tstart() called on ddmfs1
*** at Mon Jan 22 13:21:39 2024


  //>>>>>>>>>>>>>>>>>>>>>>>>>>>>>>>>>>>//
  //               DFMP2               //
  //<<<<<<<<<<<<<<<<<<<<<<<<<<<<<<<<<<<//

   => Loading Basis Set <=

    Name: (AUG-CC-PVTZ AUX)
    Role: RIFIT
    Keyword: DF_BASIS_MP2
    atoms 1                     entry LI         line    90 file /ddmfs1b/softs/psi4conda/share/psi4/basis/def2-qzvpp-ri.gbs 
    atoms 2, 5, 8, 11           entry O          line   264 file /ddmfs1b/softs/psi4conda/share/psi4/basis/aug-cc-pvtz-ri.gbs 
    atoms 3-4, 6-7, 9-10, 12-13 entry H          line    30 file /ddmfs1b/softs/psi4conda/share/psi4/basis/aug-cc-pvtz-ri.gbs 

	 --------------------------------------------------------
	                          DF-MP2                         
	      2nd-Order Density-Fitted Moller-Plesset Theory     
	              RMP2 Wavefunction,  20 Threads             
	                                                         
	        Rob Parrish, Justin Turney, Andy Simmonett,      
	           Ed Hohenstein, and C. David Sherrill          
	 --------------------------------------------------------

   => Auxiliary Basis Set <=

  Basis Set: (AUG-CC-PVTZ AUX)
    Blend: AUG-CC-PVTZ-RI + DEF2-QZVPP-RI
    Number of shells: 251
    Number of basis functions: 893
    Number of Cartesian functions: 1114
    Spherical Harmonics?: true
    Max angular momentum: 4

	 --------------------------------------------------------
	                 NBF =   414, NAUX =   893
	 --------------------------------------------------------
	   CLASS    FOCC     OCC    AOCC    AVIR     VIR    FVIR
	   PAIRS       0       5       5     409     409       0
	 --------------------------------------------------------

	-----------------------------------------------------------
	 ==================> DF-MP2 Energies <==================== 
	-----------------------------------------------------------
	 Reference Energy          =     -76.0566339118375367 [Eh]
	 Singles Energy            =      -0.0000000000000000 [Eh]
	 Same-Spin Energy          =      -0.0690088826178541 [Eh]
	 Opposite-Spin Energy      =      -0.2177470220793666 [Eh]
	 Correlation Energy        =      -0.2867559046972206 [Eh]
	 Total Energy              =     -76.3433898165347529 [Eh]
	-----------------------------------------------------------
	 ================> DF-SCS-MP2 Energies <================== 
	-----------------------------------------------------------
	 SCS Same-Spin Scale       =       0.3333333333333333 [-]
	 SCS Opposite-Spin Scale   =       1.2000000000000000 [-]
	 SCS Same-Spin Energy      =      -0.0230029608726180 [Eh]
	 SCS Opposite-Spin Energy  =      -0.2612964264952399 [Eh]
	 SCS Correlation Energy    =      -0.2842993873678579 [Eh]
	 SCS Total Energy          =     -76.3409332992053891 [Eh]
	-----------------------------------------------------------


*** tstop() called on ddmfs1 at Mon Jan 22 13:21:42 2024
Module time:
	user time   =      16.71 seconds =       0.28 minutes
	system time =       0.92 seconds =       0.02 minutes
	total time  =          3 seconds =       0.05 minutes
Total time:
	user time   =      70.37 seconds =       1.17 minutes
	system time =       3.40 seconds =       0.06 minutes
	total time  =          6 seconds =       0.10 minutes

    Psi4 stopped on: Monday, 22 January 2024 01:21PM
    Psi4 wall time for execution: 0:00:06.05

*** Psi4 exiting successfully. Buy a developer a beer!
