
    -----------------------------------------------------------------------
          Psi4: An Open-Source Ab Initio Electronic Structure Package
                               Psi4 1.8.2 release

                         Git: Rev {} zzzzzzz 


    D. G. A. Smith, L. A. Burns, A. C. Simmonett, R. M. Parrish,
    M. C. Schieber, R. Galvelis, P. Kraus, H. Kruse, R. Di Remigio,
    A. Alenaizan, A. M. James, S. Lehtola, J. P. Misiewicz, M. Scheurer,
    R. A. Shaw, J. B. Schriber, Y. Xie, Z. L. Glick, D. A. Sirianni,
    J. S. O'Brien, J. M. Waldrop, A. Kumar, E. G. Hohenstein,
    B. P. Pritchard, B. R. Brooks, H. F. Schaefer III, A. Yu. Sokolov,
    K. Patkowski, A. E. DePrince III, U. Bozkaya, R. A. King,
    F. A. Evangelista, J. M. Turney, T. D. Crawford, C. D. Sherrill,
    J. Chem. Phys. 152(18) 184108 (2020). https://doi.org/10.1063/5.0006002

                            Additional Code Authors
    E. T. Seidl, C. L. Janssen, E. F. Valeev, M. L. Leininger,
    J. F. Gonthier, R. M. Richard, H. R. McAlexander, M. Saitow, X. Wang,
    P. Verma, M. H. Lechner, A. Jiang, S. Behnle, A. G. Heide,
    M. F. Herbst, and D. L. Poole

             Previous Authors, Complete List of Code Contributors,
                       and Citations for Specific Modules
    https://github.com/psi4/psi4/blob/master/codemeta.json
    https://github.com/psi4/psi4/graphs/contributors
    http://psicode.org/psi4manual/master/introduction.html#citing-psifour

    -----------------------------------------------------------------------


    Psi4 started on: Monday, 22 January 2024 01:00PM

    Process ID: 52950
    Host:       ddmfs1
    PSIDATADIR: /ddmfs1b/softs/psi4conda/share/psi4
    Memory:     500.0 MiB
    Threads:    20
    
  ==> Input File <==

--------------------------------------------------------------------------
MEMORY 60 GB

molecule dimer {
1 1
Li         0.000000     0.000000     0.000000
Gh(O)      0.284917     1.873038     0.598396
Gh(H)     -0.265799     2.437262     1.203763
Gh(H)      0.312342     2.308963    -0.239182
Gh(O)      1.375746    -1.157772    -0.584152
Gh(H)      2.185946    -1.587349    -0.474694
Gh(H)      0.789827    -1.882919    -1.039732
Gh(O)     -0.959321     0.359899    -1.687719
Gh(H)     -1.273101     1.273988    -1.980653
Gh(H)     -0.367583     0.108484    -2.390242
Gh(O)     -0.285954    -0.870627     1.731899
Gh(H)      0.387606    -1.563219     1.998960
Gh(H)     -1.094979    -1.130535     2.143406

units ang
no_reorient
no_com
symmetry c1
}

set {
basis        aug-cc-pVTZ
scf_type     df
}

energy("mp2")
--------------------------------------------------------------------------

  Memory set to  55.879 GiB by Python driver.

Scratch directory: /ddmfs1a/scratch/
   => Libint2 <=

    Primary   basis highest AM E, G, H:  5, 4, 3
    Auxiliary basis highest AM E, G, H:  6, 5, 4
    Onebody   basis highest AM E, G, H:  6, 5, 4
    Solid Harmonics ordering:            gaussian

*** tstart() called on ddmfs1
*** at Mon Jan 22 13:00:02 2024

   => Loading Basis Set <=

    Name: AUG-CC-PVTZ
    Role: ORBITAL
    Keyword: BASIS
    atoms 1                     entry LI         line    85 file /ddmfs1b/softs/psi4conda/share/psi4/basis/aug-cc-pvtz.gbs 
    atoms 2, 5, 8, 11           entry O          line   331 file /ddmfs1b/softs/psi4conda/share/psi4/basis/aug-cc-pvtz.gbs 
    atoms 3-4, 6-7, 9-10, 12-13 entry H          line    40 file /ddmfs1b/softs/psi4conda/share/psi4/basis/aug-cc-pvtz.gbs 


         ---------------------------------------------------------
                                   SCF
               by Justin Turney, Rob Parrish, Andy Simmonett
                          and Daniel G. A. Smith
                              RHF Reference
                       20 Threads,  57220 MiB Core
         ---------------------------------------------------------

  ==> Geometry <==

    Molecular point group: c1
    Full point group: C1

    Geometry (in Angstrom), charge = 1, multiplicity = 1:

       Center              X                  Y                   Z               Mass       
    ------------   -----------------  -----------------  -----------------  -----------------
         LI           0.000000000000     0.000000000000     0.000000000000     7.016003436600
      Gh(O)           0.284917000000     1.873038000000     0.598396000000    15.994914619570
      Gh(H)          -0.265799000000     2.437262000000     1.203763000000     1.007825032230
      Gh(H)           0.312342000000     2.308963000000    -0.239182000000     1.007825032230
      Gh(O)           1.375746000000    -1.157772000000    -0.584152000000    15.994914619570
      Gh(H)           2.185946000000    -1.587349000000    -0.474694000000     1.007825032230
      Gh(H)           0.789827000000    -1.882919000000    -1.039732000000     1.007825032230
      Gh(O)          -0.959321000000     0.359899000000    -1.687719000000    15.994914619570
      Gh(H)          -1.273101000000     1.273988000000    -1.980653000000     1.007825032230
      Gh(H)          -0.367583000000     0.108484000000    -2.390242000000     1.007825032230
      Gh(O)          -0.285954000000    -0.870627000000     1.731899000000    15.994914619570
      Gh(H)           0.387606000000    -1.563219000000     1.998960000000     1.007825032230
      Gh(H)          -1.094979000000    -1.130535000000     2.143406000000     1.007825032230

  Running in c1 symmetry.

  Rotational constants: A =      0.10431  B =      0.09236  C =      0.06752 [cm^-1]
  Rotational constants: A =   3127.20863  B =   2769.00340  C =   2024.27972 [MHz]
  Nuclear repulsion =    0.000000000000000

  Charge       = 1
  Multiplicity = 1
  Electrons    = 2
  Nalpha       = 1
  Nbeta        = 1

  ==> Algorithm <==

  SCF Algorithm Type is DF.
  DIIS enabled.
  MOM disabled.
  Fractional occupation disabled.
  Guess Type is SAD.
  Energy threshold   = 1.00e-08
  Density threshold  = 1.00e-08
  Integral threshold = 1.00e-12

  ==> Primary Basis <==

  Basis Set: AUG-CC-PVTZ
    Blend: AUG-CC-PVTZ
    Number of shells: 142
    Number of basis functions: 414
    Number of Cartesian functions: 475
    Spherical Harmonics?: true
    Max angular momentum: 3

   => Loading Basis Set <=

    Name: (AUG-CC-PVTZ AUX)
    Role: JKFIT
    Keyword: DF_BASIS_SCF
    atoms 1                     entry LI         line    54 file /ddmfs1b/softs/psi4conda/share/psi4/basis/def2-universal-jkfit.gbs 
    atoms 2, 5, 8, 11           entry O          line   286 file /ddmfs1b/softs/psi4conda/share/psi4/basis/aug-cc-pvtz-jkfit.gbs 
    atoms 3-4, 6-7, 9-10, 12-13 entry H          line    70 file /ddmfs1b/softs/psi4conda/share/psi4/basis/aug-cc-pvtz-jkfit.gbs 

  ==> Integral Setup <==

  DFHelper Memory: AOs need 1.082 GiB; user supplied 41.910 GiB. 
  Using in-core AOs.

  ==> MemDFJK: Density-Fitted J/K Matrices <==

    J tasked:                   Yes
    K tasked:                   Yes
    wK tasked:                   No
    OpenMP threads:              20
    Memory [MiB]:             42915
    Algorithm:                 Core
    Schwarz Cutoff:           1E-12
    Mask sparsity (%):       4.6290
    Fitting Condition:        1E-10

   => Auxiliary Basis Set <=

  Basis Set: (AUG-CC-PVTZ AUX)
    Blend: AUG-CC-PVTZ-JKFIT + DEF2-UNIVERSAL-JKFIT
    Number of shells: 249
    Number of basis functions: 835
    Number of Cartesian functions: 1024
    Spherical Harmonics?: true
    Max angular momentum: 4

  Minimum eigenvalue in the overlap matrix is 1.3672565722E-05.
  Reciprocal condition number of the overlap matrix is 9.4897270896E-07.
    Using symmetric orthogonalization.

  ==> Pre-Iterations <==

  SCF Guess: Superposition of Atomic Densities via on-the-fly atomic UHF (no occupation information).

   -------------------------
    Irrep   Nso     Nmo    
   -------------------------
     A        414     414 
   -------------------------
    Total     414     414
   -------------------------

  ==> Iterations <==

                           Total Energy        Delta E     RMS |[F,P]|

   @DF-RHF iter SAD:    -7.31417434512490   -7.31417e+00   0.00000e+00 
   @DF-RHF iter   1:    -7.23638295761899    7.77914e-02   5.48819e-06 DIIS
   @DF-RHF iter   2:    -7.23638488122040   -1.92360e-06   6.70859e-07 DIIS
   @DF-RHF iter   3:    -7.23638491280891   -3.15885e-08   3.49078e-08 DIIS
   @DF-RHF iter   4:    -7.23638491287113   -6.22231e-11   2.47356e-10 DIIS
  Energy and wave function converged.


  ==> Post-Iterations <==

    Orbital Energies [Eh]
    ---------------------

    Doubly Occupied:                                                      

       1A     -2.792352  

    Virtual:                                                              

       2A     -0.196302     3A     -0.128604     4A     -0.128603  
       5A     -0.128598     6A     -0.073766     7A     -0.056398  
       8A     -0.056394     9A     -0.056385    10A     -0.051648  
      11A     -0.050603    12A     -0.050169    13A     -0.048804  
      14A     -0.044654    15A     -0.022630    16A     -0.011460  
      17A     -0.010259    18A     -0.009232    19A     -0.007886  
      20A     -0.006152    21A      0.000833    22A      0.010015  
      23A      0.014028    24A      0.017518    25A      0.019251  
      26A      0.026397    27A      0.038579    28A      0.042084  
      29A      0.044277    30A      0.047724    31A      0.077399  
      32A      0.078857    33A      0.085305    34A      0.089307  
      35A      0.092512    36A      0.097157    37A      0.098565  
      38A      0.123410    39A      0.130789    40A      0.135685  
      41A      0.144463    42A      0.149214    43A      0.152342  
      44A      0.159854    45A      0.162772    46A      0.166197  
      47A      0.174004    48A      0.178095    49A      0.181296  
      50A      0.191470    51A      0.199901    52A      0.210512  
      53A      0.220186    54A      0.224879    55A      0.236018  
      56A      0.237936    57A      0.244106    58A      0.254950  
      59A      0.258926    60A      0.263199    61A      0.268246  
      62A      0.271626    63A      0.284083    64A      0.286976  
      65A      0.289826    66A      0.297289    67A      0.301245  
      68A      0.306103    69A      0.307477    70A      0.317958  
      71A      0.325816    72A      0.344114    73A      0.348270  
      74A      0.351266    75A      0.360667    76A      0.367571  
      77A      0.369730    78A      0.373736    79A      0.382577  
      80A      0.385514    81A      0.390328    82A      0.403666  
      83A      0.410209    84A      0.414819    85A      0.426088  
      86A      0.438440    87A      0.454231    88A      0.485987  
      89A      0.493562    90A      0.527837    91A      0.544549  
      92A      0.548661    93A      0.559564    94A      0.568580  
      95A      0.578640    96A      0.594048    97A      0.600267  
      98A      0.604148    99A      0.617651   100A      0.628808  
     101A      0.631786   102A      0.649917   103A      0.653594  
     104A      0.665790   105A      0.666387   106A      0.686155  
     107A      0.694168   108A      0.698057   109A      0.712607  
     110A      0.722492   111A      0.728088   112A      0.733976  
     113A      0.742912   114A      0.749061   115A      0.771496  
     116A      0.784613   117A      0.789844   118A      0.794669  
     119A      0.801936   120A      0.808257   121A      0.814210  
     122A      0.825889   123A      0.829220   124A      0.844328  
     125A      0.851851   126A      0.863204   127A      0.875743  
     128A      0.884184   129A      0.887481   130A      0.905437  
     131A      0.913107   132A      0.920564   133A      0.928069  
     134A      0.935794   135A      0.942168   136A      0.948031  
     137A      0.955307   138A      0.974624   139A      0.980705  
     140A      0.984511   141A      0.992878   142A      1.007792  
     143A      1.013943   144A      1.020332   145A      1.040774  
     146A      1.047042   147A      1.057719   148A      1.063532  
     149A      1.071844   150A      1.080887   151A      1.090746  
     152A      1.093091   153A      1.127335   154A      1.145883  
     155A      1.148875   156A      1.161445   157A      1.169728  
     158A      1.174378   159A      1.186307   160A      1.192462  
     161A      1.209302   162A      1.217314   163A      1.221300  
     164A      1.238710   165A      1.245138   166A      1.271387  
     167A      1.283199   168A      1.295578   169A      1.301565  
     170A      1.322120   171A      1.332393   172A      1.341855  
     173A      1.353733   174A      1.380076   175A      1.386215  
     176A      1.406481   177A      1.429106   178A      1.443904  
     179A      1.495040   180A      1.506911   181A      1.543055  
     182A      1.549415   183A      1.566032   184A      1.584893  
     185A      1.599082   186A      1.626349   187A      1.664339  
     188A      1.670931   189A      1.685094   190A      1.697516  
     191A      1.705678   192A      1.714282   193A      1.732857  
     194A      1.748139   195A      1.760423   196A      1.770407  
     197A      1.787179   198A      1.803410   199A      1.814640  
     200A      1.840004   201A      1.850857   202A      1.861120  
     203A      1.864665   204A      1.876920   205A      1.906854  
     206A      1.945437   207A      1.950077   208A      1.957140  
     209A      1.970001   210A      2.178909   211A      2.238971  
     212A      2.259035   213A      2.271041   214A      2.305232  
     215A      2.327260   216A      2.332694   217A      2.353769  
     218A      2.374002   219A      2.384091   220A      2.406120  
     221A      2.417045   222A      2.419202   223A      2.433356  
     224A      2.445125   225A      2.453647   226A      2.470037  
     227A      2.486243   228A      2.507075   229A      2.537134  
     230A      2.556137   231A      2.577079   232A      2.611365  
     233A      2.634803   234A      2.654909   235A      2.675289  
     236A      2.686419   237A      2.716313   238A      2.761270  
     239A      2.783889   240A      2.795208   241A      2.821238  
     242A      2.832883   243A      2.883481   244A      2.902521  
     245A      2.928238   246A      2.962625   247A      2.981334  
     248A      3.000178   249A      3.013976   250A      3.027825  
     251A      3.035843   252A      3.056397   253A      3.082668  
     254A      3.114796   255A      3.123670   256A      3.133417  
     257A      3.145044   258A      3.168923   259A      3.174414  
     260A      3.183070   261A      3.192556   262A      3.236088  
     263A      3.271798   264A      3.286197   265A      3.324850  
     266A      3.423208   267A      3.447547   268A      3.489825  
     269A      3.536439   270A      3.570461   271A      3.582473  
     272A      3.600915   273A      3.647944   274A      4.173567  
     275A      4.216686   276A      4.239612   277A      4.265041  
     278A      4.286896   279A      4.301218   280A      4.359301  
     281A      4.364503   282A      4.369342   283A      4.400156  
     284A      4.416861   285A      4.454657   286A      4.472080  
     287A      4.492572   288A      4.504018   289A      4.528022  
     290A      4.561814   291A      4.586257   292A      4.610996  
     293A      4.625568   294A      4.645631   295A      4.648532  
     296A      4.671543   297A      4.723722   298A      4.767353  
     299A      4.841601   300A      4.853530   301A      4.861787  
     302A      4.877460   303A      4.880681   304A      4.903664  
     305A      4.917628   306A      4.932202   307A      4.959467  
     308A      4.986285   309A      4.989931   310A      5.005593  
     311A      5.069672   312A      5.089051   313A      5.117981  
     314A      5.174768   315A      5.204118   316A      5.301698  
     317A      5.304405   318A      5.312071   319A      5.335392  
     320A      5.342281   321A      5.407970   322A      5.426121  
     323A      5.502561   324A      5.557863   325A      5.587587  
     326A      5.673124   327A      5.703829   328A      5.723582  
     329A      5.788120   330A      5.792868   331A      6.060408  
     332A      6.087761   333A      6.118968   334A      6.149804  
     335A      6.188776   336A      6.229967   337A      6.250338  
     338A      6.293666   339A      6.368509   340A      6.395080  
     341A      6.448981   342A      6.531067   343A      6.817183  
     344A      6.876304   345A      6.893085   346A      7.005641  
     347A      7.480914   348A      7.516591   349A      7.529366  
     350A      7.534596   351A      7.605616   352A      7.623276  
     353A      7.649969   354A      7.672251   355A      7.792285  
     356A      7.825947   357A      7.841514   358A      7.884459  
     359A      7.896754   360A      7.910509   361A      7.959581  
     362A      7.993195   363A      8.043430   364A      8.062229  
     365A      8.094865   366A      8.139664   367A      8.451120  
     368A      8.506661   369A      8.526461   370A      8.545352  
     371A      8.567702   372A      8.591416   373A      8.616233  
     374A      8.636947   375A      9.605743   376A      9.639171  
     377A      9.671205   378A      9.707517   379A      9.720261  
     380A      9.727074   381A      9.758708   382A      9.767128  
     383A      9.791475   384A      9.815167   385A      9.838471  
     386A      9.861851   387A      9.970583   388A      9.991503  
     389A     10.019249   390A     10.022764   391A     10.699109  
     392A     10.834006   393A     10.858433   394A     10.882309  
     395A     11.556623   396A     11.604641   397A     11.625913  
     398A     11.653150   399A     11.901441   400A     11.971990  
     401A     12.103368   402A     12.193033   403A     13.256561  
     404A     13.303743   405A     13.318520   406A     13.329543  
     407A     13.691124   408A     13.733554   409A     13.762577  
     410A     13.793848   411A     64.390870   412A     64.790930  
     413A     64.969332   414A     65.437662  

    Final Occupation by Irrep:
              A 
    DOCC [     1 ]
    NA   [     1 ]
    NB   [     1 ]

  @DF-RHF Final Energy:    -7.23638491287113

   => Energetics <=

    Nuclear Repulsion Energy =              0.0000000000000000
    One-Electron Energy =                  -8.8880653633862927
    Two-Electron Energy =                   1.6516804505151625
    Total Energy =                         -7.2363849128711299

Computation Completed


Properties will be evaluated at   0.000000,   0.000000,   0.000000 [a0]

Properties computed using the SCF density matrix


 Multipole Moments:

 ------------------------------------------------------------------------------------
     Multipole            Electronic (a.u.)      Nuclear  (a.u.)        Total (a.u.)
 ------------------------------------------------------------------------------------

 L = 1.  Multiply by 2.5417464519 to convert [e a0] to [Debye]
 Dipole X            :         -0.0000035            0.0000000           -0.0000035
 Dipole Y            :          0.0000024            0.0000000            0.0000024
 Dipole Z            :          0.0000025            0.0000000            0.0000025
 Magnitude           :                                                    0.0000049

 ------------------------------------------------------------------------------------

*** tstop() called on ddmfs1 at Mon Jan 22 13:00:04 2024
Module time:
	user time   =      40.47 seconds =       0.67 minutes
	system time =       2.41 seconds =       0.04 minutes
	total time  =          2 seconds =       0.03 minutes
Total time:
	user time   =      40.47 seconds =       0.67 minutes
	system time =       2.41 seconds =       0.04 minutes
	total time  =          2 seconds =       0.03 minutes

*** tstart() called on ddmfs1
*** at Mon Jan 22 13:00:04 2024


  //>>>>>>>>>>>>>>>>>>>>>>>>>>>>>>>>>>>//
  //               DFMP2               //
  //<<<<<<<<<<<<<<<<<<<<<<<<<<<<<<<<<<<//

   => Loading Basis Set <=

    Name: (AUG-CC-PVTZ AUX)
    Role: RIFIT
    Keyword: DF_BASIS_MP2
    atoms 1                     entry LI         line    90 file /ddmfs1b/softs/psi4conda/share/psi4/basis/def2-qzvpp-ri.gbs 
    atoms 2, 5, 8, 11           entry O          line   264 file /ddmfs1b/softs/psi4conda/share/psi4/basis/aug-cc-pvtz-ri.gbs 
    atoms 3-4, 6-7, 9-10, 12-13 entry H          line    30 file /ddmfs1b/softs/psi4conda/share/psi4/basis/aug-cc-pvtz-ri.gbs 

	 --------------------------------------------------------
	                          DF-MP2                         
	      2nd-Order Density-Fitted Moller-Plesset Theory     
	              RMP2 Wavefunction,  20 Threads             
	                                                         
	        Rob Parrish, Justin Turney, Andy Simmonett,      
	           Ed Hohenstein, and C. David Sherrill          
	 --------------------------------------------------------

   => Auxiliary Basis Set <=

  Basis Set: (AUG-CC-PVTZ AUX)
    Blend: AUG-CC-PVTZ-RI + DEF2-QZVPP-RI
    Number of shells: 251
    Number of basis functions: 893
    Number of Cartesian functions: 1114
    Spherical Harmonics?: true
    Max angular momentum: 4

	 --------------------------------------------------------
	                 NBF =   414, NAUX =   893
	 --------------------------------------------------------
	   CLASS    FOCC     OCC    AOCC    AVIR     VIR    FVIR
	   PAIRS       0       1       1     413     413       0
	 --------------------------------------------------------

	-----------------------------------------------------------
	 ==================> DF-MP2 Energies <==================== 
	-----------------------------------------------------------
	 Reference Energy          =      -7.2363849128711299 [Eh]
	 Singles Energy            =      -0.0000000000000000 [Eh]
	 Same-Spin Energy          =       0.0000000000000000 [Eh]
	 Opposite-Spin Energy      =      -0.0170361873223478 [Eh]
	 Correlation Energy        =      -0.0170361873223478 [Eh]
	 Total Energy              =      -7.2534211001934779 [Eh]
	-----------------------------------------------------------
	 ================> DF-SCS-MP2 Energies <================== 
	-----------------------------------------------------------
	 SCS Same-Spin Scale       =       0.3333333333333333 [-]
	 SCS Opposite-Spin Scale   =       1.2000000000000000 [-]
	 SCS Same-Spin Energy      =       0.0000000000000000 [Eh]
	 SCS Opposite-Spin Energy  =      -0.0204434247868174 [Eh]
	 SCS Correlation Energy    =      -0.0204434247868174 [Eh]
	 SCS Total Energy          =      -7.2568283376579474 [Eh]
	-----------------------------------------------------------


*** tstop() called on ddmfs1 at Mon Jan 22 13:00:07 2024
Module time:
	user time   =      15.57 seconds =       0.26 minutes
	system time =       0.88 seconds =       0.01 minutes
	total time  =          3 seconds =       0.05 minutes
Total time:
	user time   =      56.06 seconds =       0.93 minutes
	system time =       3.29 seconds =       0.05 minutes
	total time  =          5 seconds =       0.08 minutes

    Psi4 stopped on: Monday, 22 January 2024 01:00PM
    Psi4 wall time for execution: 0:00:05.36

*** Psi4 exiting successfully. Buy a developer a beer!
