
    -----------------------------------------------------------------------
          Psi4: An Open-Source Ab Initio Electronic Structure Package
                               Psi4 1.8.2 release

                         Git: Rev {} zzzzzzz 


    D. G. A. Smith, L. A. Burns, A. C. Simmonett, R. M. Parrish,
    M. C. Schieber, R. Galvelis, P. Kraus, H. Kruse, R. Di Remigio,
    A. Alenaizan, A. M. James, S. Lehtola, J. P. Misiewicz, M. Scheurer,
    R. A. Shaw, J. B. Schriber, Y. Xie, Z. L. Glick, D. A. Sirianni,
    J. S. O'Brien, J. M. Waldrop, A. Kumar, E. G. Hohenstein,
    B. P. Pritchard, B. R. Brooks, H. F. Schaefer III, A. Yu. Sokolov,
    K. Patkowski, A. E. DePrince III, U. Bozkaya, R. A. King,
    F. A. Evangelista, J. M. Turney, T. D. Crawford, C. D. Sherrill,
    J. Chem. Phys. 152(18) 184108 (2020). https://doi.org/10.1063/5.0006002

                            Additional Code Authors
    E. T. Seidl, C. L. Janssen, E. F. Valeev, M. L. Leininger,
    J. F. Gonthier, R. M. Richard, H. R. McAlexander, M. Saitow, X. Wang,
    P. Verma, M. H. Lechner, A. Jiang, S. Behnle, A. G. Heide,
    M. F. Herbst, and D. L. Poole

             Previous Authors, Complete List of Code Contributors,
                       and Citations for Specific Modules
    https://github.com/psi4/psi4/blob/master/codemeta.json
    https://github.com/psi4/psi4/graphs/contributors
    http://psicode.org/psi4manual/master/introduction.html#citing-psifour

    -----------------------------------------------------------------------


    Psi4 started on: Monday, 22 January 2024 01:21PM

    Process ID: 57247
    Host:       ddmfs1
    PSIDATADIR: /ddmfs1b/softs/psi4conda/share/psi4
    Memory:     500.0 MiB
    Threads:    20
    
  ==> Input File <==

--------------------------------------------------------------------------
MEMORY 60 GB

molecule dimer {
1 1
Li         0.000000     0.000000     0.000000
O         -0.960185    -1.720806     0.734715
H         -1.609753    -1.980636     0.053101
H         -1.464227    -1.639800     1.581140
O         -0.437682     0.868054     1.944262
H          0.112980     1.630091     1.719873
H          0.152970     0.176865     2.309788
O         -1.028560     1.162893    -1.082054
H         -1.748052     1.570993    -0.564156
H         -1.147301     1.431115    -1.976130
O          1.527560    -0.693332    -0.338641
H          1.804729    -1.158174    -1.131997
H          2.284838    -0.148433    -0.221551

units ang
no_reorient
no_com
symmetry c1
}

set {
basis        aug-cc-pVTZ
scf_type     df
}

energy("mp2")
--------------------------------------------------------------------------

  Memory set to  55.879 GiB by Python driver.

Scratch directory: /ddmfs1a/scratch/
   => Libint2 <=

    Primary   basis highest AM E, G, H:  5, 4, 3
    Auxiliary basis highest AM E, G, H:  6, 5, 4
    Onebody   basis highest AM E, G, H:  6, 5, 4
    Solid Harmonics ordering:            gaussian

*** tstart() called on ddmfs1
*** at Mon Jan 22 13:21:08 2024

   => Loading Basis Set <=

    Name: AUG-CC-PVTZ
    Role: ORBITAL
    Keyword: BASIS
    atoms 1                     entry LI         line    85 file /ddmfs1b/softs/psi4conda/share/psi4/basis/aug-cc-pvtz.gbs 
    atoms 2, 5, 8, 11           entry O          line   331 file /ddmfs1b/softs/psi4conda/share/psi4/basis/aug-cc-pvtz.gbs 
    atoms 3-4, 6-7, 9-10, 12-13 entry H          line    40 file /ddmfs1b/softs/psi4conda/share/psi4/basis/aug-cc-pvtz.gbs 


         ---------------------------------------------------------
                                   SCF
               by Justin Turney, Rob Parrish, Andy Simmonett
                          and Daniel G. A. Smith
                              RHF Reference
                       20 Threads,  57220 MiB Core
         ---------------------------------------------------------

  ==> Geometry <==

    Molecular point group: c1
    Full point group: C1

    Geometry (in Angstrom), charge = 1, multiplicity = 1:

       Center              X                  Y                   Z               Mass       
    ------------   -----------------  -----------------  -----------------  -----------------
         LI           0.000000000000     0.000000000000     0.000000000000     7.016003436600
         O           -0.960185000000    -1.720806000000     0.734715000000    15.994914619570
         H           -1.609753000000    -1.980636000000     0.053101000000     1.007825032230
         H           -1.464227000000    -1.639800000000     1.581140000000     1.007825032230
         O           -0.437682000000     0.868054000000     1.944262000000    15.994914619570
         H            0.112980000000     1.630091000000     1.719873000000     1.007825032230
         H            0.152970000000     0.176865000000     2.309788000000     1.007825032230
         O           -1.028560000000     1.162893000000    -1.082054000000    15.994914619570
         H           -1.748052000000     1.570993000000    -0.564156000000     1.007825032230
         H           -1.147301000000     1.431115000000    -1.976130000000     1.007825032230
         O            1.527560000000    -0.693332000000    -0.338641000000    15.994914619570
         H            1.804729000000    -1.158174000000    -1.131997000000     1.007825032230
         H            2.284838000000    -0.148433000000    -0.221551000000     1.007825032230

  Running in c1 symmetry.

  Rotational constants: A =      0.09205  B =      0.09114  C =      0.07270 [cm^-1]
  Rotational constants: A =   2759.71560  B =   2732.42246  C =   2179.42351 [MHz]
  Nuclear repulsion =  164.548400554232074

  Charge       = 1
  Multiplicity = 1
  Electrons    = 42
  Nalpha       = 21
  Nbeta        = 21

  ==> Algorithm <==

  SCF Algorithm Type is DF.
  DIIS enabled.
  MOM disabled.
  Fractional occupation disabled.
  Guess Type is SAD.
  Energy threshold   = 1.00e-08
  Density threshold  = 1.00e-08
  Integral threshold = 1.00e-12

  ==> Primary Basis <==

  Basis Set: AUG-CC-PVTZ
    Blend: AUG-CC-PVTZ
    Number of shells: 142
    Number of basis functions: 414
    Number of Cartesian functions: 475
    Spherical Harmonics?: true
    Max angular momentum: 3

   => Loading Basis Set <=

    Name: (AUG-CC-PVTZ AUX)
    Role: JKFIT
    Keyword: DF_BASIS_SCF
    atoms 1                     entry LI         line    54 file /ddmfs1b/softs/psi4conda/share/psi4/basis/def2-universal-jkfit.gbs 
    atoms 2, 5, 8, 11           entry O          line   286 file /ddmfs1b/softs/psi4conda/share/psi4/basis/aug-cc-pvtz-jkfit.gbs 
    atoms 3-4, 6-7, 9-10, 12-13 entry H          line    70 file /ddmfs1b/softs/psi4conda/share/psi4/basis/aug-cc-pvtz-jkfit.gbs 

  ==> Integral Setup <==

  DFHelper Memory: AOs need 1.087 GiB; user supplied 41.910 GiB. 
  Using in-core AOs.

  ==> MemDFJK: Density-Fitted J/K Matrices <==

    J tasked:                   Yes
    K tasked:                   Yes
    wK tasked:                   No
    OpenMP threads:              20
    Memory [MiB]:             42915
    Algorithm:                 Core
    Schwarz Cutoff:           1E-12
    Mask sparsity (%):       4.1950
    Fitting Condition:        1E-10

   => Auxiliary Basis Set <=

  Basis Set: (AUG-CC-PVTZ AUX)
    Blend: AUG-CC-PVTZ-JKFIT + DEF2-UNIVERSAL-JKFIT
    Number of shells: 249
    Number of basis functions: 835
    Number of Cartesian functions: 1024
    Spherical Harmonics?: true
    Max angular momentum: 4

  Minimum eigenvalue in the overlap matrix is 1.0239893516E-05.
  Reciprocal condition number of the overlap matrix is 6.9463275762E-07.
    Using symmetric orthogonalization.

  ==> Pre-Iterations <==

  SCF Guess: Superposition of Atomic Densities via on-the-fly atomic UHF (no occupation information).

   -------------------------
    Irrep   Nso     Nmo    
   -------------------------
     A        414     414 
   -------------------------
    Total     414     414
   -------------------------

  ==> Iterations <==

                           Total Energy        Delta E     RMS |[F,P]|

   @DF-RHF iter SAD:  -309.62072538198089   -3.09621e+02   0.00000e+00 
   @DF-RHF iter   1:  -311.27083244778663   -1.65011e+00   2.27409e-03 DIIS/ADIIS
   @DF-RHF iter   2:  -311.49423570164299   -2.23403e-01   1.46314e-03 DIIS/ADIIS
   @DF-RHF iter   3:  -311.60644129137188   -1.12206e-01   1.11750e-04 DIIS/ADIIS
   @DF-RHF iter   4:  -311.60810581931980   -1.66453e-03   2.85332e-05 DIIS
   @DF-RHF iter   5:  -311.60821276967044   -1.06950e-04   8.56542e-06 DIIS
   @DF-RHF iter   6:  -311.60822260881741   -9.83915e-06   3.59993e-06 DIIS
   @DF-RHF iter   7:  -311.60822397274137   -1.36392e-06   6.58147e-07 DIIS
   @DF-RHF iter   8:  -311.60822406940656   -9.66652e-08   1.36735e-07 DIIS
   @DF-RHF iter   9:  -311.60822407278687   -3.38031e-09   4.45238e-08 DIIS
   @DF-RHF iter  10:  -311.60822407300191   -2.15039e-10   1.52340e-08 DIIS
   @DF-RHF iter  11:  -311.60822407302743   -2.55227e-11   3.83141e-09 DIIS
  Energy and wave function converged.


  ==> Post-Iterations <==

    Orbital Energies [Eh]
    ---------------------

    Doubly Occupied:                                                      

       1A    -20.767665     2A    -20.759052     3A    -20.748782  
       4A    -20.736948     5A     -2.546071     6A     -1.572720  
       7A     -1.550241     8A     -1.528896     9A     -1.511039  
      10A     -0.919368    11A     -0.917262    12A     -0.898736  
      13A     -0.874317    14A     -0.835159    15A     -0.802197  
      16A     -0.760479    17A     -0.756271    18A     -0.726569  
      19A     -0.711515    20A     -0.702358    21A     -0.677126  

    Virtual:                                                              

      22A     -0.103678    23A     -0.080329    24A     -0.075767  
      25A     -0.072679    26A     -0.046813    27A     -0.046021  
      28A     -0.044964    29A     -0.041479    30A     -0.040064  
      31A     -0.034270    32A     -0.032878    33A     -0.028978  
      34A     -0.024849    35A     -0.011187    36A     -0.004015  
      37A      0.005587    38A      0.019855    39A      0.025031  
      40A      0.027519    41A      0.033878    42A      0.042788  
      43A      0.044508    44A      0.049348    45A      0.050017  
      46A      0.061106    47A      0.062201    48A      0.067770  
      49A      0.070573    50A      0.084680    51A      0.089961  
      52A      0.094806    53A      0.102156    54A      0.104508  
      55A      0.113572    56A      0.119414    57A      0.125554  
      58A      0.133036    59A      0.142681    60A      0.160974  
      61A      0.167866    62A      0.175971    63A      0.186758  
      64A      0.189393    65A      0.196050    66A      0.204911  
      67A      0.209763    68A      0.214786    69A      0.225361  
      70A      0.232717    71A      0.238076    72A      0.246220  
      73A      0.251009    74A      0.252553    75A      0.259983  
      76A      0.269363    77A      0.274109    78A      0.281155  
      79A      0.286533    80A      0.291617    81A      0.296348  
      82A      0.307045    83A      0.313712    84A      0.319530  
      85A      0.324172    86A      0.328356    87A      0.330198  
      88A      0.341667    89A      0.349543    90A      0.351547  
      91A      0.354422    92A      0.362111    93A      0.365472  
      94A      0.374625    95A      0.376983    96A      0.379286  
      97A      0.386964    98A      0.398320    99A      0.405434  
     100A      0.409248   101A      0.415646   102A      0.437451  
     103A      0.449297   104A      0.454553   105A      0.463751  
     106A      0.480225   107A      0.513069   108A      0.519961  
     109A      0.538007   110A      0.555305   111A      0.565377  
     112A      0.582342   113A      0.588551   114A      0.597645  
     115A      0.602713   116A      0.607322   117A      0.625607  
     118A      0.631681   119A      0.634537   120A      0.660935  
     121A      0.682453   122A      0.687849   123A      0.690182  
     124A      0.711549   125A      0.719915   126A      0.723391  
     127A      0.731271   128A      0.753806   129A      0.763536  
     130A      0.775626   131A      0.780900   132A      0.790173  
     133A      0.799956   134A      0.805580   135A      0.808591  
     136A      0.818953   137A      0.827224   138A      0.832797  
     139A      0.842790   140A      0.848654   141A      0.852947  
     142A      0.863942   143A      0.874444   144A      0.881797  
     145A      0.888196   146A      0.896073   147A      0.909437  
     148A      0.913972   149A      0.917970   150A      0.928073  
     151A      0.932926   152A      0.942718   153A      0.954511  
     154A      0.960850   155A      0.962839   156A      0.970182  
     157A      0.987360   158A      0.992327   159A      1.001387  
     160A      1.011866   161A      1.019070   162A      1.025153  
     163A      1.034076   164A      1.040202   165A      1.048590  
     166A      1.059419   167A      1.066478   168A      1.079159  
     169A      1.101770   170A      1.110023   171A      1.119273  
     172A      1.131095   173A      1.139620   174A      1.146847  
     175A      1.157550   176A      1.175803   177A      1.190715  
     178A      1.204787   179A      1.206777   180A      1.220452  
     181A      1.227932   182A      1.244770   183A      1.255914  
     184A      1.265523   185A      1.274364   186A      1.297981  
     187A      1.307355   188A      1.325687   189A      1.330100  
     190A      1.357538   191A      1.379863   192A      1.390647  
     193A      1.406507   194A      1.444365   195A      1.468126  
     196A      1.471154   197A      1.495280   198A      1.536279  
     199A      1.540844   200A      1.565721   201A      1.576925  
     202A      1.588845   203A      1.595261   204A      1.609653  
     205A      1.645359   206A      1.649885   207A      1.660035  
     208A      1.678006   209A      1.692640   210A      1.696480  
     211A      1.700274   212A      1.722471   213A      1.740283  
     214A      1.763026   215A      1.769530   216A      1.776450  
     217A      1.866248   218A      1.882434   219A      1.895371  
     220A      1.901848   221A      1.923996   222A      1.932558  
     223A      1.950308   224A      1.959270   225A      2.014930  
     226A      2.034487   227A      2.055354   228A      2.149073  
     229A      2.161844   230A      2.201380   231A      2.214843  
     232A      2.238560   233A      2.242045   234A      2.254242  
     235A      2.270353   236A      2.299218   237A      2.304169  
     238A      2.330751   239A      2.335919   240A      2.360018  
     241A      2.366344   242A      2.384244   243A      2.407947  
     244A      2.422868   245A      2.433101   246A      2.463497  
     247A      2.484591   248A      2.495282   249A      2.513766  
     250A      2.537197   251A      2.541535   252A      2.564636  
     253A      2.573492   254A      2.601963   255A      2.618779  
     256A      2.621579   257A      2.638252   258A      2.648899  
     259A      2.651123   260A      2.676253   261A      2.686854  
     262A      2.697660   263A      2.719606   264A      2.725575  
     265A      2.752849   266A      2.767079   267A      2.774453  
     268A      2.800638   269A      2.821475   270A      2.835631  
     271A      2.857782   272A      2.873037   273A      2.889247  
     274A      2.930907   275A      2.948325   276A      2.981657  
     277A      3.035105   278A      3.637131   279A      3.704925  
     280A      3.718900   281A      3.736672   282A      3.779907  
     283A      3.797047   284A      3.820387   285A      3.873893  
     286A      3.911122   287A      3.980156   288A      3.990654  
     289A      3.994875   290A      4.042975   291A      4.052808  
     292A      4.091117   293A      4.113412   294A      4.120779  
     295A      4.149838   296A      4.168149   297A      4.181852  
     298A      4.197448   299A      4.216877   300A      4.223435  
     301A      4.266737   302A      4.281163   303A      4.322775  
     304A      4.332968   305A      4.341065   306A      4.357701  
     307A      4.389326   308A      4.395955   309A      4.399573  
     310A      4.409514   311A      4.430735   312A      4.447691  
     313A      4.452023   314A      4.476375   315A      4.490148  
     316A      4.492768   317A      4.506863   318A      4.536966  
     319A      4.562980   320A      4.579039   321A      4.590268  
     322A      4.648129   323A      4.664388   324A      4.691053  
     325A      4.703935   326A      4.748371   327A      4.761774  
     328A      4.770316   329A      4.839255   330A      4.923079  
     331A      4.974069   332A      5.005855   333A      5.010302  
     334A      5.026652   335A      5.052527   336A      5.060010  
     337A      5.091163   338A      5.113691   339A      5.137303  
     340A      5.172651   341A      5.194923   342A      5.254123  
     343A      5.263815   344A      5.289394   345A      5.322055  
     346A      5.361990   347A      5.379313   348A      5.414048  
     349A      5.472956   350A      5.523269   351A      5.632969  
     352A      5.672066   353A      5.690989   354A      5.843440  
     355A      6.119241   356A      6.160079   357A      6.169935  
     358A      6.287263   359A      6.434079   360A      6.466174  
     361A      6.469832   362A      6.502814   363A      6.605013  
     364A      6.644584   365A      6.690154   366A      6.692946  
     367A      6.754940   368A      6.801949   369A      6.832333  
     370A      6.919294   371A      6.995771   372A      7.030673  
     373A      7.053350   374A      7.076688   375A      7.093005  
     376A      7.131701   377A      7.142485   378A      7.163479  
     379A      7.169449   380A      7.174677   381A      7.193185  
     382A      7.198244   383A      7.207835   384A      7.215927  
     385A      7.236025   386A      7.243814   387A      7.246800  
     388A      7.250834   389A      7.279190   390A      7.288777  
     391A      7.315095   392A      7.326742   393A      7.369976  
     394A      7.408301   395A      7.472849   396A      7.549865  
     397A      7.564861   398A      7.655032   399A      7.662784  
     400A      7.766376   401A      7.771108   402A      7.789489  
     403A      7.804484   404A      7.818476   405A      7.875157  
     406A      7.906059   407A      8.626815   408A      8.683565  
     409A      8.714951   410A      8.841665   411A     15.461919  
     412A     15.892970   413A     16.141045   414A     16.587418  

    Final Occupation by Irrep:
              A 
    DOCC [    21 ]
    NA   [    21 ]
    NB   [    21 ]

  @DF-RHF Final Energy:  -311.60822407302743

   => Energetics <=

    Nuclear Repulsion Energy =            164.5484005542320745
    One-Electron Energy =                -749.7077076608560446
    Two-Electron Energy =                 273.5510830335965125
    Total Energy =                       -311.6082240730274293

Computation Completed


Properties will be evaluated at   0.000000,   0.000000,   0.000000 [a0]

Properties computed using the SCF density matrix


 Multipole Moments:

 ------------------------------------------------------------------------------------
     Multipole            Electronic (a.u.)      Nuclear  (a.u.)        Total (a.u.)
 ------------------------------------------------------------------------------------

 L = 1.  Multiply by 2.5417464519 to convert [e a0] to [Debye]
 Dipole X            :         16.6843867          -16.6385699            0.0458168
 Dipole Y            :          6.3991954           -6.0159563            0.3832390
 Dipole Z            :        -22.8294781           22.3674107           -0.4620674
 Magnitude           :                                                    0.6020612

 ------------------------------------------------------------------------------------

*** tstop() called on ddmfs1 at Mon Jan 22 13:21:13 2024
Module time:
	user time   =      72.38 seconds =       1.21 minutes
	system time =       3.87 seconds =       0.06 minutes
	total time  =          5 seconds =       0.08 minutes
Total time:
	user time   =      72.38 seconds =       1.21 minutes
	system time =       3.87 seconds =       0.06 minutes
	total time  =          5 seconds =       0.08 minutes

*** tstart() called on ddmfs1
*** at Mon Jan 22 13:21:13 2024


  //>>>>>>>>>>>>>>>>>>>>>>>>>>>>>>>>>>>//
  //               DFMP2               //
  //<<<<<<<<<<<<<<<<<<<<<<<<<<<<<<<<<<<//

   => Loading Basis Set <=

    Name: (AUG-CC-PVTZ AUX)
    Role: RIFIT
    Keyword: DF_BASIS_MP2
    atoms 1                     entry LI         line    90 file /ddmfs1b/softs/psi4conda/share/psi4/basis/def2-qzvpp-ri.gbs 
    atoms 2, 5, 8, 11           entry O          line   264 file /ddmfs1b/softs/psi4conda/share/psi4/basis/aug-cc-pvtz-ri.gbs 
    atoms 3-4, 6-7, 9-10, 12-13 entry H          line    30 file /ddmfs1b/softs/psi4conda/share/psi4/basis/aug-cc-pvtz-ri.gbs 

	 --------------------------------------------------------
	                          DF-MP2                         
	      2nd-Order Density-Fitted Moller-Plesset Theory     
	              RMP2 Wavefunction,  20 Threads             
	                                                         
	        Rob Parrish, Justin Turney, Andy Simmonett,      
	           Ed Hohenstein, and C. David Sherrill          
	 --------------------------------------------------------

   => Auxiliary Basis Set <=

  Basis Set: (AUG-CC-PVTZ AUX)
    Blend: AUG-CC-PVTZ-RI + DEF2-QZVPP-RI
    Number of shells: 251
    Number of basis functions: 893
    Number of Cartesian functions: 1114
    Spherical Harmonics?: true
    Max angular momentum: 4

	 --------------------------------------------------------
	                 NBF =   414, NAUX =   893
	 --------------------------------------------------------
	   CLASS    FOCC     OCC    AOCC    AVIR     VIR    FVIR
	   PAIRS       0      21      21     393     393       0
	 --------------------------------------------------------

	-----------------------------------------------------------
	 ==================> DF-MP2 Energies <==================== 
	-----------------------------------------------------------
	 Reference Energy          =    -311.6082240730274293 [Eh]
	 Singles Energy            =      -0.0000000000000000 [Eh]
	 Same-Spin Energy          =      -0.2763614504311552 [Eh]
	 Opposite-Spin Energy      =      -0.8802147471433391 [Eh]
	 Correlation Energy        =      -1.1565761975744944 [Eh]
	 Total Energy              =    -312.7648002706019383 [Eh]
	-----------------------------------------------------------
	 ================> DF-SCS-MP2 Energies <================== 
	-----------------------------------------------------------
	 SCS Same-Spin Scale       =       0.3333333333333333 [-]
	 SCS Opposite-Spin Scale   =       1.2000000000000000 [-]
	 SCS Same-Spin Energy      =      -0.0921204834770517 [Eh]
	 SCS Opposite-Spin Energy  =      -1.0562576965720070 [Eh]
	 SCS Correlation Energy    =      -1.1483781800490587 [Eh]
	 SCS Total Energy          =    -312.7566022530764940 [Eh]
	-----------------------------------------------------------


*** tstop() called on ddmfs1 at Mon Jan 22 13:21:16 2024
Module time:
	user time   =      23.09 seconds =       0.38 minutes
	system time =       1.18 seconds =       0.02 minutes
	total time  =          3 seconds =       0.05 minutes
Total time:
	user time   =      95.48 seconds =       1.59 minutes
	system time =       5.05 seconds =       0.08 minutes
	total time  =          8 seconds =       0.13 minutes

    Psi4 stopped on: Monday, 22 January 2024 01:21PM
    Psi4 wall time for execution: 0:00:07.41

*** Psi4 exiting successfully. Buy a developer a beer!
