
    -----------------------------------------------------------------------
          Psi4: An Open-Source Ab Initio Electronic Structure Package
                               Psi4 1.8.2 release

                         Git: Rev {} zzzzzzz 


    D. G. A. Smith, L. A. Burns, A. C. Simmonett, R. M. Parrish,
    M. C. Schieber, R. Galvelis, P. Kraus, H. Kruse, R. Di Remigio,
    A. Alenaizan, A. M. James, S. Lehtola, J. P. Misiewicz, M. Scheurer,
    R. A. Shaw, J. B. Schriber, Y. Xie, Z. L. Glick, D. A. Sirianni,
    J. S. O'Brien, J. M. Waldrop, A. Kumar, E. G. Hohenstein,
    B. P. Pritchard, B. R. Brooks, H. F. Schaefer III, A. Yu. Sokolov,
    K. Patkowski, A. E. DePrince III, U. Bozkaya, R. A. King,
    F. A. Evangelista, J. M. Turney, T. D. Crawford, C. D. Sherrill,
    J. Chem. Phys. 152(18) 184108 (2020). https://doi.org/10.1063/5.0006002

                            Additional Code Authors
    E. T. Seidl, C. L. Janssen, E. F. Valeev, M. L. Leininger,
    J. F. Gonthier, R. M. Richard, H. R. McAlexander, M. Saitow, X. Wang,
    P. Verma, M. H. Lechner, A. Jiang, S. Behnle, A. G. Heide,
    M. F. Herbst, and D. L. Poole

             Previous Authors, Complete List of Code Contributors,
                       and Citations for Specific Modules
    https://github.com/psi4/psi4/blob/master/codemeta.json
    https://github.com/psi4/psi4/graphs/contributors
    http://psicode.org/psi4manual/master/introduction.html#citing-psifour

    -----------------------------------------------------------------------


    Psi4 started on: Monday, 22 January 2024 01:03PM

    Process ID: 53539
    Host:       ddmfs1
    PSIDATADIR: /ddmfs1b/softs/psi4conda/share/psi4
    Memory:     500.0 MiB
    Threads:    20
    
  ==> Input File <==

--------------------------------------------------------------------------
MEMORY 60 GB

molecule dimer {
0 1
Gh(Li)     0.000000     0.000000     0.000000
Gh(O)      0.479299    -0.023155     2.040576
Gh(H)      1.401203    -0.047344     1.992724
Gh(H)      0.183700    -0.723857     2.589691
Gh(O)      1.211465     0.917124    -1.085982
Gh(H)      1.893267     0.250849    -1.335533
Gh(H)      1.514507     1.731669    -0.789172
O          0.020647    -1.905313    -0.620925
H          0.710937    -2.493526    -1.007313
H         -0.763325    -2.495709    -0.483083
Gh(O)     -1.823938     0.516909    -0.645776
Gh(H)     -2.499709    -0.060327    -0.255399
Gh(H)     -2.179640     1.399153    -0.823341

units ang
no_reorient
no_com
symmetry c1
}

set {
basis        aug-cc-pVTZ
scf_type     df
}

energy("mp2")
--------------------------------------------------------------------------

  Memory set to  55.879 GiB by Python driver.

Scratch directory: /ddmfs1a/scratch/
   => Libint2 <=

    Primary   basis highest AM E, G, H:  5, 4, 3
    Auxiliary basis highest AM E, G, H:  6, 5, 4
    Onebody   basis highest AM E, G, H:  6, 5, 4
    Solid Harmonics ordering:            gaussian

*** tstart() called on ddmfs1
*** at Mon Jan 22 13:03:07 2024

   => Loading Basis Set <=

    Name: AUG-CC-PVTZ
    Role: ORBITAL
    Keyword: BASIS
    atoms 1                     entry LI         line    85 file /ddmfs1b/softs/psi4conda/share/psi4/basis/aug-cc-pvtz.gbs 
    atoms 2, 5, 8, 11           entry O          line   331 file /ddmfs1b/softs/psi4conda/share/psi4/basis/aug-cc-pvtz.gbs 
    atoms 3-4, 6-7, 9-10, 12-13 entry H          line    40 file /ddmfs1b/softs/psi4conda/share/psi4/basis/aug-cc-pvtz.gbs 


         ---------------------------------------------------------
                                   SCF
               by Justin Turney, Rob Parrish, Andy Simmonett
                          and Daniel G. A. Smith
                              RHF Reference
                       20 Threads,  57220 MiB Core
         ---------------------------------------------------------

  ==> Geometry <==

    Molecular point group: c1
    Full point group: C1

    Geometry (in Angstrom), charge = 0, multiplicity = 1:

       Center              X                  Y                   Z               Mass       
    ------------   -----------------  -----------------  -----------------  -----------------
      Gh(LI)          0.000000000000     0.000000000000     0.000000000000     7.016003436600
      Gh(O)           0.479299000000    -0.023155000000     2.040576000000    15.994914619570
      Gh(H)           1.401203000000    -0.047344000000     1.992724000000     1.007825032230
      Gh(H)           0.183700000000    -0.723857000000     2.589691000000     1.007825032230
      Gh(O)           1.211465000000     0.917124000000    -1.085982000000    15.994914619570
      Gh(H)           1.893267000000     0.250849000000    -1.335533000000     1.007825032230
      Gh(H)           1.514507000000     1.731669000000    -0.789172000000     1.007825032230
         O            0.020647000000    -1.905313000000    -0.620925000000    15.994914619570
         H            0.710937000000    -2.493526000000    -1.007313000000     1.007825032230
         H           -0.763325000000    -2.495709000000    -0.483083000000     1.007825032230
      Gh(O)          -1.823938000000     0.516909000000    -0.645776000000    15.994914619570
      Gh(H)          -2.499709000000    -0.060327000000    -0.255399000000     1.007825032230
      Gh(H)          -2.179640000000     1.399153000000    -0.823341000000     1.007825032230

  Running in c1 symmetry.

  Rotational constants: A =      0.09137  B =      0.07973  C =      0.07665 [cm^-1]
  Rotational constants: A =   2739.32696  B =   2390.31338  C =   2298.01020 [MHz]
  Nuclear repulsion =    8.904270341452287

  Charge       = 0
  Multiplicity = 1
  Electrons    = 10
  Nalpha       = 5
  Nbeta        = 5

  ==> Algorithm <==

  SCF Algorithm Type is DF.
  DIIS enabled.
  MOM disabled.
  Fractional occupation disabled.
  Guess Type is SAD.
  Energy threshold   = 1.00e-08
  Density threshold  = 1.00e-08
  Integral threshold = 1.00e-12

  ==> Primary Basis <==

  Basis Set: AUG-CC-PVTZ
    Blend: AUG-CC-PVTZ
    Number of shells: 142
    Number of basis functions: 414
    Number of Cartesian functions: 475
    Spherical Harmonics?: true
    Max angular momentum: 3

   => Loading Basis Set <=

    Name: (AUG-CC-PVTZ AUX)
    Role: JKFIT
    Keyword: DF_BASIS_SCF
    atoms 1                     entry LI         line    54 file /ddmfs1b/softs/psi4conda/share/psi4/basis/def2-universal-jkfit.gbs 
    atoms 2, 5, 8, 11           entry O          line   286 file /ddmfs1b/softs/psi4conda/share/psi4/basis/aug-cc-pvtz-jkfit.gbs 
    atoms 3-4, 6-7, 9-10, 12-13 entry H          line    70 file /ddmfs1b/softs/psi4conda/share/psi4/basis/aug-cc-pvtz-jkfit.gbs 

  ==> Integral Setup <==

  DFHelper Memory: AOs need 1.080 GiB; user supplied 41.910 GiB. 
  Using in-core AOs.

  ==> MemDFJK: Density-Fitted J/K Matrices <==

    J tasked:                   Yes
    K tasked:                   Yes
    wK tasked:                   No
    OpenMP threads:              20
    Memory [MiB]:             42915
    Algorithm:                 Core
    Schwarz Cutoff:           1E-12
    Mask sparsity (%):       4.8729
    Fitting Condition:        1E-10

   => Auxiliary Basis Set <=

  Basis Set: (AUG-CC-PVTZ AUX)
    Blend: AUG-CC-PVTZ-JKFIT + DEF2-UNIVERSAL-JKFIT
    Number of shells: 249
    Number of basis functions: 835
    Number of Cartesian functions: 1024
    Spherical Harmonics?: true
    Max angular momentum: 4

  Minimum eigenvalue in the overlap matrix is 1.5445444136E-05.
  Reciprocal condition number of the overlap matrix is 1.0900414326E-06.
    Using symmetric orthogonalization.

  ==> Pre-Iterations <==

  SCF Guess: Superposition of Atomic Densities via on-the-fly atomic UHF (no occupation information).

   -------------------------
    Irrep   Nso     Nmo    
   -------------------------
     A        414     414 
   -------------------------
    Total     414     414
   -------------------------

  ==> Iterations <==

                           Total Energy        Delta E     RMS |[F,P]|

   @DF-RHF iter SAD:   -75.44134244028082   -7.54413e+01   0.00000e+00 
   @DF-RHF iter   1:   -75.97117744043778   -5.29835e-01   1.12646e-03 ADIIS/DIIS
   @DF-RHF iter   2:   -76.02272467776899   -5.15472e-02   7.93136e-04 ADIIS/DIIS
   @DF-RHF iter   3:   -76.05644016074206   -3.37155e-02   5.41768e-05 DIIS
   @DF-RHF iter   4:   -76.05687299349192   -4.32833e-04   1.38064e-05 DIIS
   @DF-RHF iter   5:   -76.05690423903442   -3.12455e-05   3.21918e-06 DIIS
   @DF-RHF iter   6:   -76.05690690861479   -2.66958e-06   7.07329e-07 DIIS
   @DF-RHF iter   7:   -76.05690704801779   -1.39403e-07   1.25151e-07 DIIS
   @DF-RHF iter   8:   -76.05690705179072   -3.77293e-09   2.18683e-08 DIIS
   @DF-RHF iter   9:   -76.05690705188486   -9.41469e-11   5.69013e-09 DIIS
  Energy and wave function converged.


  ==> Post-Iterations <==

    Orbital Energies [Eh]
    ---------------------

    Doubly Occupied:                                                      

       1A    -20.572288     2A     -1.337844     3A     -0.701205  
       4A     -0.578582     5A     -0.507777  

    Virtual:                                                              

       6A      0.008872     7A      0.018040     8A      0.018439  
       9A      0.019539    10A      0.044185    11A      0.053505  
      12A      0.057417    13A      0.059902    14A      0.061966  
      15A      0.065931    16A      0.067333    17A      0.069845  
      18A      0.071541    19A      0.083856    20A      0.103627  
      21A      0.105675    22A      0.142978    23A      0.150310  
      24A      0.151632    25A      0.155381    26A      0.159611  
      27A      0.161664    28A      0.162725    29A      0.164971  
      30A      0.172362    31A      0.177653    32A      0.181405  
      33A      0.185279    34A      0.190562    35A      0.200761  
      36A      0.214244    37A      0.217611    38A      0.230959  
      39A      0.242159    40A      0.244276    41A      0.257022  
      42A      0.279149    43A      0.302032    44A      0.311201  
      45A      0.315832    46A      0.324460    47A      0.330633  
      48A      0.336634    49A      0.344285    50A      0.351502  
      51A      0.359993    52A      0.364002    53A      0.365919  
      54A      0.370268    55A      0.374912    56A      0.378314  
      57A      0.382842    58A      0.388778    59A      0.396986  
      60A      0.400189    61A      0.404154    62A      0.410754  
      63A      0.415367    64A      0.426722    65A      0.428651  
      66A      0.432599    67A      0.435167    68A      0.442002  
      69A      0.444632    70A      0.455608    71A      0.460363  
      72A      0.472447    73A      0.480068    74A      0.487074  
      75A      0.496217    76A      0.501956    77A      0.516453  
      78A      0.518029    79A      0.522379    80A      0.528951  
      81A      0.532344    82A      0.549317    83A      0.554746  
      84A      0.568874    85A      0.586676    86A      0.588523  
      87A      0.608376    88A      0.612016    89A      0.646437  
      90A      0.670501    91A      0.686873    92A      0.727197  
      93A      0.733648    94A      0.759388    95A      0.772781  
      96A      0.787600    97A      0.798326    98A      0.803756  
      99A      0.810188   100A      0.822707   101A      0.832104  
     102A      0.838808   103A      0.842921   104A      0.846698  
     105A      0.851112   106A      0.861603   107A      0.864659  
     108A      0.873518   109A      0.886124   110A      0.892300  
     111A      0.897219   112A      0.915271   113A      0.924898  
     114A      0.932953   115A      0.936511   116A      0.952145  
     117A      0.962906   118A      0.969083   119A      0.969392  
     120A      0.976022   121A      0.991846   122A      0.999117  
     123A      1.002736   124A      1.013016   125A      1.020659  
     126A      1.021571   127A      1.042785   128A      1.045763  
     129A      1.058581   130A      1.069244   131A      1.070850  
     132A      1.077135   133A      1.087451   134A      1.093626  
     135A      1.095189   136A      1.107786   137A      1.110343  
     138A      1.130714   139A      1.133822   140A      1.140650  
     141A      1.145743   142A      1.161040   143A      1.164704  
     144A      1.174022   145A      1.192088   146A      1.202904  
     147A      1.213140   148A      1.221518   149A      1.236204  
     150A      1.243874   151A      1.248785   152A      1.255885  
     153A      1.273935   154A      1.280905   155A      1.291176  
     156A      1.306069   157A      1.329600   158A      1.341828  
     159A      1.349437   160A      1.354641   161A      1.358168  
     162A      1.375463   163A      1.389577   164A      1.411831  
     165A      1.418127   166A      1.423111   167A      1.441117  
     168A      1.467355   169A      1.484851   170A      1.490739  
     171A      1.517002   172A      1.520788   173A      1.552872  
     174A      1.571562   175A      1.581978   176A      1.589462  
     177A      1.602332   178A      1.633296   179A      1.648953  
     180A      1.657549   181A      1.675396   182A      1.711309  
     183A      1.721563   184A      1.737502   185A      1.755071  
     186A      1.778663   187A      1.803068   188A      1.829682  
     189A      1.845392   190A      1.860222   191A      1.869510  
     192A      1.901296   193A      1.908456   194A      1.927683  
     195A      1.942381   196A      1.954566   197A      1.968018  
     198A      1.981848   199A      1.994286   200A      2.014655  
     201A      2.018141   202A      2.022335   203A      2.035311  
     204A      2.061645   205A      2.082558   206A      2.085061  
     207A      2.101072   208A      2.113924   209A      2.143743  
     210A      2.269053   211A      2.303415   212A      2.325545  
     213A      2.368558   214A      2.386100   215A      2.394825  
     216A      2.469863   217A      2.498804   218A      2.521598  
     219A      2.536817   220A      2.568677   221A      2.581841  
     222A      2.603409   223A      2.624302   224A      2.657663  
     225A      2.664588   226A      2.675456   227A      2.683721  
     228A      2.696536   229A      2.722066   230A      2.735144  
     231A      2.748428   232A      2.765632   233A      2.796194  
     234A      2.809735   235A      2.812686   236A      2.829957  
     237A      2.855572   238A      2.867916   239A      2.881637  
     240A      2.925997   241A      2.959257   242A      2.971414  
     243A      2.984181   244A      3.023646   245A      3.035984  
     246A      3.054609   247A      3.056074   248A      3.107373  
     249A      3.157830   250A      3.188825   251A      3.193067  
     252A      3.247703   253A      3.263522   254A      3.295008  
     255A      3.298386   256A      3.307281   257A      3.340601  
     258A      3.356408   259A      3.366888   260A      3.377246  
     261A      3.387302   262A      3.430481   263A      3.448034  
     264A      3.486230   265A      3.503563   266A      3.510459  
     267A      3.554150   268A      3.587829   269A      3.690017  
     270A      3.707477   271A      3.748713   272A      3.769620  
     273A      3.782603   274A      3.813893   275A      3.882622  
     276A      3.934390   277A      4.083216   278A      4.284040  
     279A      4.303852   280A      4.317436   281A      4.419209  
     282A      4.431044   283A      4.480595   284A      4.493168  
     285A      4.544945   286A      4.572333   287A      4.583745  
     288A      4.590229   289A      4.604639   290A      4.622148  
     291A      4.650603   292A      4.659167   293A      4.702928  
     294A      4.738369   295A      4.765811   296A      4.781111  
     297A      4.797643   298A      4.814769   299A      4.833681  
     300A      4.845182   301A      4.867378   302A      4.880422  
     303A      4.891184   304A      4.905919   305A      4.932565  
     306A      5.017692   307A      5.057208   308A      5.063697  
     309A      5.077509   310A      5.110168   311A      5.115259  
     312A      5.137520   313A      5.166814   314A      5.206865  
     315A      5.217973   316A      5.224754   317A      5.245280  
     318A      5.282046   319A      5.315555   320A      5.365735  
     321A      5.410478   322A      5.481955   323A      5.547697  
     324A      5.603877   325A      5.618794   326A      5.663029  
     327A      5.682578   328A      5.754406   329A      5.813571  
     330A      5.833603   331A      5.856117   332A      5.868268  
     333A      5.901407   334A      5.952337   335A      6.010348  
     336A      6.300446   337A      6.315864   338A      6.357587  
     339A      6.401420   340A      6.441005   341A      6.491022  
     342A      6.557957   343A      6.668093   344A      6.822029  
     345A      6.891757   346A      6.959038   347A      6.983619  
     348A      7.015318   349A      7.125970   350A      7.164134  
     351A      7.275985   352A      7.285362   353A      7.296613  
     354A      7.321771   355A      7.404195   356A      7.421682  
     357A      7.547620   358A      7.655325   359A      7.778418  
     360A      7.800586   361A      7.826542   362A      7.843371  
     363A      7.890129   364A      7.897626   365A      7.919908  
     366A      7.959251   367A      8.165137   368A      8.217273  
     369A      8.259954   370A      8.293787   371A      8.347257  
     372A      8.369527   373A      8.384317   374A      8.412958  
     375A      8.448181   376A      8.754264   377A      8.812265  
     378A      8.828370   379A      8.844007   380A      9.004223  
     381A      9.058363   382A      9.085418   383A      9.903630  
     384A      9.973200   385A      9.981098   386A      9.999924  
     387A     10.018553   388A     10.044615   389A     10.072848  
     390A     10.109624   391A     10.111269   392A     10.201473  
     393A     10.242786   394A     10.251586   395A     11.108100  
     396A     11.154489   397A     11.421846   398A     11.837426  
     399A     11.911929   400A     11.980509   401A     12.264398  
     402A     12.554693   403A     12.581187   404A     12.829490  
     405A     13.587883   406A     13.794920   407A     13.914911  
     408A     13.954229   409A     14.004418   410A     14.056811  
     411A     15.316998   412A     65.121164   413A     66.682263  
     414A     67.636471  

    Final Occupation by Irrep:
              A 
    DOCC [     5 ]
    NA   [     5 ]
    NB   [     5 ]

  @DF-RHF Final Energy:   -76.05690705188486

   => Energetics <=

    Nuclear Repulsion Energy =              8.9042703414522872
    One-Electron Energy =                -122.5269600183637806
    Two-Electron Energy =                  37.5657826250266424
    Total Energy =                        -76.0569070518848491

Computation Completed


Properties will be evaluated at   0.000000,   0.000000,   0.000000 [a0]

Properties computed using the SCF density matrix


 Multipole Moments:

 ------------------------------------------------------------------------------------
     Multipole            Electronic (a.u.)      Nuclear  (a.u.)        Total (a.u.)
 ------------------------------------------------------------------------------------

 L = 1.  Multiply by 2.5417464519 to convert [e a0] to [Debye]
 Dipole X            :         -0.2733893            0.2131384           -0.0602509
 Dipole Y            :         37.4636335          -38.2324458           -0.7688122
 Dipole Z            :         12.0409933          -12.2034658           -0.1624725
 Magnitude           :                                                    0.7880988

 ------------------------------------------------------------------------------------

*** tstop() called on ddmfs1 at Mon Jan 22 13:03:10 2024
Module time:
	user time   =      54.14 seconds =       0.90 minutes
	system time =       2.53 seconds =       0.04 minutes
	total time  =          3 seconds =       0.05 minutes
Total time:
	user time   =      54.14 seconds =       0.90 minutes
	system time =       2.53 seconds =       0.04 minutes
	total time  =          3 seconds =       0.05 minutes

*** tstart() called on ddmfs1
*** at Mon Jan 22 13:03:10 2024


  //>>>>>>>>>>>>>>>>>>>>>>>>>>>>>>>>>>>//
  //               DFMP2               //
  //<<<<<<<<<<<<<<<<<<<<<<<<<<<<<<<<<<<//

   => Loading Basis Set <=

    Name: (AUG-CC-PVTZ AUX)
    Role: RIFIT
    Keyword: DF_BASIS_MP2
    atoms 1                     entry LI         line    90 file /ddmfs1b/softs/psi4conda/share/psi4/basis/def2-qzvpp-ri.gbs 
    atoms 2, 5, 8, 11           entry O          line   264 file /ddmfs1b/softs/psi4conda/share/psi4/basis/aug-cc-pvtz-ri.gbs 
    atoms 3-4, 6-7, 9-10, 12-13 entry H          line    30 file /ddmfs1b/softs/psi4conda/share/psi4/basis/aug-cc-pvtz-ri.gbs 

	 --------------------------------------------------------
	                          DF-MP2                         
	      2nd-Order Density-Fitted Moller-Plesset Theory     
	              RMP2 Wavefunction,  20 Threads             
	                                                         
	        Rob Parrish, Justin Turney, Andy Simmonett,      
	           Ed Hohenstein, and C. David Sherrill          
	 --------------------------------------------------------

   => Auxiliary Basis Set <=

  Basis Set: (AUG-CC-PVTZ AUX)
    Blend: AUG-CC-PVTZ-RI + DEF2-QZVPP-RI
    Number of shells: 251
    Number of basis functions: 893
    Number of Cartesian functions: 1114
    Spherical Harmonics?: true
    Max angular momentum: 4

	 --------------------------------------------------------
	                 NBF =   414, NAUX =   893
	 --------------------------------------------------------
	   CLASS    FOCC     OCC    AOCC    AVIR     VIR    FVIR
	   PAIRS       0       5       5     409     409       0
	 --------------------------------------------------------

	-----------------------------------------------------------
	 ==================> DF-MP2 Energies <==================== 
	-----------------------------------------------------------
	 Reference Energy          =     -76.0569070518848633 [Eh]
	 Singles Energy            =      -0.0000000000000000 [Eh]
	 Same-Spin Energy          =      -0.0689622405730564 [Eh]
	 Opposite-Spin Energy      =      -0.2175796154279820 [Eh]
	 Correlation Energy        =      -0.2865418560010384 [Eh]
	 Total Energy              =     -76.3434489078859002 [Eh]
	-----------------------------------------------------------
	 ================> DF-SCS-MP2 Energies <================== 
	-----------------------------------------------------------
	 SCS Same-Spin Scale       =       0.3333333333333333 [-]
	 SCS Opposite-Spin Scale   =       1.2000000000000000 [-]
	 SCS Same-Spin Energy      =      -0.0229874135243521 [Eh]
	 SCS Opposite-Spin Energy  =      -0.2610955385135784 [Eh]
	 SCS Correlation Energy    =      -0.2840829520379305 [Eh]
	 SCS Total Energy          =     -76.3409900039227978 [Eh]
	-----------------------------------------------------------


*** tstop() called on ddmfs1 at Mon Jan 22 13:03:13 2024
Module time:
	user time   =      16.62 seconds =       0.28 minutes
	system time =       0.96 seconds =       0.02 minutes
	total time  =          3 seconds =       0.05 minutes
Total time:
	user time   =      70.77 seconds =       1.18 minutes
	system time =       3.49 seconds =       0.06 minutes
	total time  =          6 seconds =       0.10 minutes

    Psi4 stopped on: Monday, 22 January 2024 01:03PM
    Psi4 wall time for execution: 0:00:06.10

*** Psi4 exiting successfully. Buy a developer a beer!
