
    -----------------------------------------------------------------------
          Psi4: An Open-Source Ab Initio Electronic Structure Package
                               Psi4 1.8.2 release

                         Git: Rev {} zzzzzzz 


    D. G. A. Smith, L. A. Burns, A. C. Simmonett, R. M. Parrish,
    M. C. Schieber, R. Galvelis, P. Kraus, H. Kruse, R. Di Remigio,
    A. Alenaizan, A. M. James, S. Lehtola, J. P. Misiewicz, M. Scheurer,
    R. A. Shaw, J. B. Schriber, Y. Xie, Z. L. Glick, D. A. Sirianni,
    J. S. O'Brien, J. M. Waldrop, A. Kumar, E. G. Hohenstein,
    B. P. Pritchard, B. R. Brooks, H. F. Schaefer III, A. Yu. Sokolov,
    K. Patkowski, A. E. DePrince III, U. Bozkaya, R. A. King,
    F. A. Evangelista, J. M. Turney, T. D. Crawford, C. D. Sherrill,
    J. Chem. Phys. 152(18) 184108 (2020). https://doi.org/10.1063/5.0006002

                            Additional Code Authors
    E. T. Seidl, C. L. Janssen, E. F. Valeev, M. L. Leininger,
    J. F. Gonthier, R. M. Richard, H. R. McAlexander, M. Saitow, X. Wang,
    P. Verma, M. H. Lechner, A. Jiang, S. Behnle, A. G. Heide,
    M. F. Herbst, and D. L. Poole

             Previous Authors, Complete List of Code Contributors,
                       and Citations for Specific Modules
    https://github.com/psi4/psi4/blob/master/codemeta.json
    https://github.com/psi4/psi4/graphs/contributors
    http://psicode.org/psi4manual/master/introduction.html#citing-psifour

    -----------------------------------------------------------------------


    Psi4 started on: Monday, 22 January 2024 01:06PM

    Process ID: 54287
    Host:       ddmfs1
    PSIDATADIR: /ddmfs1b/softs/psi4conda/share/psi4
    Memory:     500.0 MiB
    Threads:    20
    
  ==> Input File <==

--------------------------------------------------------------------------
MEMORY 60 GB

molecule dimer {
0 1
Gh(Li)     0.000000     0.000000     0.000000
Gh(O)     -0.207258     1.893567    -0.189270
Gh(H)     -1.121865     2.058966     0.128404
Gh(H)     -0.276352     2.100735    -1.147691
O         -0.450346    -0.540463     1.792528
H         -1.197754    -1.034385     1.966029
H         -0.329736    -0.092928     2.623816
Gh(O)      1.811809    -0.507348    -0.752479
Gh(H)      2.033480    -0.946021     0.085056
Gh(H)      1.816157    -1.201410    -1.392174
Gh(O)     -1.390009    -0.914970    -1.164105
Gh(H)     -2.030872    -0.570429    -0.544099
Gh(H)     -1.574691    -1.795563    -1.145738

units ang
no_reorient
no_com
symmetry c1
}

set {
basis        aug-cc-pVTZ
scf_type     df
}

energy("mp2")
--------------------------------------------------------------------------

  Memory set to  55.879 GiB by Python driver.

Scratch directory: /ddmfs1a/scratch/
   => Libint2 <=

    Primary   basis highest AM E, G, H:  5, 4, 3
    Auxiliary basis highest AM E, G, H:  6, 5, 4
    Onebody   basis highest AM E, G, H:  6, 5, 4
    Solid Harmonics ordering:            gaussian

*** tstart() called on ddmfs1
*** at Mon Jan 22 13:06:49 2024

   => Loading Basis Set <=

    Name: AUG-CC-PVTZ
    Role: ORBITAL
    Keyword: BASIS
    atoms 1                     entry LI         line    85 file /ddmfs1b/softs/psi4conda/share/psi4/basis/aug-cc-pvtz.gbs 
    atoms 2, 5, 8, 11           entry O          line   331 file /ddmfs1b/softs/psi4conda/share/psi4/basis/aug-cc-pvtz.gbs 
    atoms 3-4, 6-7, 9-10, 12-13 entry H          line    40 file /ddmfs1b/softs/psi4conda/share/psi4/basis/aug-cc-pvtz.gbs 


         ---------------------------------------------------------
                                   SCF
               by Justin Turney, Rob Parrish, Andy Simmonett
                          and Daniel G. A. Smith
                              RHF Reference
                       20 Threads,  57220 MiB Core
         ---------------------------------------------------------

  ==> Geometry <==

    Molecular point group: c1
    Full point group: C1

    Geometry (in Angstrom), charge = 0, multiplicity = 1:

       Center              X                  Y                   Z               Mass       
    ------------   -----------------  -----------------  -----------------  -----------------
      Gh(LI)          0.000000000000     0.000000000000     0.000000000000     7.016003436600
      Gh(O)          -0.207258000000     1.893567000000    -0.189270000000    15.994914619570
      Gh(H)          -1.121865000000     2.058966000000     0.128404000000     1.007825032230
      Gh(H)          -0.276352000000     2.100735000000    -1.147691000000     1.007825032230
         O           -0.450346000000    -0.540463000000     1.792528000000    15.994914619570
         H           -1.197754000000    -1.034385000000     1.966029000000     1.007825032230
         H           -0.329736000000    -0.092928000000     2.623816000000     1.007825032230
      Gh(O)           1.811809000000    -0.507348000000    -0.752479000000    15.994914619570
      Gh(H)           2.033480000000    -0.946021000000     0.085056000000     1.007825032230
      Gh(H)           1.816157000000    -1.201410000000    -1.392174000000     1.007825032230
      Gh(O)          -1.390009000000    -0.914970000000    -1.164105000000    15.994914619570
      Gh(H)          -2.030872000000    -0.570429000000    -0.544099000000     1.007825032230
      Gh(H)          -1.574691000000    -1.795563000000    -1.145738000000     1.007825032230

  Running in c1 symmetry.

  Rotational constants: A =      0.09084  B =      0.08341  C =      0.08083 [cm^-1]
  Rotational constants: A =   2723.45257  B =   2500.50326  C =   2423.13564 [MHz]
  Nuclear repulsion =    9.454800796057846

  Charge       = 0
  Multiplicity = 1
  Electrons    = 10
  Nalpha       = 5
  Nbeta        = 5

  ==> Algorithm <==

  SCF Algorithm Type is DF.
  DIIS enabled.
  MOM disabled.
  Fractional occupation disabled.
  Guess Type is SAD.
  Energy threshold   = 1.00e-08
  Density threshold  = 1.00e-08
  Integral threshold = 1.00e-12

  ==> Primary Basis <==

  Basis Set: AUG-CC-PVTZ
    Blend: AUG-CC-PVTZ
    Number of shells: 142
    Number of basis functions: 414
    Number of Cartesian functions: 475
    Spherical Harmonics?: true
    Max angular momentum: 3

   => Loading Basis Set <=

    Name: (AUG-CC-PVTZ AUX)
    Role: JKFIT
    Keyword: DF_BASIS_SCF
    atoms 1                     entry LI         line    54 file /ddmfs1b/softs/psi4conda/share/psi4/basis/def2-universal-jkfit.gbs 
    atoms 2, 5, 8, 11           entry O          line   286 file /ddmfs1b/softs/psi4conda/share/psi4/basis/aug-cc-pvtz-jkfit.gbs 
    atoms 3-4, 6-7, 9-10, 12-13 entry H          line    70 file /ddmfs1b/softs/psi4conda/share/psi4/basis/aug-cc-pvtz-jkfit.gbs 

  ==> Integral Setup <==

  DFHelper Memory: AOs need 1.089 GiB; user supplied 41.910 GiB. 
  Using in-core AOs.

  ==> MemDFJK: Density-Fitted J/K Matrices <==

    J tasked:                   Yes
    K tasked:                   Yes
    wK tasked:                   No
    OpenMP threads:              20
    Memory [MiB]:             42915
    Algorithm:                 Core
    Schwarz Cutoff:           1E-12
    Mask sparsity (%):       4.0188
    Fitting Condition:        1E-10

   => Auxiliary Basis Set <=

  Basis Set: (AUG-CC-PVTZ AUX)
    Blend: AUG-CC-PVTZ-JKFIT + DEF2-UNIVERSAL-JKFIT
    Number of shells: 249
    Number of basis functions: 835
    Number of Cartesian functions: 1024
    Spherical Harmonics?: true
    Max angular momentum: 4

  Minimum eigenvalue in the overlap matrix is 1.6114204792E-05.
  Reciprocal condition number of the overlap matrix is 1.0863618982E-06.
    Using symmetric orthogonalization.

  ==> Pre-Iterations <==

  SCF Guess: Superposition of Atomic Densities via on-the-fly atomic UHF (no occupation information).

   -------------------------
    Irrep   Nso     Nmo    
   -------------------------
     A        414     414 
   -------------------------
    Total     414     414
   -------------------------

  ==> Iterations <==

                           Total Energy        Delta E     RMS |[F,P]|

   @DF-RHF iter SAD:   -75.50923847178763   -7.55092e+01   0.00000e+00 
   @DF-RHF iter   1:   -75.97540815284040   -4.66170e-01   1.14127e-03 DIIS/ADIIS
   @DF-RHF iter   2:   -76.02916168044810   -5.37535e-02   7.56979e-04 DIIS/ADIIS
   @DF-RHF iter   3:   -76.05904128776073   -2.98796e-02   5.12008e-05 DIIS
   @DF-RHF iter   4:   -76.05939685685141   -3.55569e-04   1.15434e-05 DIIS
   @DF-RHF iter   5:   -76.05941637354699   -1.95167e-05   2.58779e-06 DIIS
   @DF-RHF iter   6:   -76.05941792183651   -1.54829e-06   5.58535e-07 DIIS
   @DF-RHF iter   7:   -76.05941800184475   -8.00082e-08   1.00690e-07 DIIS
   @DF-RHF iter   8:   -76.05941800417122   -2.32647e-09   1.64927e-08 DIIS
   @DF-RHF iter   9:   -76.05941800421832   -4.70948e-11   3.78010e-09 DIIS
  Energy and wave function converged.


  ==> Post-Iterations <==

    Orbital Energies [Eh]
    ---------------------

    Doubly Occupied:                                                      

       1A    -20.563701     2A     -1.369963     3A     -0.724683  
       4A     -0.596351     5A     -0.513453  

    Virtual:                                                              

       6A      0.008707     7A      0.017951     8A      0.018441  
       9A      0.019546    10A      0.043880    11A      0.054437  
      12A      0.059395    13A      0.060363    14A      0.062093  
      15A      0.066276    16A      0.066652    17A      0.067888  
      18A      0.070650    19A      0.090212    20A      0.093453  
      21A      0.106474    22A      0.138450    23A      0.149805  
      24A      0.154513    25A      0.158680    26A      0.162242  
      27A      0.162686    28A      0.164057    29A      0.169553  
      30A      0.173923    31A      0.179234    32A      0.181807  
      33A      0.182887    34A      0.192835    35A      0.208429  
      36A      0.215197    37A      0.220500    38A      0.226475  
      39A      0.239711    40A      0.243718    41A      0.251783  
      42A      0.273886    43A      0.307206    44A      0.309913  
      45A      0.317829    46A      0.325157    47A      0.327101  
      48A      0.336487    49A      0.345956    50A      0.350069  
      51A      0.358174    52A      0.362800    53A      0.367486  
      54A      0.373415    55A      0.374742    56A      0.377383  
      57A      0.381046    58A      0.389042    59A      0.397303  
      60A      0.398558    61A      0.409693    62A      0.420874  
      63A      0.421081    64A      0.422829    65A      0.434971  
      66A      0.439862    67A      0.442652    68A      0.447265  
      69A      0.465621    70A      0.469066    71A      0.474588  
      72A      0.484181    73A      0.488601    74A      0.493179  
      75A      0.498831    76A      0.504898    77A      0.514787  
      78A      0.524757    79A      0.527413    80A      0.532895  
      81A      0.541962    82A      0.558383    83A      0.564426  
      84A      0.587620    85A      0.588819    86A      0.591941  
      87A      0.599801    88A      0.620156    89A      0.626484  
      90A      0.697901    91A      0.710487    92A      0.742629  
      93A      0.750411    94A      0.764241    95A      0.777885  
      96A      0.782770    97A      0.786520    98A      0.803411  
      99A      0.815023   100A      0.817887   101A      0.826674  
     102A      0.842175   103A      0.849934   104A      0.856982  
     105A      0.865487   106A      0.873258   107A      0.883217  
     108A      0.888900   109A      0.890094   110A      0.898223  
     111A      0.909058   112A      0.916963   113A      0.922137  
     114A      0.932944   115A      0.945338   116A      0.959113  
     117A      0.966235   118A      0.971661   119A      0.980280  
     120A      0.984902   121A      0.996247   122A      1.011448  
     123A      1.013338   124A      1.026437   125A      1.039434  
     126A      1.045300   127A      1.053419   128A      1.054325  
     129A      1.068166   130A      1.076385   131A      1.084231  
     132A      1.094101   133A      1.103184   134A      1.109615  
     135A      1.117175   136A      1.122286   137A      1.132020  
     138A      1.133664   139A      1.149560   140A      1.161459  
     141A      1.166819   142A      1.177944   143A      1.192521  
     144A      1.202147   145A      1.207385   146A      1.216808  
     147A      1.235184   148A      1.237167   149A      1.249536  
     150A      1.258381   151A      1.267673   152A      1.280753  
     153A      1.287211   154A      1.301267   155A      1.309478  
     156A      1.337992   157A      1.351058   158A      1.365273  
     159A      1.374435   160A      1.379892   161A      1.397472  
     162A      1.406259   163A      1.430345   164A      1.437458  
     165A      1.452349   166A      1.452523   167A      1.481156  
     168A      1.498903   169A      1.511157   170A      1.519415  
     171A      1.540187   172A      1.550966   173A      1.575657  
     174A      1.587001   175A      1.596240   176A      1.616400  
     177A      1.628677   178A      1.634945   179A      1.649719  
     180A      1.665652   181A      1.681549   182A      1.701440  
     183A      1.735967   184A      1.742716   185A      1.755427  
     186A      1.783211   187A      1.802956   188A      1.822011  
     189A      1.856274   190A      1.871256   191A      1.893950  
     192A      1.905543   193A      1.914025   194A      1.936292  
     195A      1.938012   196A      1.954674   197A      1.962940  
     198A      1.964299   199A      2.004160   200A      2.008616  
     201A      2.020018   202A      2.027065   203A      2.038742  
     204A      2.066505   205A      2.103255   206A      2.116985  
     207A      2.136655   208A      2.148202   209A      2.192819  
     210A      2.272310   211A      2.301240   212A      2.368083  
     213A      2.393482   214A      2.437173   215A      2.454110  
     216A      2.495112   217A      2.522671   218A      2.529457  
     219A      2.553165   220A      2.597404   221A      2.612007  
     222A      2.621480   223A      2.644211   224A      2.657516  
     225A      2.661477   226A      2.692556   227A      2.706779  
     228A      2.721154   229A      2.730502   230A      2.761363  
     231A      2.773009   232A      2.781276   233A      2.805330  
     234A      2.821681   235A      2.860882   236A      2.881283  
     237A      2.887604   238A      2.910035   239A      2.929487  
     240A      2.935664   241A      2.949185   242A      2.965078  
     243A      2.982142   244A      3.020509   245A      3.040969  
     246A      3.074466   247A      3.098919   248A      3.158973  
     249A      3.169499   250A      3.223270   251A      3.249818  
     252A      3.260407   253A      3.266930   254A      3.283378  
     255A      3.296501   256A      3.318577   257A      3.327969  
     258A      3.339242   259A      3.347845   260A      3.400881  
     261A      3.418195   262A      3.440542   263A      3.446150  
     264A      3.477073   265A      3.479387   266A      3.510461  
     267A      3.556511   268A      3.573058   269A      3.689485  
     270A      3.712687   271A      3.755299   272A      3.791874  
     273A      3.816663   274A      3.848629   275A      3.981445  
     276A      3.992644   277A      4.190868   278A      4.290391  
     279A      4.401390   280A      4.424043   281A      4.461058  
     282A      4.471889   283A      4.516628   284A      4.525006  
     285A      4.560300   286A      4.576205   287A      4.600696  
     288A      4.631664   289A      4.638770   290A      4.663403  
     291A      4.680573   292A      4.702540   293A      4.712394  
     294A      4.719448   295A      4.739530   296A      4.765810  
     297A      4.783899   298A      4.803666   299A      4.822128  
     300A      4.853414   301A      4.869388   302A      4.894683  
     303A      4.943859   304A      4.966696   305A      4.995203  
     306A      5.038834   307A      5.071634   308A      5.090635  
     309A      5.110047   310A      5.134259   311A      5.157583  
     312A      5.178346   313A      5.210479   314A      5.238140  
     315A      5.292220   316A      5.300965   317A      5.319084  
     318A      5.358766   319A      5.374874   320A      5.414970  
     321A      5.517261   322A      5.577752   323A      5.595292  
     324A      5.654420   325A      5.674888   326A      5.698113  
     327A      5.714776   328A      5.749974   329A      5.760868  
     330A      5.805663   331A      5.942331   332A      5.966006  
     333A      5.996661   334A      6.057332   335A      6.127670  
     336A      6.341308   337A      6.386849   338A      6.395353  
     339A      6.423575   340A      6.474598   341A      6.511050  
     342A      6.587051   343A      6.632618   344A      6.651669  
     345A      6.752414   346A      6.850659   347A      6.864967  
     348A      7.032082   349A      7.132635   350A      7.170562  
     351A      7.255315   352A      7.346226   353A      7.377153  
     354A      7.391418   355A      7.465532   356A      7.512768  
     357A      7.572036   358A      7.776348   359A      7.785314  
     360A      7.800465   361A      7.848888   362A      7.925146  
     363A      7.938645   364A      7.953822   365A      8.024787  
     366A      8.159587   367A      8.168630   368A      8.179338  
     369A      8.215829   370A      8.246898   371A      8.275506  
     372A      8.304446   373A      8.359425   374A      8.421237  
     375A      8.486957   376A      8.664548   377A      8.824335  
     378A      8.862065   379A      8.910261   380A      9.033376  
     381A      9.083852   382A      9.109382   383A      9.909693  
     384A      9.939939   385A      9.989825   386A     10.020393  
     387A     10.052373   388A     10.061155   389A     10.092281  
     390A     10.104772   391A     10.134625   392A     10.258192  
     393A     10.277394   394A     10.289497   395A     11.144658  
     396A     11.277486   397A     11.455308   398A     11.873041  
     399A     11.932770   400A     11.972371   401A     12.114741  
     402A     12.396149   403A     12.752994   404A     12.977945  
     405A     13.579259   406A     13.702522   407A     13.935608  
     408A     14.001942   409A     14.021145   410A     14.058051  
     411A     17.215761   412A     64.817737   413A     66.265432  
     414A     68.007643  

    Final Occupation by Irrep:
              A 
    DOCC [     5 ]
    NA   [     5 ]
    NB   [     5 ]

  @DF-RHF Final Energy:   -76.05941800421832

   => Energetics <=

    Nuclear Repulsion Energy =              9.4548007960578460
    One-Electron Energy =                -123.4921322101615146
    Two-Electron Energy =                  37.9779134098853604
    Total Energy =                        -76.0594180042183154

Computation Completed


Properties will be evaluated at   0.000000,   0.000000,   0.000000 [a0]

Properties computed using the SCF density matrix


 Multipole Moments:

 ------------------------------------------------------------------------------------
     Multipole            Electronic (a.u.)      Nuclear  (a.u.)        Total (a.u.)
 ------------------------------------------------------------------------------------

 L = 1.  Multiply by 2.5417464519 to convert [e a0] to [Debye]
 Dipole X            :          9.2709150           -9.6947826           -0.4238675
 Dipole Y            :         10.2649379          -10.3009292           -0.0359914
 Dipole Z            :        -35.1037460           35.7726459            0.6688999
 Magnitude           :                                                    0.7927082

 ------------------------------------------------------------------------------------

*** tstop() called on ddmfs1 at Mon Jan 22 13:06:53 2024
Module time:
	user time   =      53.69 seconds =       0.89 minutes
	system time =       2.97 seconds =       0.05 minutes
	total time  =          4 seconds =       0.07 minutes
Total time:
	user time   =      53.69 seconds =       0.89 minutes
	system time =       2.97 seconds =       0.05 minutes
	total time  =          4 seconds =       0.07 minutes

*** tstart() called on ddmfs1
*** at Mon Jan 22 13:06:53 2024


  //>>>>>>>>>>>>>>>>>>>>>>>>>>>>>>>>>>>//
  //               DFMP2               //
  //<<<<<<<<<<<<<<<<<<<<<<<<<<<<<<<<<<<//

   => Loading Basis Set <=

    Name: (AUG-CC-PVTZ AUX)
    Role: RIFIT
    Keyword: DF_BASIS_MP2
    atoms 1                     entry LI         line    90 file /ddmfs1b/softs/psi4conda/share/psi4/basis/def2-qzvpp-ri.gbs 
    atoms 2, 5, 8, 11           entry O          line   264 file /ddmfs1b/softs/psi4conda/share/psi4/basis/aug-cc-pvtz-ri.gbs 
    atoms 3-4, 6-7, 9-10, 12-13 entry H          line    30 file /ddmfs1b/softs/psi4conda/share/psi4/basis/aug-cc-pvtz-ri.gbs 

	 --------------------------------------------------------
	                          DF-MP2                         
	      2nd-Order Density-Fitted Moller-Plesset Theory     
	              RMP2 Wavefunction,  20 Threads             
	                                                         
	        Rob Parrish, Justin Turney, Andy Simmonett,      
	           Ed Hohenstein, and C. David Sherrill          
	 --------------------------------------------------------

   => Auxiliary Basis Set <=

  Basis Set: (AUG-CC-PVTZ AUX)
    Blend: AUG-CC-PVTZ-RI + DEF2-QZVPP-RI
    Number of shells: 251
    Number of basis functions: 893
    Number of Cartesian functions: 1114
    Spherical Harmonics?: true
    Max angular momentum: 4

	 --------------------------------------------------------
	                 NBF =   414, NAUX =   893
	 --------------------------------------------------------
	   CLASS    FOCC     OCC    AOCC    AVIR     VIR    FVIR
	   PAIRS       0       5       5     409     409       0
	 --------------------------------------------------------

	-----------------------------------------------------------
	 ==================> DF-MP2 Energies <==================== 
	-----------------------------------------------------------
	 Reference Energy          =     -76.0594180042183154 [Eh]
	 Singles Energy            =      -0.0000000000000000 [Eh]
	 Same-Spin Energy          =      -0.0680636039542532 [Eh]
	 Opposite-Spin Energy      =      -0.2148591791211276 [Eh]
	 Correlation Energy        =      -0.2829227830753808 [Eh]
	 Total Energy              =     -76.3423407872936934 [Eh]
	-----------------------------------------------------------
	 ================> DF-SCS-MP2 Energies <================== 
	-----------------------------------------------------------
	 SCS Same-Spin Scale       =       0.3333333333333333 [-]
	 SCS Opposite-Spin Scale   =       1.2000000000000000 [-]
	 SCS Same-Spin Energy      =      -0.0226878679847511 [Eh]
	 SCS Opposite-Spin Energy  =      -0.2578310149453530 [Eh]
	 SCS Correlation Energy    =      -0.2805188829301041 [Eh]
	 SCS Total Energy          =     -76.3399368871484256 [Eh]
	-----------------------------------------------------------


*** tstop() called on ddmfs1 at Mon Jan 22 13:06:55 2024
Module time:
	user time   =      16.90 seconds =       0.28 minutes
	system time =       0.92 seconds =       0.02 minutes
	total time  =          2 seconds =       0.03 minutes
Total time:
	user time   =      70.61 seconds =       1.18 minutes
	system time =       3.89 seconds =       0.06 minutes
	total time  =          6 seconds =       0.10 minutes

    Psi4 stopped on: Monday, 22 January 2024 01:06PM
    Psi4 wall time for execution: 0:00:06.10

*** Psi4 exiting successfully. Buy a developer a beer!
