
    -----------------------------------------------------------------------
          Psi4: An Open-Source Ab Initio Electronic Structure Package
                               Psi4 1.9 release

                         Git: Rev {} zzzzzzz 


    D. G. A. Smith, L. A. Burns, A. C. Simmonett, R. M. Parrish,
    M. C. Schieber, R. Galvelis, P. Kraus, H. Kruse, R. Di Remigio,
    A. Alenaizan, A. M. James, S. Lehtola, J. P. Misiewicz, M. Scheurer,
    R. A. Shaw, J. B. Schriber, Y. Xie, Z. L. Glick, D. A. Sirianni,
    J. S. O'Brien, J. M. Waldrop, A. Kumar, E. G. Hohenstein,
    B. P. Pritchard, B. R. Brooks, H. F. Schaefer III, A. Yu. Sokolov,
    K. Patkowski, A. E. DePrince III, U. Bozkaya, R. A. King,
    F. A. Evangelista, J. M. Turney, T. D. Crawford, C. D. Sherrill,
    J. Chem. Phys. 152(18) 184108 (2020). https://doi.org/10.1063/5.0006002

                            Additional Code Authors
    E. T. Seidl, C. L. Janssen, E. F. Valeev, M. L. Leininger,
    J. F. Gonthier, R. M. Richard, H. R. McAlexander, M. Saitow, X. Wang,
    P. Verma, M. H. Lechner, A. Jiang, S. Behnle, A. G. Heide,
    M. F. Herbst, and D. L. Poole

             Previous Authors, Complete List of Code Contributors,
                       and Citations for Specific Modules
    https://github.com/psi4/psi4/blob/master/codemeta.json
    https://github.com/psi4/psi4/graphs/contributors
    http://psicode.org/psi4manual/master/introduction.html#citing-psifour

    -----------------------------------------------------------------------


    Psi4 started on: Saturday, 06 January 2024 05:37PM

    Process ID: 548702
    Host:       moses-razer
    PSIDATADIR: /home/kchung25/anaconda3/envs/psi4_19/share/psi4
    Memory:     500.0 MiB
    Threads:    6
    
  ==> Input File <==

--------------------------------------------------------------------------
MEMORY 60 GB

molecule dimer {
1 1
Li     0.000000     0.000000     0.000000
--
0 1
O     -0.007634    -1.023123    -1.511591
H      0.057973    -0.546603    -2.301212
H     -0.749478    -1.673774    -1.686888
O     -0.253781    -0.523552     1.861966
H      0.377486    -1.069012     2.381988
H     -0.297109     0.310860     2.309038
O     -0.726151     1.712601    -0.023638
H     -1.486107     2.345326    -0.255453
H      0.048758     2.312731    -0.026328
O      1.873846     0.435239     0.205989
H      2.286734    -0.048458    -0.478572
H      2.531118     0.339515     0.930741

units ang
no_reorient
no_com
symmetry c1
}

set {
basis        aug-cc-pVTZ
scf_type     df
}

energy("mp2", bsse_type="cp")
--------------------------------------------------------------------------

  Memory set to  55.879 GiB by Python driver.

Scratch directory: /scratch/

  //>>>>>>>>>>>>>>>>>>>>>>>>>>>>>>>>>>>>>//
  // ManyBody Setup: N-Body Levels [1, 2]//
  //<<<<<<<<<<<<<<<<<<<<<<<<<<<<<<<<<<<<<//

        Number of 1-body computations:     2
        Number of 2-body computations:     1

    -----------------------------------------------------------------------
          Psi4: An Open-Source Ab Initio Electronic Structure Package
                               Psi4 1.9 release

                         Git: Rev {} zzzzzzz 


    D. G. A. Smith, L. A. Burns, A. C. Simmonett, R. M. Parrish,
    M. C. Schieber, R. Galvelis, P. Kraus, H. Kruse, R. Di Remigio,
    A. Alenaizan, A. M. James, S. Lehtola, J. P. Misiewicz, M. Scheurer,
    R. A. Shaw, J. B. Schriber, Y. Xie, Z. L. Glick, D. A. Sirianni,
    J. S. O'Brien, J. M. Waldrop, A. Kumar, E. G. Hohenstein,
    B. P. Pritchard, B. R. Brooks, H. F. Schaefer III, A. Yu. Sokolov,
    K. Patkowski, A. E. DePrince III, U. Bozkaya, R. A. King,
    F. A. Evangelista, J. M. Turney, T. D. Crawford, C. D. Sherrill,
    J. Chem. Phys. 152(18) 184108 (2020). https://doi.org/10.1063/5.0006002

                            Additional Code Authors
    E. T. Seidl, C. L. Janssen, E. F. Valeev, M. L. Leininger,
    J. F. Gonthier, R. M. Richard, H. R. McAlexander, M. Saitow, X. Wang,
    P. Verma, M. H. Lechner, A. Jiang, S. Behnle, A. G. Heide,
    M. F. Herbst, and D. L. Poole

             Previous Authors, Complete List of Code Contributors,
                       and Citations for Specific Modules
    https://github.com/psi4/psi4/blob/master/codemeta.json
    https://github.com/psi4/psi4/graphs/contributors
    http://psicode.org/psi4manual/master/introduction.html#citing-psifour

    -----------------------------------------------------------------------


    Psi4 started on: Saturday, 06 January 2024 05:37PM

    Process ID: 548702
    Host:       moses-razer
    PSIDATADIR: /home/kchung25/anaconda3/envs/psi4_19/share/psi4
    Memory:     55.9 GiB
    Threads:    6
    
  ==> Input QCSchema <==

--------------------------------------------------------------------------
{'driver': 'energy',
 'extras': {'psiapi': True, 'wfn_qcvars_only': True},
 'id': None,
 'keywords': {'SCF_TYPE': 'DF', 'function_kwargs': {}},
 'model': {'basis': 'aug-cc-pvtz', 'method': 'mp2'},
 'molecule': {'atom_labels': ['', '', '', '', '', '', '', '', '', '', '', '', ''],
              'atomic_numbers': [3, 8, 1, 1, 8, 1, 1, 8, 1, 1, 8, 1, 1],
              'extras': {},
              'fix_com': True,
              'fix_orientation': True,
              'fix_symmetry': 'c1',
              'fragment_charges': [0.0, 0.0],
              'fragment_multiplicities': [1, 1],
              'fragments': [[0], [1, 2, 3, 4, 5, 6, 7, 8, 9, 10, 11, 12]],
              'geometry': [0.0, 0.0, 0.0, -0.01442616924174506, -1.9334222626567894, -2.8564930037069236,
                           0.10955309267116667, -1.0329299693536251, -4.34866043661706, -1.416308157055882,
                           -3.162974455912051, -3.1877563243213047, -0.47957658584481305, -0.9893698924356968,
                           3.5186057949142104, 0.7133451561945737, -2.020139904827924, 4.501304954127042,
                           -0.5614546394086499, 0.5874402633598205, 4.3634494332748925, -1.3722265157273275,
                           3.236346852185202, -0.04466934615357214, -2.8083352231257566, 4.432023814915507,
                           -0.48273620792657856, 0.0921392664250728, 4.370428191856208, -0.0497527094310537,
                           3.5410557412846493, 0.8224825091181397, 0.3892627948569325, 4.321300981772681,
                           -0.09157234858743543, -0.9043700113126037, 4.783119811216568, 0.6415903654848145,
                           1.7588455837347445],
              'mass_numbers': [7, 16, 1, 1, 16, 1, 1, 16, 1, 1, 16, 1, 1],
              'masses': [7.0160034366, 15.99491461957, 1.00782503223, 1.00782503223, 15.99491461957, 1.00782503223,
                         1.00782503223, 15.99491461957, 1.00782503223, 1.00782503223, 15.99491461957, 1.00782503223,
                         1.00782503223],
              'molecular_charge': 0.0,
              'molecular_multiplicity': 1,
              'name': 'dimer',
              'provenance': {'creator': 'QCElemental',
                             'routine': 'qcelemental.molparse.from_string',
                             'version': '0.27.1'},
              'real': [False, True, True, True, True, True, True, True, True, True, True, True, True],
              'schema_name': 'qcschema_molecule',
              'schema_version': 2,
              'symbols': ['Li', 'O', 'H', 'H', 'O', 'H', 'H', 'O', 'H', 'H', 'O', 'H', 'H'],
              'validated': True},
 'protocols': {'stdout': True},
 'provenance': {'creator': 'QCElemental', 'routine': 'qcelemental.models.results', 'version': '0.27.1'},
 'schema_name': 'qcschema_input',
 'schema_version': 1}
--------------------------------------------------------------------------

Scratch directory: /scratch/
   => Libint2 <=

    Primary   basis highest AM E, G, H:  5, 4, 3
    Auxiliary basis highest AM E, G, H:  6, 5, 4
    Onebody   basis highest AM E, G, H:  6, 5, 4
    Solid Harmonics ordering:            gaussian

*** tstart() called on moses-razer
*** at Sat Jan  6 17:37:13 2024

   => Loading Basis Set <=

    Name: AUG-CC-PVTZ
    Role: ORBITAL
    Keyword: BASIS
    atoms 1                     entry LI         line    85 file /home/kchung25/anaconda3/envs/p415env/share/psi4/basis/aug-cc-pvtz.gbs 
    atoms 2, 5, 8, 11           entry O          line   331 file /home/kchung25/anaconda3/envs/p415env/share/psi4/basis/aug-cc-pvtz.gbs 
    atoms 3-4, 6-7, 9-10, 12-13 entry H          line    40 file /home/kchung25/anaconda3/envs/p415env/share/psi4/basis/aug-cc-pvtz.gbs 


         ---------------------------------------------------------
                                   SCF
               by Justin Turney, Rob Parrish, Andy Simmonett
                          and Daniel G. A. Smith
                              RHF Reference
                        6 Threads,  57220 MiB Core
         ---------------------------------------------------------

  ==> Geometry <==

    Molecular point group: c1
    Full point group: C1

    Geometry (in Bohr), charge = 0, multiplicity = 1:

       Center              X                  Y                   Z               Mass       
    ------------   -----------------  -----------------  -----------------  -----------------
      Gh(LI)          0.000000000000     0.000000000000     0.000000000000     7.016003436600
         O           -0.014426169242    -1.933422262657    -2.856493003707    15.994914619570
         H            0.109553092671    -1.032929969354    -4.348660436617     1.007825032230
         H           -1.416308157056    -3.162974455912    -3.187756324321     1.007825032230
         O           -0.479576585845    -0.989369892436     3.518605794914    15.994914619570
         H            0.713345156195    -2.020139904828     4.501304954127     1.007825032230
         H           -0.561454639409     0.587440263360     4.363449433275     1.007825032230
         O           -1.372226515727     3.236346852185    -0.044669346154    15.994914619570
         H           -2.808335223126     4.432023814916    -0.482736207927     1.007825032230
         H            0.092139266425     4.370428191856    -0.049752709431     1.007825032230
         O            3.541055741285     0.822482509118     0.389262794857    15.994914619570
         H            4.321300981773    -0.091572348587    -0.904370011313     1.007825032230
         H            4.783119811217     0.641590365485     1.758845583735     1.007825032230

  Running in c1 symmetry.

  Rotational constants: A =      0.10383  B =      0.08780  C =      0.08194 [cm^-1]
  Rotational constants: A =   3112.82858  B =   2632.31116  C =   2456.53152 [MHz]
  Nuclear repulsion =  136.010069140480397

  Charge       = 0
  Multiplicity = 1
  Electrons    = 40
  Nalpha       = 20
  Nbeta        = 20

  ==> Algorithm <==

  SCF Algorithm Type is DF.
  DIIS enabled.
  MOM disabled.
  Fractional occupation disabled.
  Guess Type is SAD.
  Energy threshold   = 1.00e-08
  Density threshold  = 1.00e-08
  Integral threshold = 1.00e-12

  ==> Primary Basis <==

  Basis Set: AUG-CC-PVTZ
    Blend: AUG-CC-PVTZ
    Number of shells: 142
    Number of basis functions: 414
    Number of Cartesian functions: 475
    Spherical Harmonics?: true
    Max angular momentum: 3

   => Loading Basis Set <=

    Name: (AUG-CC-PVTZ AUX)
    Role: JKFIT
    Keyword: DF_BASIS_SCF
    atoms 1                     entry LI         line    54 file /home/kchung25/anaconda3/envs/p415env/share/psi4/basis/def2-universal-jkfit.gbs 
    atoms 2, 5, 8, 11           entry O          line   286 file /home/kchung25/anaconda3/envs/p415env/share/psi4/basis/aug-cc-pvtz-jkfit.gbs 
    atoms 3-4, 6-7, 9-10, 12-13 entry H          line    70 file /home/kchung25/anaconda3/envs/p415env/share/psi4/basis/aug-cc-pvtz-jkfit.gbs 

  ==> Integral Setup <==

  DFHelper Memory: AOs need 1.073 GiB; user supplied 41.910 GiB. 
  Using in-core AOs.

  ==> MemDFJK: Density-Fitted J/K Matrices <==

    J tasked:                   Yes
    K tasked:                   Yes
    wK tasked:                   No
    OpenMP threads:               6
    Memory [MiB]:             42915
    Algorithm:                 Core
    Schwarz Cutoff:           1E-12
    Mask sparsity (%):       3.8356
    Fitting Condition:        1E-10

   => Auxiliary Basis Set <=

  Basis Set: (AUG-CC-PVTZ AUX)
    Blend: AUG-CC-PVTZ-JKFIT + DEF2-UNIVERSAL-JKFIT
    Number of shells: 249
    Number of basis functions: 835
    Number of Cartesian functions: 1024
    Spherical Harmonics?: true
    Max angular momentum: 4

  Minimum eigenvalue in the overlap matrix is 1.1262643833E-05.
  Reciprocal condition number of the overlap matrix is 7.5650333425E-07.
    Using symmetric orthogonalization.

  ==> Pre-Iterations <==

  SCF Guess: Superposition of Atomic Densities via on-the-fly atomic UHF (no occupation information).

   -------------------------
    Irrep   Nso     Nmo    
   -------------------------
     A        414     414 
   -------------------------
    Total     414     414
   -------------------------

  ==> Iterations <==

                           Total Energy        Delta E     RMS |[F,P]|

   @DF-RHF iter SAD:  -301.94671255652412   -3.01947e+02   0.00000e+00 
   @DF-RHF iter   1:  -303.84442779906249   -1.89772e+00   2.31254e-03 ADIIS/DIIS
   @DF-RHF iter   2:  -304.05694989627005   -2.12522e-01   1.65999e-03 ADIIS/DIIS
   @DF-RHF iter   3:  -304.20859756775292   -1.51648e-01   1.13326e-04 ADIIS/DIIS
   @DF-RHF iter   4:  -304.21045205772981   -1.85449e-03   3.21478e-05 DIIS
   @DF-RHF iter   5:  -304.21058597067866   -1.33913e-04   1.21964e-05 DIIS
   @DF-RHF iter   6:  -304.21060382926049   -1.78586e-05   4.17825e-06 DIIS
   @DF-RHF iter   7:  -304.21060649316649   -2.66391e-06   8.65209e-07 DIIS
   @DF-RHF iter   8:  -304.21060668731087   -1.94144e-07   1.65619e-07 DIIS
   @DF-RHF iter   9:  -304.21060669351743   -6.20656e-09   3.61554e-08 DIIS
   @DF-RHF iter  10:  -304.21060669376698   -2.49543e-10   1.23234e-08 DIIS
   @DF-RHF iter  11:  -304.21060669378778   -2.08047e-11   5.43269e-09 DIIS
  Energy and wave function converged.


  ==> Post-Iterations <==

    Orbital Energies [Eh]
    ---------------------

    Doubly Occupied:                                                      

       1A    -20.543029     2A    -20.539432     3A    -20.537370  
       4A    -20.524173     5A     -1.329343     6A     -1.321907  
       7A     -1.306652     8A     -1.302643     9A     -0.687324  
      10A     -0.680727    11A     -0.673574    12A     -0.660727  
      13A     -0.568969    14A     -0.551744    15A     -0.545939  
      16A     -0.533043    17A     -0.490477    18A     -0.483176  
      19A     -0.470951    20A     -0.455210  

    Virtual:                                                              

      21A      0.010366    22A      0.017248    23A      0.018863  
      24A      0.021171    25A      0.049834    26A      0.055237  
      27A      0.056602    28A      0.060050    29A      0.063129  
      30A      0.069099    31A      0.069514    32A      0.074346  
      33A      0.076843    34A      0.087220    35A      0.092345  
      36A      0.126331    37A      0.143902    38A      0.154663  
      39A      0.160380    40A      0.164642    41A      0.166140  
      42A      0.171164    43A      0.177831    44A      0.180388  
      45A      0.187959    46A      0.192835    47A      0.201091  
      48A      0.204456    49A      0.206594    50A      0.211986  
      51A      0.223128    52A      0.231145    53A      0.243725  
      54A      0.248234    55A      0.260099    56A      0.267993  
      57A      0.282808    58A      0.302805    59A      0.304334  
      60A      0.323230    61A      0.329390    62A      0.333909  
      63A      0.352080    64A      0.360003    65A      0.367281  
      66A      0.372143    67A      0.377903    68A      0.384454  
      69A      0.387597    70A      0.391140    71A      0.402878  
      72A      0.407582    73A      0.411273    74A      0.428703  
      75A      0.431838    76A      0.436125    77A      0.437290  
      78A      0.440552    79A      0.447309    80A      0.454379  
      81A      0.458666    82A      0.461230    83A      0.470937  
      84A      0.472238    85A      0.477906    86A      0.485083  
      87A      0.488608    88A      0.497459    89A      0.501953  
      90A      0.510348    91A      0.514131    92A      0.519196  
      93A      0.529689    94A      0.534473    95A      0.541169  
      96A      0.548462    97A      0.563398    98A      0.570133  
      99A      0.582842   100A      0.596918   101A      0.614297  
     102A      0.624302   103A      0.626397   104A      0.667064  
     105A      0.674764   106A      0.721199   107A      0.732751  
     108A      0.752201   109A      0.765122   110A      0.780937  
     111A      0.782157   112A      0.791001   113A      0.795341  
     114A      0.808131   115A      0.814844   116A      0.824281  
     117A      0.834204   118A      0.838258   119A      0.853166  
     120A      0.866055   121A      0.875007   122A      0.900966  
     123A      0.904054   124A      0.912767   125A      0.920211  
     126A      0.925487   127A      0.930691   128A      0.942717  
     129A      0.953924   130A      0.963278   131A      0.965693  
     132A      0.970766   133A      0.978080   134A      0.991473  
     135A      1.000690   136A      1.003285   137A      1.015335  
     138A      1.023504   139A      1.035206   140A      1.038796  
     141A      1.041381   142A      1.049635   143A      1.063787  
     144A      1.071898   145A      1.086791   146A      1.094430  
     147A      1.101178   148A      1.108670   149A      1.121171  
     150A      1.126828   151A      1.132869   152A      1.135730  
     153A      1.147777   154A      1.155844   155A      1.160651  
     156A      1.168168   157A      1.180995   158A      1.187913  
     159A      1.198210   160A      1.204378   161A      1.214149  
     162A      1.244959   163A      1.252672   164A      1.259420  
     165A      1.275632   166A      1.292476   167A      1.305269  
     168A      1.320029   169A      1.326619   170A      1.335536  
     171A      1.343131   172A      1.349835   173A      1.354544  
     174A      1.367836   175A      1.373983   176A      1.405022  
     177A      1.409302   178A      1.419263   179A      1.436168  
     180A      1.445794   181A      1.459863   182A      1.487463  
     183A      1.496124   184A      1.521184   185A      1.539555  
     186A      1.553677   187A      1.581222   188A      1.583049  
     189A      1.607626   190A      1.617952   191A      1.622674  
     192A      1.652449   193A      1.665350   194A      1.700269  
     195A      1.705503   196A      1.712502   197A      1.722433  
     198A      1.756449   199A      1.776863   200A      1.790480  
     201A      1.809853   202A      1.814920   203A      1.847850  
     204A      1.853945   205A      1.860512   206A      1.874891  
     207A      1.892945   208A      1.916740   209A      1.930332  
     210A      1.943618   211A      1.948506   212A      1.967201  
     213A      1.983708   214A      2.039362   215A      2.053553  
     216A      2.075397   217A      2.091414   218A      2.093157  
     219A      2.135042   220A      2.143840   221A      2.182592  
     222A      2.246403   223A      2.253899   224A      2.270666  
     225A      2.321618   226A      2.371461   227A      2.381283  
     228A      2.405589   229A      2.422463   230A      2.435790  
     231A      2.471000   232A      2.481531   233A      2.499203  
     234A      2.511570   235A      2.527487   236A      2.552420  
     237A      2.588920   238A      2.609468   239A      2.621981  
     240A      2.627203   241A      2.635113   242A      2.661670  
     243A      2.674726   244A      2.680379   245A      2.713265  
     246A      2.715302   247A      2.742785   248A      2.770230  
     249A      2.800092   250A      2.820233   251A      2.822075  
     252A      2.843559   253A      2.850100   254A      2.855555  
     255A      2.862443   256A      2.885923   257A      2.893945  
     258A      2.909879   259A      2.913023   260A      2.930442  
     261A      2.948614   262A      2.957353   263A      2.988723  
     264A      2.991896   265A      3.008897   266A      3.040486  
     267A      3.051966   268A      3.093098   269A      3.119839  
     270A      3.140569   271A      3.164942   272A      3.200776  
     273A      3.268800   274A      3.299961   275A      3.354341  
     276A      3.385351   277A      3.530541   278A      3.848885  
     279A      3.888766   280A      3.907813   281A      3.936934  
     282A      3.977911   283A      4.022585   284A      4.044685  
     285A      4.064089   286A      4.130620   287A      4.156168  
     288A      4.198339   289A      4.222847   290A      4.248185  
     291A      4.262399   292A      4.308772   293A      4.330826  
     294A      4.346592   295A      4.381889   296A      4.387178  
     297A      4.400051   298A      4.423327   299A      4.448934  
     300A      4.470155   301A      4.489072   302A      4.528730  
     303A      4.544139   304A      4.557612   305A      4.563964  
     306A      4.569206   307A      4.594332   308A      4.616978  
     309A      4.628236   310A      4.636483   311A      4.662227  
     312A      4.669306   313A      4.686898   314A      4.698862  
     315A      4.714773   316A      4.719891   317A      4.749232  
     318A      4.760169   319A      4.779650   320A      4.810320  
     321A      4.885746   322A      4.900160   323A      4.914036  
     324A      4.939734   325A      4.951695   326A      4.959750  
     327A      4.976851   328A      5.013007   329A      5.020271  
     330A      5.156681   331A      5.176905   332A      5.214390  
     333A      5.235480   334A      5.236875   335A      5.272973  
     336A      5.300787   337A      5.313337   338A      5.359486  
     339A      5.375349   340A      5.383465   341A      5.429042  
     342A      5.459094   343A      5.507655   344A      5.519934  
     345A      5.565726   346A      5.586801   347A      5.648294  
     348A      5.697712   349A      5.716455   350A      5.853999  
     351A      5.896157   352A      5.915990   353A      5.941671  
     354A      6.412511   355A      6.442002   356A      6.470817  
     357A      6.537878   358A      6.675818   359A      6.682556  
     360A      6.708956   361A      6.724924   362A      6.873309  
     363A      6.898345   364A      6.927946   365A      6.941203  
     366A      7.024208   367A      7.034390   368A      7.078085  
     369A      7.124795   370A      7.203639   371A      7.213166  
     372A      7.254666   373A      7.286694   374A      7.297001  
     375A      7.327347   376A      7.354683   377A      7.388545  
     378A      7.393234   379A      7.408966   380A      7.419304  
     381A      7.431829   382A      7.442410   383A      7.451475  
     384A      7.471201   385A      7.487305   386A      7.488382  
     387A      7.513189   388A      7.520240   389A      7.531569  
     390A      7.573069   391A      7.594792   392A      7.618391  
     393A      7.640009   394A      7.730358   395A      7.749720  
     396A      7.804925   397A      7.905659   398A      7.917007  
     399A      7.941530   400A      7.963490   401A      7.996289  
     402A      8.049464   403A      8.079305   404A      8.126350  
     405A      8.164895   406A      8.749358   407A      8.936344  
     408A      8.950055   409A      9.013108   410A     13.224298  
     411A     15.353054   412A     16.344322   413A     16.400880  
     414A     16.684738  

    Final Occupation by Irrep:
              A 
    DOCC [    20 ]
    NA   [    20 ]
    NB   [    20 ]

  @DF-RHF Final Energy:  -304.21060669378778

   => Energetics <=

    Nuclear Repulsion Energy =            136.0100691404803968
    One-Electron Energy =                -692.0285288234988457
    Two-Electron Energy =                 251.8078529892306960
    Total Energy =                       -304.2106066937877813

Computation Completed


Properties will be evaluated at   0.000000,   0.000000,   0.000000 [a0]

Properties computed using the SCF density matrix


 Multipole Moments:

 ------------------------------------------------------------------------------------
     Multipole            Electronic (a.u.)      Nuclear  (a.u.)        Total (a.u.)
 ------------------------------------------------------------------------------------

 L = 1.  Multiply by 2.5417464519 to convert [e a0] to [Debye]
 Dipole X            :        -18.0279371           18.6319721            0.6040349
 Dipole Y            :        -12.3668727           12.8121636            0.4452909
 Dipole Z            :         -9.8978259            9.7039742           -0.1938517
 Magnitude           :                                                    0.7750617

 ------------------------------------------------------------------------------------

*** tstop() called on moses-razer at Sat Jan  6 17:37:17 2024
Module time:
	user time   =      25.05 seconds =       0.42 minutes
	system time =       0.92 seconds =       0.02 minutes
	total time  =          4 seconds =       0.07 minutes
Total time:
	user time   =      25.05 seconds =       0.42 minutes
	system time =       0.92 seconds =       0.02 minutes
	total time  =          4 seconds =       0.07 minutes

*** tstart() called on moses-razer
*** at Sat Jan  6 17:37:17 2024


  //>>>>>>>>>>>>>>>>>>>>>>>>>>>>>>>>>>>//
  //               DFMP2               //
  //<<<<<<<<<<<<<<<<<<<<<<<<<<<<<<<<<<<//

   => Loading Basis Set <=

    Name: (AUG-CC-PVTZ AUX)
    Role: RIFIT
    Keyword: DF_BASIS_MP2
    atoms 1                     entry LI         line    90 file /home/kchung25/anaconda3/envs/p415env/share/psi4/basis/def2-qzvpp-ri.gbs 
    atoms 2, 5, 8, 11           entry O          line   264 file /home/kchung25/anaconda3/envs/p415env/share/psi4/basis/aug-cc-pvtz-ri.gbs 
    atoms 3-4, 6-7, 9-10, 12-13 entry H          line    30 file /home/kchung25/anaconda3/envs/p415env/share/psi4/basis/aug-cc-pvtz-ri.gbs 

	 --------------------------------------------------------
	                          DF-MP2                         
	      2nd-Order Density-Fitted Moller-Plesset Theory     
	              RMP2 Wavefunction,   6 Threads             
	                                                         
	        Rob Parrish, Justin Turney, Andy Simmonett,      
	           Ed Hohenstein, and C. David Sherrill          
	 --------------------------------------------------------

   => Auxiliary Basis Set <=

  Basis Set: (AUG-CC-PVTZ AUX)
    Blend: AUG-CC-PVTZ-RI + DEF2-QZVPP-RI
    Number of shells: 251
    Number of basis functions: 893
    Number of Cartesian functions: 1114
    Spherical Harmonics?: true
    Max angular momentum: 4

	 --------------------------------------------------------
	                 NBF =   414, NAUX =   893
	 --------------------------------------------------------
	   CLASS    FOCC     OCC    AOCC    AVIR     VIR    FVIR
	   PAIRS       0      20      20     394     394       0
	 --------------------------------------------------------

	-----------------------------------------------------------
	 ==================> DF-MP2 Energies <==================== 
	-----------------------------------------------------------
	 Reference Energy          =    -304.2106066937877813 [Eh]
	 Singles Energy            =      -0.0000000000000000 [Eh]
	 Same-Spin Energy          =      -0.2787273636636778 [Eh]
	 Opposite-Spin Energy      =      -0.8726356547335062 [Eh]
	 Correlation Energy        =      -1.1513630183971841 [Eh]
	 Total Energy              =    -305.3619697121849867 [Eh]
	-----------------------------------------------------------
	 ================> DF-SCS-MP2 Energies <================== 
	-----------------------------------------------------------
	 SCS Same-Spin Scale       =       0.3333333333333333 [-]
	 SCS Opposite-Spin Scale   =       1.2000000000000000 [-]
	 SCS Same-Spin Energy      =      -0.0929091212212259 [Eh]
	 SCS Opposite-Spin Energy  =      -1.0471627856802075 [Eh]
	 SCS Correlation Energy    =      -1.1400719069014333 [Eh]
	 SCS Total Energy          =    -305.3506786006892071 [Eh]
	-----------------------------------------------------------


*** tstop() called on moses-razer at Sat Jan  6 17:37:19 2024
Module time:
	user time   =       9.06 seconds =       0.15 minutes
	system time =       0.49 seconds =       0.01 minutes
	total time  =          2 seconds =       0.03 minutes
Total time:
	user time   =      34.12 seconds =       0.57 minutes
	system time =       1.41 seconds =       0.02 minutes
	total time  =          6 seconds =       0.10 minutes

    Psi4 stopped on: Saturday, 06 January 2024 05:37PM
    Psi4 wall time for execution: 0:00:06.70


    -----------------------------------------------------------------------
          Psi4: An Open-Source Ab Initio Electronic Structure Package
                               Psi4 1.9 release

                         Git: Rev {} zzzzzzz 


    D. G. A. Smith, L. A. Burns, A. C. Simmonett, R. M. Parrish,
    M. C. Schieber, R. Galvelis, P. Kraus, H. Kruse, R. Di Remigio,
    A. Alenaizan, A. M. James, S. Lehtola, J. P. Misiewicz, M. Scheurer,
    R. A. Shaw, J. B. Schriber, Y. Xie, Z. L. Glick, D. A. Sirianni,
    J. S. O'Brien, J. M. Waldrop, A. Kumar, E. G. Hohenstein,
    B. P. Pritchard, B. R. Brooks, H. F. Schaefer III, A. Yu. Sokolov,
    K. Patkowski, A. E. DePrince III, U. Bozkaya, R. A. King,
    F. A. Evangelista, J. M. Turney, T. D. Crawford, C. D. Sherrill,
    J. Chem. Phys. 152(18) 184108 (2020). https://doi.org/10.1063/5.0006002

                            Additional Code Authors
    E. T. Seidl, C. L. Janssen, E. F. Valeev, M. L. Leininger,
    J. F. Gonthier, R. M. Richard, H. R. McAlexander, M. Saitow, X. Wang,
    P. Verma, M. H. Lechner, A. Jiang, S. Behnle, A. G. Heide,
    M. F. Herbst, and D. L. Poole

             Previous Authors, Complete List of Code Contributors,
                       and Citations for Specific Modules
    https://github.com/psi4/psi4/blob/master/codemeta.json
    https://github.com/psi4/psi4/graphs/contributors
    http://psicode.org/psi4manual/master/introduction.html#citing-psifour

    -----------------------------------------------------------------------


    Psi4 started on: Saturday, 06 January 2024 05:37PM

    Process ID: 548702
    Host:       moses-razer
    PSIDATADIR: /home/kchung25/anaconda3/envs/psi4_19/share/psi4
    Memory:     55.9 GiB
    Threads:    6
    
  ==> Input QCSchema <==

--------------------------------------------------------------------------
{'driver': 'energy',
 'extras': {'psiapi': True, 'wfn_qcvars_only': True},
 'id': None,
 'keywords': {'SCF_TYPE': 'DF', 'function_kwargs': {}},
 'model': {'basis': 'aug-cc-pvtz', 'method': 'mp2'},
 'molecule': {'atom_labels': ['', '', '', '', '', '', '', '', '', '', '', '', ''],
              'atomic_numbers': [3, 8, 1, 1, 8, 1, 1, 8, 1, 1, 8, 1, 1],
              'extras': {},
              'fix_com': True,
              'fix_orientation': True,
              'fix_symmetry': 'c1',
              'fragment_charges': [1.0, 0.0],
              'fragment_multiplicities': [1, 1],
              'fragments': [[0], [1, 2, 3, 4, 5, 6, 7, 8, 9, 10, 11, 12]],
              'geometry': [0.0, 0.0, 0.0, -0.01442616924174506, -1.9334222626567894, -2.8564930037069236,
                           0.10955309267116667, -1.0329299693536251, -4.34866043661706, -1.416308157055882,
                           -3.162974455912051, -3.1877563243213047, -0.47957658584481305, -0.9893698924356968,
                           3.5186057949142104, 0.7133451561945737, -2.020139904827924, 4.501304954127042,
                           -0.5614546394086499, 0.5874402633598205, 4.3634494332748925, -1.3722265157273275,
                           3.236346852185202, -0.04466934615357214, -2.8083352231257566, 4.432023814915507,
                           -0.48273620792657856, 0.0921392664250728, 4.370428191856208, -0.0497527094310537,
                           3.5410557412846493, 0.8224825091181397, 0.3892627948569325, 4.321300981772681,
                           -0.09157234858743543, -0.9043700113126037, 4.783119811216568, 0.6415903654848145,
                           1.7588455837347445],
              'mass_numbers': [7, 16, 1, 1, 16, 1, 1, 16, 1, 1, 16, 1, 1],
              'masses': [7.0160034366, 15.99491461957, 1.00782503223, 1.00782503223, 15.99491461957, 1.00782503223,
                         1.00782503223, 15.99491461957, 1.00782503223, 1.00782503223, 15.99491461957, 1.00782503223,
                         1.00782503223],
              'molecular_charge': 1.0,
              'molecular_multiplicity': 1,
              'name': 'dimer',
              'provenance': {'creator': 'QCElemental',
                             'routine': 'qcelemental.molparse.from_string',
                             'version': '0.27.1'},
              'real': [True, False, False, False, False, False, False, False, False, False, False, False, False],
              'schema_name': 'qcschema_molecule',
              'schema_version': 2,
              'symbols': ['Li', 'O', 'H', 'H', 'O', 'H', 'H', 'O', 'H', 'H', 'O', 'H', 'H'],
              'validated': True},
 'protocols': {'stdout': True},
 'provenance': {'creator': 'QCElemental', 'routine': 'qcelemental.models.results', 'version': '0.27.1'},
 'schema_name': 'qcschema_input',
 'schema_version': 1}
--------------------------------------------------------------------------

Scratch directory: /scratch/
   => Libint2 <=

    Primary   basis highest AM E, G, H:  5, 4, 3
    Auxiliary basis highest AM E, G, H:  6, 5, 4
    Onebody   basis highest AM E, G, H:  6, 5, 4
    Solid Harmonics ordering:            gaussian

*** tstart() called on moses-razer
*** at Sat Jan  6 17:37:19 2024

   => Loading Basis Set <=

    Name: AUG-CC-PVTZ
    Role: ORBITAL
    Keyword: BASIS
    atoms 1                     entry LI         line    85 file /home/kchung25/anaconda3/envs/p415env/share/psi4/basis/aug-cc-pvtz.gbs 
    atoms 2, 5, 8, 11           entry O          line   331 file /home/kchung25/anaconda3/envs/p415env/share/psi4/basis/aug-cc-pvtz.gbs 
    atoms 3-4, 6-7, 9-10, 12-13 entry H          line    40 file /home/kchung25/anaconda3/envs/p415env/share/psi4/basis/aug-cc-pvtz.gbs 


         ---------------------------------------------------------
                                   SCF
               by Justin Turney, Rob Parrish, Andy Simmonett
                          and Daniel G. A. Smith
                              RHF Reference
                        6 Threads,  57220 MiB Core
         ---------------------------------------------------------

  ==> Geometry <==

    Molecular point group: c1
    Full point group: C1

    Geometry (in Bohr), charge = 1, multiplicity = 1:

       Center              X                  Y                   Z               Mass       
    ------------   -----------------  -----------------  -----------------  -----------------
         LI           0.000000000000     0.000000000000     0.000000000000     7.016003436600
      Gh(O)          -0.014426169242    -1.933422262657    -2.856493003707    15.994914619570
      Gh(H)           0.109553092671    -1.032929969354    -4.348660436617     1.007825032230
      Gh(H)          -1.416308157056    -3.162974455912    -3.187756324321     1.007825032230
      Gh(O)          -0.479576585845    -0.989369892436     3.518605794914    15.994914619570
      Gh(H)           0.713345156195    -2.020139904828     4.501304954127     1.007825032230
      Gh(H)          -0.561454639409     0.587440263360     4.363449433275     1.007825032230
      Gh(O)          -1.372226515727     3.236346852185    -0.044669346154    15.994914619570
      Gh(H)          -2.808335223126     4.432023814916    -0.482736207927     1.007825032230
      Gh(H)           0.092139266425     4.370428191856    -0.049752709431     1.007825032230
      Gh(O)           3.541055741285     0.822482509118     0.389262794857    15.994914619570
      Gh(H)           4.321300981773    -0.091572348587    -0.904370011313     1.007825032230
      Gh(H)           4.783119811217     0.641590365485     1.758845583735     1.007825032230

  Running in c1 symmetry.

  Rotational constants: A =      0.10383  B =      0.08780  C =      0.08194 [cm^-1]
  Rotational constants: A =   3112.82858  B =   2632.31116  C =   2456.53152 [MHz]
  Nuclear repulsion =    0.000000000000000

  Charge       = 1
  Multiplicity = 1
  Electrons    = 2
  Nalpha       = 1
  Nbeta        = 1

  ==> Algorithm <==

  SCF Algorithm Type is DF.
  DIIS enabled.
  MOM disabled.
  Fractional occupation disabled.
  Guess Type is SAD.
  Energy threshold   = 1.00e-08
  Density threshold  = 1.00e-08
  Integral threshold = 1.00e-12

  ==> Primary Basis <==

  Basis Set: AUG-CC-PVTZ
    Blend: AUG-CC-PVTZ
    Number of shells: 142
    Number of basis functions: 414
    Number of Cartesian functions: 475
    Spherical Harmonics?: true
    Max angular momentum: 3

   => Loading Basis Set <=

    Name: (AUG-CC-PVTZ AUX)
    Role: JKFIT
    Keyword: DF_BASIS_SCF
    atoms 1                     entry LI         line    54 file /home/kchung25/anaconda3/envs/p415env/share/psi4/basis/def2-universal-jkfit.gbs 
    atoms 2, 5, 8, 11           entry O          line   286 file /home/kchung25/anaconda3/envs/p415env/share/psi4/basis/aug-cc-pvtz-jkfit.gbs 
    atoms 3-4, 6-7, 9-10, 12-13 entry H          line    70 file /home/kchung25/anaconda3/envs/p415env/share/psi4/basis/aug-cc-pvtz-jkfit.gbs 

  ==> Integral Setup <==

  DFHelper Memory: AOs need 1.073 GiB; user supplied 41.910 GiB. 
  Using in-core AOs.

  ==> MemDFJK: Density-Fitted J/K Matrices <==

    J tasked:                   Yes
    K tasked:                   Yes
    wK tasked:                   No
    OpenMP threads:               6
    Memory [MiB]:             42915
    Algorithm:                 Core
    Schwarz Cutoff:           1E-12
    Mask sparsity (%):       3.8356
    Fitting Condition:        1E-10

   => Auxiliary Basis Set <=

  Basis Set: (AUG-CC-PVTZ AUX)
    Blend: AUG-CC-PVTZ-JKFIT + DEF2-UNIVERSAL-JKFIT
    Number of shells: 249
    Number of basis functions: 835
    Number of Cartesian functions: 1024
    Spherical Harmonics?: true
    Max angular momentum: 4

  Minimum eigenvalue in the overlap matrix is 1.1262643833E-05.
  Reciprocal condition number of the overlap matrix is 7.5650333425E-07.
    Using symmetric orthogonalization.

  ==> Pre-Iterations <==

  SCF Guess: Superposition of Atomic Densities via on-the-fly atomic UHF (no occupation information).

   -------------------------
    Irrep   Nso     Nmo    
   -------------------------
     A        414     414 
   -------------------------
    Total     414     414
   -------------------------

  ==> Iterations <==

                           Total Energy        Delta E     RMS |[F,P]|

   @DF-RHF iter SAD:    -7.31417455243687   -7.31417e+00   0.00000e+00 
   @DF-RHF iter   1:    -7.23638302675248    7.77915e-02   5.49374e-06 DIIS
   @DF-RHF iter   2:    -7.23638495627622   -1.92952e-06   6.74520e-07 DIIS
   @DF-RHF iter   3:    -7.23638498814457   -3.18684e-08   3.53879e-08 DIIS
   @DF-RHF iter   4:    -7.23638498820816   -6.35918e-11   2.43069e-10 DIIS
  Energy and wave function converged.


  ==> Post-Iterations <==

    Orbital Energies [Eh]
    ---------------------

    Doubly Occupied:                                                      

       1A     -2.792352  

    Virtual:                                                              

       2A     -0.196302     3A     -0.128604     4A     -0.128601  
       5A     -0.128600     6A     -0.073777     7A     -0.056397  
       8A     -0.056394     9A     -0.056390    10A     -0.051431  
      11A     -0.050966    12A     -0.050328    13A     -0.049263  
      14A     -0.045835    15A     -0.027357    16A     -0.010790  
      17A     -0.009509    18A     -0.009214    19A     -0.009031  
      20A     -0.003989    21A      0.005780    22A      0.014390  
      23A      0.014921    24A      0.015892    25A      0.018728  
      26A      0.027792    27A      0.036847    28A      0.040738  
      29A      0.046323    30A      0.052309    31A      0.061831  
      32A      0.076570    33A      0.087324    34A      0.089754  
      35A      0.092281    36A      0.094074    37A      0.105658  
      38A      0.124711    39A      0.125967    40A      0.132303  
      41A      0.146522    42A      0.150306    43A      0.154850  
      44A      0.157321    45A      0.164086    46A      0.170892  
      47A      0.172943    48A      0.179247    49A      0.184056  
      50A      0.190685    51A      0.207746    52A      0.216080  
      53A      0.223614    54A      0.227055    55A      0.232308  
      56A      0.236537    57A      0.246952    58A      0.256974  
      59A      0.262002    60A      0.268916    61A      0.272563  
      62A      0.278330    63A      0.285877    64A      0.290131  
      65A      0.292688    66A      0.293050    67A      0.304143  
      68A      0.308868    69A      0.317840    70A      0.320243  
      71A      0.336445    72A      0.341139    73A      0.346096  
      74A      0.354790    75A      0.363715    76A      0.367836  
      77A      0.369578    78A      0.374430    79A      0.381364  
      80A      0.389305    81A      0.393121    82A      0.404319  
      83A      0.418465    84A      0.428037    85A      0.433891  
      86A      0.446145    87A      0.451938    88A      0.461329  
      89A      0.482509    90A      0.516565    91A      0.539603  
      92A      0.545524    93A      0.564333    94A      0.576849  
      95A      0.586680    96A      0.592583    97A      0.603021  
      98A      0.613884    99A      0.622938   100A      0.638314  
     101A      0.644978   102A      0.655284   103A      0.658389  
     104A      0.665295   105A      0.674815   106A      0.688939  
     107A      0.702256   108A      0.707481   109A      0.720682  
     110A      0.732043   111A      0.740516   112A      0.746205  
     113A      0.753814   114A      0.764010   115A      0.766973  
     116A      0.773164   117A      0.790154   118A      0.800463  
     119A      0.810322   120A      0.819731   121A      0.829961  
     122A      0.837700   123A      0.852069   124A      0.854632  
     125A      0.870237   126A      0.874327   127A      0.885952  
     128A      0.892068   129A      0.907175   130A      0.911053  
     131A      0.918002   132A      0.923850   133A      0.934602  
     134A      0.938753   135A      0.945182   136A      0.950987  
     137A      0.967001   138A      0.968151   139A      0.994651  
     140A      0.996925   141A      1.000254   142A      1.006066  
     143A      1.014711   144A      1.019027   145A      1.036506  
     146A      1.047277   147A      1.063256   148A      1.076520  
     149A      1.086588   150A      1.097440   151A      1.112058  
     152A      1.124563   153A      1.128891   154A      1.136585  
     155A      1.139939   156A      1.154436   157A      1.164421  
     158A      1.172136   159A      1.193732   160A      1.208343  
     161A      1.213226   162A      1.220946   163A      1.236831  
     164A      1.243606   165A      1.262697   166A      1.274417  
     167A      1.283724   168A      1.292582   169A      1.325480  
     170A      1.330833   171A      1.342301   172A      1.354047  
     173A      1.372363   174A      1.397132   175A      1.414545  
     176A      1.435617   177A      1.448267   178A      1.465387  
     179A      1.511724   180A      1.526488   181A      1.535392  
     182A      1.551669   183A      1.573307   184A      1.613496  
     185A      1.630893   186A      1.643912   187A      1.658271  
     188A      1.673452   189A      1.678843   190A      1.688530  
     191A      1.697466   192A      1.734352   193A      1.742980  
     194A      1.757695   195A      1.782229   196A      1.786298  
     197A      1.809716   198A      1.813995   199A      1.830543  
     200A      1.838547   201A      1.866713   202A      1.886982  
     203A      1.911082   204A      1.920887   205A      1.927693  
     206A      1.949316   207A      1.956874   208A      2.006377  
     209A      2.014068   210A      2.178173   211A      2.206219  
     212A      2.242145   213A      2.250311   214A      2.310321  
     215A      2.323962   216A      2.342072   217A      2.345477  
     218A      2.364918   219A      2.368441   220A      2.396291  
     221A      2.409576   222A      2.429721   223A      2.432196  
     224A      2.459114   225A      2.472985   226A      2.477685  
     227A      2.511451   228A      2.521483   229A      2.555530  
     230A      2.575768   231A      2.587541   232A      2.614668  
     233A      2.630277   234A      2.678973   235A      2.692165  
     236A      2.714723   237A      2.731590   238A      2.764465  
     239A      2.804169   240A      2.810749   241A      2.831068  
     242A      2.868706   243A      2.902556   244A      2.944007  
     245A      2.956845   246A      2.993745   247A      2.997373  
     248A      3.024702   249A      3.032114   250A      3.045169  
     251A      3.068424   252A      3.094896   253A      3.106114  
     254A      3.120660   255A      3.132029   256A      3.150200  
     257A      3.166755   258A      3.167282   259A      3.178996  
     260A      3.190613   261A      3.213419   262A      3.218966  
     263A      3.268446   264A      3.316083   265A      3.340043  
     266A      3.462710   267A      3.483761   268A      3.498583  
     269A      3.561950   270A      3.572144   271A      3.604357  
     272A      3.628863   273A      3.733717   274A      4.176221  
     275A      4.223806   276A      4.232096   277A      4.243756  
     278A      4.291815   279A      4.328900   280A      4.341550  
     281A      4.366057   282A      4.387089   283A      4.409034  
     284A      4.420530   285A      4.445829   286A      4.469941  
     287A      4.524410   288A      4.527695   289A      4.539612  
     290A      4.570458   291A      4.596639   292A      4.606620  
     293A      4.624092   294A      4.638484   295A      4.674243  
     296A      4.687383   297A      4.738484   298A      4.805484  
     299A      4.820145   300A      4.847716   301A      4.866357  
     302A      4.884739   303A      4.895609   304A      4.916609  
     305A      4.933159   306A      4.935406   307A      4.975950  
     308A      4.986728   309A      5.033789   310A      5.063529  
     311A      5.080662   312A      5.124940   313A      5.149619  
     314A      5.176883   315A      5.285793   316A      5.329640  
     317A      5.356641   318A      5.367431   319A      5.377645  
     320A      5.430622   321A      5.467585   322A      5.484740  
     323A      5.508576   324A      5.540422   325A      5.595598  
     326A      5.631926   327A      5.721226   328A      5.765334  
     329A      5.797354   330A      5.836006   331A      6.041589  
     332A      6.089443   333A      6.140455   334A      6.180162  
     335A      6.201291   336A      6.227446   337A      6.268878  
     338A      6.338417   339A      6.434683   340A      6.464132  
     341A      6.514002   342A      6.551670   343A      6.743149  
     344A      6.886159   345A      6.929313   346A      6.958126  
     347A      7.485504   348A      7.513732   349A      7.560633  
     350A      7.568323   351A      7.624725   352A      7.630738  
     353A      7.695312   354A      7.721702   355A      7.817395  
     356A      7.821083   357A      7.870429   358A      7.894570  
     359A      7.914595   360A      7.953672   361A      7.956871  
     362A      7.974209   363A      8.010920   364A      8.088797  
     365A      8.098465   366A      8.119762   367A      8.394738  
     368A      8.495458   369A      8.526627   370A      8.557404  
     371A      8.591471   372A      8.641723   373A      8.684523  
     374A      8.696550   375A      9.606252   376A      9.658440  
     377A      9.673518   378A      9.702978   379A      9.737137  
     380A      9.751537   381A      9.769119   382A      9.784824  
     383A      9.802819   384A      9.809397   385A      9.827486  
     386A      9.851926   387A      9.981196   388A      9.992242  
     389A     10.010308   390A     10.050270   391A     10.798578  
     392A     10.887838   393A     10.941367   394A     11.005065  
     395A     11.526054   396A     11.602887   397A     11.641116  
     398A     11.683356   399A     11.750084   400A     12.085159  
     401A     12.173935   402A     12.265621   403A     13.267154  
     404A     13.370391   405A     13.399813   406A     13.446200  
     407A     13.684950   408A     13.725099   409A     13.740404  
     410A     13.777050   411A     63.849340   412A     65.481683  
     413A     65.643157   414A     66.263198  

    Final Occupation by Irrep:
              A 
    DOCC [     1 ]
    NA   [     1 ]
    NB   [     1 ]

  @DF-RHF Final Energy:    -7.23638498820816

   => Energetics <=

    Nuclear Repulsion Energy =              0.0000000000000000
    One-Electron Energy =                  -8.8880669039639830
    Two-Electron Energy =                   1.6516819157558185
    Total Energy =                         -7.2363849882081643

Computation Completed


Properties will be evaluated at   0.000000,   0.000000,   0.000000 [a0]

Properties computed using the SCF density matrix


 Multipole Moments:

 ------------------------------------------------------------------------------------
     Multipole            Electronic (a.u.)      Nuclear  (a.u.)        Total (a.u.)
 ------------------------------------------------------------------------------------

 L = 1.  Multiply by 2.5417464519 to convert [e a0] to [Debye]
 Dipole X            :          0.0000006            0.0000000            0.0000006
 Dipole Y            :         -0.0000029            0.0000000           -0.0000029
 Dipole Z            :          0.0000005            0.0000000            0.0000005
 Magnitude           :                                                    0.0000030

 ------------------------------------------------------------------------------------

*** tstop() called on moses-razer at Sat Jan  6 17:37:22 2024
Module time:
	user time   =      15.82 seconds =       0.26 minutes
	system time =       0.70 seconds =       0.01 minutes
	total time  =          3 seconds =       0.05 minutes
Total time:
	user time   =      50.33 seconds =       0.84 minutes
	system time =       2.11 seconds =       0.04 minutes
	total time  =          9 seconds =       0.15 minutes

*** tstart() called on moses-razer
*** at Sat Jan  6 17:37:22 2024


  //>>>>>>>>>>>>>>>>>>>>>>>>>>>>>>>>>>>//
  //               DFMP2               //
  //<<<<<<<<<<<<<<<<<<<<<<<<<<<<<<<<<<<//

   => Loading Basis Set <=

    Name: (AUG-CC-PVTZ AUX)
    Role: RIFIT
    Keyword: DF_BASIS_MP2
    atoms 1                     entry LI         line    90 file /home/kchung25/anaconda3/envs/p415env/share/psi4/basis/def2-qzvpp-ri.gbs 
    atoms 2, 5, 8, 11           entry O          line   264 file /home/kchung25/anaconda3/envs/p415env/share/psi4/basis/aug-cc-pvtz-ri.gbs 
    atoms 3-4, 6-7, 9-10, 12-13 entry H          line    30 file /home/kchung25/anaconda3/envs/p415env/share/psi4/basis/aug-cc-pvtz-ri.gbs 

	 --------------------------------------------------------
	                          DF-MP2                         
	      2nd-Order Density-Fitted Moller-Plesset Theory     
	              RMP2 Wavefunction,   6 Threads             
	                                                         
	        Rob Parrish, Justin Turney, Andy Simmonett,      
	           Ed Hohenstein, and C. David Sherrill          
	 --------------------------------------------------------

   => Auxiliary Basis Set <=

  Basis Set: (AUG-CC-PVTZ AUX)
    Blend: AUG-CC-PVTZ-RI + DEF2-QZVPP-RI
    Number of shells: 251
    Number of basis functions: 893
    Number of Cartesian functions: 1114
    Spherical Harmonics?: true
    Max angular momentum: 4

	 --------------------------------------------------------
	                 NBF =   414, NAUX =   893
	 --------------------------------------------------------
	   CLASS    FOCC     OCC    AOCC    AVIR     VIR    FVIR
	   PAIRS       0       1       1     413     413       0
	 --------------------------------------------------------

	-----------------------------------------------------------
	 ==================> DF-MP2 Energies <==================== 
	-----------------------------------------------------------
	 Reference Energy          =      -7.2363849882081643 [Eh]
	 Singles Energy            =      -0.0000000000000000 [Eh]
	 Same-Spin Energy          =       0.0000000000000000 [Eh]
	 Opposite-Spin Energy      =      -0.0176089890547878 [Eh]
	 Correlation Energy        =      -0.0176089890547878 [Eh]
	 Total Energy              =      -7.2539939772629518 [Eh]
	-----------------------------------------------------------
	 ================> DF-SCS-MP2 Energies <================== 
	-----------------------------------------------------------
	 SCS Same-Spin Scale       =       0.3333333333333333 [-]
	 SCS Opposite-Spin Scale   =       1.2000000000000000 [-]
	 SCS Same-Spin Energy      =       0.0000000000000000 [Eh]
	 SCS Opposite-Spin Energy  =      -0.0211307868657453 [Eh]
	 SCS Correlation Energy    =      -0.0211307868657453 [Eh]
	 SCS Total Energy          =      -7.2575157750739097 [Eh]
	-----------------------------------------------------------


*** tstop() called on moses-razer at Sat Jan  6 17:37:24 2024
Module time:
	user time   =       6.14 seconds =       0.10 minutes
	system time =       0.29 seconds =       0.00 minutes
	total time  =          2 seconds =       0.03 minutes
Total time:
	user time   =      56.47 seconds =       0.94 minutes
	system time =       2.40 seconds =       0.04 minutes
	total time  =         11 seconds =       0.18 minutes

    Psi4 stopped on: Saturday, 06 January 2024 05:37PM
    Psi4 wall time for execution: 0:00:04.55


    -----------------------------------------------------------------------
          Psi4: An Open-Source Ab Initio Electronic Structure Package
                               Psi4 1.9 release

                         Git: Rev {} zzzzzzz 


    D. G. A. Smith, L. A. Burns, A. C. Simmonett, R. M. Parrish,
    M. C. Schieber, R. Galvelis, P. Kraus, H. Kruse, R. Di Remigio,
    A. Alenaizan, A. M. James, S. Lehtola, J. P. Misiewicz, M. Scheurer,
    R. A. Shaw, J. B. Schriber, Y. Xie, Z. L. Glick, D. A. Sirianni,
    J. S. O'Brien, J. M. Waldrop, A. Kumar, E. G. Hohenstein,
    B. P. Pritchard, B. R. Brooks, H. F. Schaefer III, A. Yu. Sokolov,
    K. Patkowski, A. E. DePrince III, U. Bozkaya, R. A. King,
    F. A. Evangelista, J. M. Turney, T. D. Crawford, C. D. Sherrill,
    J. Chem. Phys. 152(18) 184108 (2020). https://doi.org/10.1063/5.0006002

                            Additional Code Authors
    E. T. Seidl, C. L. Janssen, E. F. Valeev, M. L. Leininger,
    J. F. Gonthier, R. M. Richard, H. R. McAlexander, M. Saitow, X. Wang,
    P. Verma, M. H. Lechner, A. Jiang, S. Behnle, A. G. Heide,
    M. F. Herbst, and D. L. Poole

             Previous Authors, Complete List of Code Contributors,
                       and Citations for Specific Modules
    https://github.com/psi4/psi4/blob/master/codemeta.json
    https://github.com/psi4/psi4/graphs/contributors
    http://psicode.org/psi4manual/master/introduction.html#citing-psifour

    -----------------------------------------------------------------------


    Psi4 started on: Saturday, 06 January 2024 05:37PM

    Process ID: 548702
    Host:       moses-razer
    PSIDATADIR: /home/kchung25/anaconda3/envs/psi4_19/share/psi4
    Memory:     55.9 GiB
    Threads:    6
    
  ==> Input QCSchema <==

--------------------------------------------------------------------------
{'driver': 'energy',
 'extras': {'psiapi': True, 'wfn_qcvars_only': True},
 'id': None,
 'keywords': {'SCF_TYPE': 'DF', 'function_kwargs': {}},
 'model': {'basis': 'aug-cc-pvtz', 'method': 'mp2'},
 'molecule': {'atom_labels': ['', '', '', '', '', '', '', '', '', '', '', '', ''],
              'atomic_numbers': [3, 8, 1, 1, 8, 1, 1, 8, 1, 1, 8, 1, 1],
              'extras': {},
              'fix_com': True,
              'fix_orientation': True,
              'fix_symmetry': 'c1',
              'fragment_charges': [1.0, 0.0],
              'fragment_multiplicities': [1, 1],
              'fragments': [[0], [1, 2, 3, 4, 5, 6, 7, 8, 9, 10, 11, 12]],
              'geometry': [0.0, 0.0, 0.0, -0.01442616924174506, -1.9334222626567894, -2.8564930037069236,
                           0.10955309267116667, -1.0329299693536251, -4.34866043661706, -1.416308157055882,
                           -3.162974455912051, -3.1877563243213047, -0.47957658584481305, -0.9893698924356968,
                           3.5186057949142104, 0.7133451561945737, -2.020139904827924, 4.501304954127042,
                           -0.5614546394086499, 0.5874402633598205, 4.3634494332748925, -1.3722265157273275,
                           3.236346852185202, -0.04466934615357214, -2.8083352231257566, 4.432023814915507,
                           -0.48273620792657856, 0.0921392664250728, 4.370428191856208, -0.0497527094310537,
                           3.5410557412846493, 0.8224825091181397, 0.3892627948569325, 4.321300981772681,
                           -0.09157234858743543, -0.9043700113126037, 4.783119811216568, 0.6415903654848145,
                           1.7588455837347445],
              'mass_numbers': [7, 16, 1, 1, 16, 1, 1, 16, 1, 1, 16, 1, 1],
              'masses': [7.0160034366, 15.99491461957, 1.00782503223, 1.00782503223, 15.99491461957, 1.00782503223,
                         1.00782503223, 15.99491461957, 1.00782503223, 1.00782503223, 15.99491461957, 1.00782503223,
                         1.00782503223],
              'molecular_charge': 1.0,
              'molecular_multiplicity': 1,
              'name': 'dimer',
              'provenance': {'creator': 'QCElemental',
                             'routine': 'qcelemental.molparse.from_string',
                             'version': '0.27.1'},
              'real': [True, True, True, True, True, True, True, True, True, True, True, True, True],
              'schema_name': 'qcschema_molecule',
              'schema_version': 2,
              'symbols': ['Li', 'O', 'H', 'H', 'O', 'H', 'H', 'O', 'H', 'H', 'O', 'H', 'H'],
              'validated': True},
 'protocols': {'stdout': True},
 'provenance': {'creator': 'QCElemental', 'routine': 'qcelemental.models.results', 'version': '0.27.1'},
 'schema_name': 'qcschema_input',
 'schema_version': 1}
--------------------------------------------------------------------------

Scratch directory: /scratch/
   => Libint2 <=

    Primary   basis highest AM E, G, H:  5, 4, 3
    Auxiliary basis highest AM E, G, H:  6, 5, 4
    Onebody   basis highest AM E, G, H:  6, 5, 4
    Solid Harmonics ordering:            gaussian

*** tstart() called on moses-razer
*** at Sat Jan  6 17:37:24 2024

   => Loading Basis Set <=

    Name: AUG-CC-PVTZ
    Role: ORBITAL
    Keyword: BASIS
    atoms 1                     entry LI         line    85 file /home/kchung25/anaconda3/envs/p415env/share/psi4/basis/aug-cc-pvtz.gbs 
    atoms 2, 5, 8, 11           entry O          line   331 file /home/kchung25/anaconda3/envs/p415env/share/psi4/basis/aug-cc-pvtz.gbs 
    atoms 3-4, 6-7, 9-10, 12-13 entry H          line    40 file /home/kchung25/anaconda3/envs/p415env/share/psi4/basis/aug-cc-pvtz.gbs 


         ---------------------------------------------------------
                                   SCF
               by Justin Turney, Rob Parrish, Andy Simmonett
                          and Daniel G. A. Smith
                              RHF Reference
                        6 Threads,  57220 MiB Core
         ---------------------------------------------------------

  ==> Geometry <==

    Molecular point group: c1
    Full point group: C1

    Geometry (in Bohr), charge = 1, multiplicity = 1:

       Center              X                  Y                   Z               Mass       
    ------------   -----------------  -----------------  -----------------  -----------------
         LI           0.000000000000     0.000000000000     0.000000000000     7.016003436600
         O           -0.014426169242    -1.933422262657    -2.856493003707    15.994914619570
         H            0.109553092671    -1.032929969354    -4.348660436617     1.007825032230
         H           -1.416308157056    -3.162974455912    -3.187756324321     1.007825032230
         O           -0.479576585845    -0.989369892436     3.518605794914    15.994914619570
         H            0.713345156195    -2.020139904828     4.501304954127     1.007825032230
         H           -0.561454639409     0.587440263360     4.363449433275     1.007825032230
         O           -1.372226515727     3.236346852185    -0.044669346154    15.994914619570
         H           -2.808335223126     4.432023814916    -0.482736207927     1.007825032230
         H            0.092139266425     4.370428191856    -0.049752709431     1.007825032230
         O            3.541055741285     0.822482509118     0.389262794857    15.994914619570
         H            4.321300981773    -0.091572348587    -0.904370011313     1.007825032230
         H            4.783119811217     0.641590365485     1.758845583735     1.007825032230

  Running in c1 symmetry.

  Rotational constants: A =      0.10383  B =      0.08780  C =      0.08194 [cm^-1]
  Rotational constants: A =   3112.82858  B =   2632.31116  C =   2456.53152 [MHz]
  Nuclear repulsion =  167.974436536151160

  Charge       = 1
  Multiplicity = 1
  Electrons    = 42
  Nalpha       = 21
  Nbeta        = 21

  ==> Algorithm <==

  SCF Algorithm Type is DF.
  DIIS enabled.
  MOM disabled.
  Fractional occupation disabled.
  Guess Type is SAD.
  Energy threshold   = 1.00e-08
  Density threshold  = 1.00e-08
  Integral threshold = 1.00e-12

  ==> Primary Basis <==

  Basis Set: AUG-CC-PVTZ
    Blend: AUG-CC-PVTZ
    Number of shells: 142
    Number of basis functions: 414
    Number of Cartesian functions: 475
    Spherical Harmonics?: true
    Max angular momentum: 3

   => Loading Basis Set <=

    Name: (AUG-CC-PVTZ AUX)
    Role: JKFIT
    Keyword: DF_BASIS_SCF
    atoms 1                     entry LI         line    54 file /home/kchung25/anaconda3/envs/p415env/share/psi4/basis/def2-universal-jkfit.gbs 
    atoms 2, 5, 8, 11           entry O          line   286 file /home/kchung25/anaconda3/envs/p415env/share/psi4/basis/aug-cc-pvtz-jkfit.gbs 
    atoms 3-4, 6-7, 9-10, 12-13 entry H          line    70 file /home/kchung25/anaconda3/envs/p415env/share/psi4/basis/aug-cc-pvtz-jkfit.gbs 

  ==> Integral Setup <==

  DFHelper Memory: AOs need 1.073 GiB; user supplied 41.910 GiB. 
  Using in-core AOs.

  ==> MemDFJK: Density-Fitted J/K Matrices <==

    J tasked:                   Yes
    K tasked:                   Yes
    wK tasked:                   No
    OpenMP threads:               6
    Memory [MiB]:             42915
    Algorithm:                 Core
    Schwarz Cutoff:           1E-12
    Mask sparsity (%):       3.8356
    Fitting Condition:        1E-10

   => Auxiliary Basis Set <=

  Basis Set: (AUG-CC-PVTZ AUX)
    Blend: AUG-CC-PVTZ-JKFIT + DEF2-UNIVERSAL-JKFIT
    Number of shells: 249
    Number of basis functions: 835
    Number of Cartesian functions: 1024
    Spherical Harmonics?: true
    Max angular momentum: 4

  Minimum eigenvalue in the overlap matrix is 1.1262643833E-05.
  Reciprocal condition number of the overlap matrix is 7.5650333425E-07.
    Using symmetric orthogonalization.

  ==> Pre-Iterations <==

  SCF Guess: Superposition of Atomic Densities via on-the-fly atomic UHF (no occupation information).

   -------------------------
    Irrep   Nso     Nmo    
   -------------------------
     A        414     414 
   -------------------------
    Total     414     414
   -------------------------

  ==> Iterations <==

                           Total Energy        Delta E     RMS |[F,P]|

   @DF-RHF iter SAD:  -309.62351971727190   -3.09624e+02   0.00000e+00 
   @DF-RHF iter   1:  -311.26424785221423   -1.64073e+00   2.31560e-03 ADIIS/DIIS
   @DF-RHF iter   2:  -311.49440671810419   -2.30159e-01   1.50941e-03 ADIIS/DIIS
   @DF-RHF iter   3:  -311.61523822316326   -1.20832e-01   1.13887e-04 ADIIS/DIIS
   @DF-RHF iter   4:  -311.61694023861418   -1.70202e-03   2.99843e-05 DIIS
   @DF-RHF iter   5:  -311.61705421278521   -1.13974e-04   9.37993e-06 DIIS
   @DF-RHF iter   6:  -311.61706531451921   -1.11017e-05   3.80111e-06 DIIS
   @DF-RHF iter   7:  -311.61706690559947   -1.59108e-06   6.88708e-07 DIIS
   @DF-RHF iter   8:  -311.61706700589787   -1.00298e-07   1.26909e-07 DIIS
   @DF-RHF iter   9:  -311.61706700886185   -2.96399e-09   2.75722e-08 DIIS
   @DF-RHF iter  10:  -311.61706700898065   -1.18803e-10   9.23976e-09 DIIS
  Energy and wave function converged.


  ==> Post-Iterations <==

    Orbital Energies [Eh]
    ---------------------

    Doubly Occupied:                                                      

       1A    -20.757995     2A    -20.755647     3A    -20.750860  
       4A    -20.736616     5A     -2.524575     6A     -1.551713  
       7A     -1.545879     8A     -1.526156     9A     -1.523182  
      10A     -0.909705    11A     -0.898365    12A     -0.889112  
      13A     -0.880549    14A     -0.805047    15A     -0.796927  
      16A     -0.787846    17A     -0.767947    18A     -0.720343  
      19A     -0.711093    20A     -0.696666    21A     -0.678837  

    Virtual:                                                              

      22A     -0.099455    23A     -0.079681    24A     -0.075187  
      25A     -0.069585    26A     -0.047337    27A     -0.044543  
      28A     -0.043763    29A     -0.042625    30A     -0.039570  
      31A     -0.033252    32A     -0.030699    33A     -0.027501  
      34A     -0.025257    35A     -0.010107    36A     -0.006208  
      37A      0.010458    38A      0.017028    39A      0.027644  
      40A      0.032486    41A      0.038505    42A      0.045187  
      43A      0.046790    44A      0.052854    45A      0.053804  
      46A      0.057448    47A      0.062981    48A      0.069327  
      49A      0.072519    50A      0.074886    51A      0.086439  
      52A      0.094298    53A      0.099618    54A      0.108035  
      55A      0.116112    56A      0.123011    57A      0.130617  
      58A      0.139868    59A      0.151202    60A      0.159721  
      61A      0.174074    62A      0.181823    63A      0.187480  
      64A      0.192333    65A      0.207312    66A      0.212732  
      67A      0.213144    68A      0.224976    69A      0.229607  
      70A      0.237155    71A      0.241505    72A      0.245143  
      73A      0.251656    74A      0.259165    75A      0.266747  
      76A      0.278194    77A      0.280761    78A      0.285543  
      79A      0.289272    80A      0.292213    81A      0.293677  
      82A      0.307039    83A      0.313216    84A      0.315837  
      85A      0.322271    86A      0.328146    87A      0.336985  
      88A      0.340514    89A      0.350693    90A      0.352918  
      91A      0.355190    92A      0.364180    93A      0.366330  
      94A      0.378065    95A      0.382353    96A      0.384890  
      97A      0.393827    98A      0.402480    99A      0.415027  
     100A      0.421856   101A      0.431135   102A      0.435739  
     103A      0.442908   104A      0.450400   105A      0.482472  
     106A      0.498210   107A      0.502772   108A      0.515512  
     109A      0.519163   110A      0.569735   111A      0.575866  
     112A      0.580417   113A      0.591745   114A      0.602886  
     115A      0.616850   116A      0.628778   117A      0.631547  
     118A      0.638859   119A      0.653481   120A      0.660760  
     121A      0.667565   122A      0.677568   123A      0.706983  
     124A      0.715472   125A      0.724351   126A      0.734947  
     127A      0.738781   128A      0.750945   129A      0.755888  
     130A      0.767497   131A      0.777172   132A      0.788341  
     133A      0.791348   134A      0.797693   135A      0.811671  
     136A      0.818155   137A      0.823632   138A      0.826995  
     139A      0.838977   140A      0.852049   141A      0.853729  
     142A      0.872078   143A      0.879438   144A      0.882350  
     145A      0.887026   146A      0.896654   147A      0.914573  
     148A      0.918350   149A      0.922015   150A      0.926387  
     151A      0.934134   152A      0.943321   153A      0.951587  
     154A      0.959527   155A      0.966519   156A      0.980395  
     157A      0.987732   158A      0.993339   159A      0.999503  
     160A      1.011244   161A      1.013479   162A      1.027635  
     163A      1.036445   164A      1.051703   165A      1.071778  
     166A      1.075036   167A      1.082380   168A      1.098363  
     169A      1.101526   170A      1.125161   171A      1.135273  
     172A      1.137347   173A      1.152917   174A      1.156046  
     175A      1.160618   176A      1.171155   177A      1.181065  
     178A      1.209721   179A      1.221337   180A      1.237686  
     181A      1.239550   182A      1.252870   183A      1.258629  
     184A      1.277189   185A      1.305215   186A      1.326494  
     187A      1.342190   188A      1.348325   189A      1.380126  
     190A      1.381270   191A      1.393773   192A      1.405728  
     193A      1.414455   194A      1.439585   195A      1.458987  
     196A      1.487582   197A      1.490582   198A      1.516136  
     199A      1.543604   200A      1.572292   201A      1.575604  
     202A      1.592911   203A      1.609101   204A      1.635304  
     205A      1.648196   206A      1.661424   207A      1.685476  
     208A      1.700819   209A      1.712296   210A      1.730524  
     211A      1.742498   212A      1.767254   213A      1.772999  
     214A      1.779305   215A      1.805076   216A      1.811115  
     217A      1.842156   218A      1.873764   219A      1.878466  
     220A      1.911997   221A      1.940070   222A      1.947700  
     223A      1.965093   224A      1.979578   225A      1.992169  
     226A      2.055721   227A      2.062911   228A      2.092520  
     229A      2.170728   230A      2.184011   231A      2.209179  
     232A      2.228912   233A      2.249587   234A      2.267406  
     235A      2.279692   236A      2.305083   237A      2.341095  
     238A      2.344685   239A      2.360381   240A      2.372505  
     241A      2.392371   242A      2.405299   243A      2.409692  
     244A      2.437341   245A      2.453101   246A      2.468260  
     247A      2.490772   248A      2.507204   249A      2.526048  
     250A      2.538340   251A      2.580442   252A      2.586264  
     253A      2.599091   254A      2.616134   255A      2.629812  
     256A      2.641836   257A      2.648416   258A      2.673665  
     259A      2.684052   260A      2.694698   261A      2.699435  
     262A      2.708914   263A      2.724397   264A      2.737926  
     265A      2.767338   266A      2.776417   267A      2.791843  
     268A      2.811962   269A      2.821569   270A      2.844668  
     271A      2.891012   272A      2.911808   273A      2.925578  
     274A      2.963058   275A      2.985927   276A      3.059021  
     277A      3.153579   278A      3.627836   279A      3.675404  
     280A      3.685920   281A      3.708841   282A      3.752871  
     283A      3.804941   284A      3.822677   285A      3.848726  
     286A      3.919121   287A      3.949217   288A      3.984912  
     289A      4.016072   290A      4.026503   291A      4.051529  
     292A      4.082933   293A      4.119593   294A      4.136945  
     295A      4.150469   296A      4.173912   297A      4.189945  
     298A      4.203520   299A      4.222012   300A      4.256527  
     301A      4.265870   302A      4.297320   303A      4.320678  
     304A      4.337355   305A      4.350012   306A      4.356400  
     307A      4.380999   308A      4.401785   309A      4.411782  
     310A      4.419547   311A      4.444898   312A      4.460197  
     313A      4.468742   314A      4.482902   315A      4.493822  
     316A      4.497370   317A      4.515089   318A      4.536138  
     319A      4.560396   320A      4.593280   321A      4.671507  
     322A      4.676020   323A      4.694056   324A      4.706616  
     325A      4.729898   326A      4.745602   327A      4.766334  
     328A      4.794092   329A      4.809740   330A      4.846840  
     331A      4.942360   332A      4.980986   333A      5.013619  
     334A      5.024305   335A      5.037047   336A      5.066219  
     337A      5.082308   338A      5.106289   339A      5.147430  
     340A      5.155350   341A      5.195865   342A      5.241054  
     343A      5.260101   344A      5.293403   345A      5.351281  
     346A      5.372340   347A      5.412556   348A      5.453896  
     349A      5.479673   350A      5.497169   351A      5.649392  
     352A      5.694149   353A      5.706435   354A      5.727984  
     355A      6.190411   356A      6.209868   357A      6.250387  
     358A      6.317039   359A      6.457294   360A      6.464471  
     361A      6.482967   362A      6.507541   363A      6.652315  
     364A      6.660454   365A      6.702869   366A      6.724360  
     367A      6.802199   368A      6.813048   369A      6.856056  
     370A      6.889106   371A      6.977335   372A      6.987651  
     373A      7.029171   374A      7.062190   375A      7.076597  
     376A      7.104694   377A      7.137286   378A      7.159352  
     379A      7.169469   380A      7.178198   381A      7.201029  
     382A      7.210605   383A      7.221951   384A      7.229721  
     385A      7.248697   386A      7.263220   387A      7.267252  
     388A      7.291067   389A      7.300261   390A      7.308761  
     391A      7.349770   392A      7.370576   393A      7.392896  
     394A      7.416126   395A      7.502558   396A      7.532821  
     397A      7.579536   398A      7.695717   399A      7.712609  
     400A      7.723905   401A      7.741021   402A      7.776661  
     403A      7.824810   404A      7.859716   405A      7.900886  
     406A      7.940548   407A      8.533304   408A      8.717396  
     409A      8.737289   410A      8.801418   411A     15.116060  
     412A     16.125169   413A     16.178781   414A     16.444634  

    Final Occupation by Irrep:
              A 
    DOCC [    21 ]
    NA   [    21 ]
    NB   [    21 ]

  @DF-RHF Final Energy:  -311.61706700898065

   => Energetics <=

    Nuclear Repulsion Energy =            167.9744365361511598
    One-Electron Energy =                -756.7528809475783191
    Two-Electron Energy =                 277.1613774024464760
    Total Energy =                       -311.6170670089806549

Computation Completed


Properties will be evaluated at   0.000000,   0.000000,   0.000000 [a0]

Properties computed using the SCF density matrix


 Multipole Moments:

 ------------------------------------------------------------------------------------
     Multipole            Electronic (a.u.)      Nuclear  (a.u.)        Total (a.u.)
 ------------------------------------------------------------------------------------

 L = 1.  Multiply by 2.5417464519 to convert [e a0] to [Debye]
 Dipole X            :        -17.8681998           18.6319721            0.7637722
 Dipole Y            :        -12.2175262           12.8121636            0.5946374
 Dipole Z            :         -9.8316138            9.7039742           -0.1276396
 Magnitude           :                                                    0.9763368

 ------------------------------------------------------------------------------------

*** tstop() called on moses-razer at Sat Jan  6 17:37:28 2024
Module time:
	user time   =      23.77 seconds =       0.40 minutes
	system time =       0.73 seconds =       0.01 minutes
	total time  =          4 seconds =       0.07 minutes
Total time:
	user time   =      80.65 seconds =       1.34 minutes
	system time =       3.14 seconds =       0.05 minutes
	total time  =         15 seconds =       0.25 minutes

*** tstart() called on moses-razer
*** at Sat Jan  6 17:37:28 2024


  //>>>>>>>>>>>>>>>>>>>>>>>>>>>>>>>>>>>//
  //               DFMP2               //
  //<<<<<<<<<<<<<<<<<<<<<<<<<<<<<<<<<<<//

   => Loading Basis Set <=

    Name: (AUG-CC-PVTZ AUX)
    Role: RIFIT
    Keyword: DF_BASIS_MP2
    atoms 1                     entry LI         line    90 file /home/kchung25/anaconda3/envs/p415env/share/psi4/basis/def2-qzvpp-ri.gbs 
    atoms 2, 5, 8, 11           entry O          line   264 file /home/kchung25/anaconda3/envs/p415env/share/psi4/basis/aug-cc-pvtz-ri.gbs 
    atoms 3-4, 6-7, 9-10, 12-13 entry H          line    30 file /home/kchung25/anaconda3/envs/p415env/share/psi4/basis/aug-cc-pvtz-ri.gbs 

	 --------------------------------------------------------
	                          DF-MP2                         
	      2nd-Order Density-Fitted Moller-Plesset Theory     
	              RMP2 Wavefunction,   6 Threads             
	                                                         
	        Rob Parrish, Justin Turney, Andy Simmonett,      
	           Ed Hohenstein, and C. David Sherrill          
	 --------------------------------------------------------

   => Auxiliary Basis Set <=

  Basis Set: (AUG-CC-PVTZ AUX)
    Blend: AUG-CC-PVTZ-RI + DEF2-QZVPP-RI
    Number of shells: 251
    Number of basis functions: 893
    Number of Cartesian functions: 1114
    Spherical Harmonics?: true
    Max angular momentum: 4

	 --------------------------------------------------------
	                 NBF =   414, NAUX =   893
	 --------------------------------------------------------
	   CLASS    FOCC     OCC    AOCC    AVIR     VIR    FVIR
	   PAIRS       0      21      21     393     393       0
	 --------------------------------------------------------

	-----------------------------------------------------------
	 ==================> DF-MP2 Energies <==================== 
	-----------------------------------------------------------
	 Reference Energy          =    -311.6170670089806549 [Eh]
	 Singles Energy            =      -0.0000000000000000 [Eh]
	 Same-Spin Energy          =      -0.2769099822132759 [Eh]
	 Opposite-Spin Energy      =      -0.8814833093074782 [Eh]
	 Correlation Energy        =      -1.1583932915207540 [Eh]
	 Total Energy              =    -312.7754603005014360 [Eh]
	-----------------------------------------------------------
	 ================> DF-SCS-MP2 Energies <================== 
	-----------------------------------------------------------
	 SCS Same-Spin Scale       =       0.3333333333333333 [-]
	 SCS Opposite-Spin Scale   =       1.2000000000000000 [-]
	 SCS Same-Spin Energy      =      -0.0923033274044253 [Eh]
	 SCS Opposite-Spin Energy  =      -1.0577799711689737 [Eh]
	 SCS Correlation Energy    =      -1.1500832985733991 [Eh]
	 SCS Total Energy          =    -312.7671503075540613 [Eh]
	-----------------------------------------------------------


*** tstop() called on moses-razer at Sat Jan  6 17:37:30 2024
Module time:
	user time   =       9.22 seconds =       0.15 minutes
	system time =       0.46 seconds =       0.01 minutes
	total time  =          2 seconds =       0.03 minutes
Total time:
	user time   =      89.87 seconds =       1.50 minutes
	system time =       3.60 seconds =       0.06 minutes
	total time  =         17 seconds =       0.28 minutes

    Psi4 stopped on: Saturday, 06 January 2024 05:37PM
    Psi4 wall time for execution: 0:00:06.42


  //>>>>>>>>>>>>>>>>>>>>>>>>>>>>>>>>>>>//
  //          ManyBody Results         //
  //<<<<<<<<<<<<<<<<<<<<<<<<<<<<<<<<<<<//


   ==> N-Body: Counterpoise Corrected (CP) energies <==

        n-Body     Total Energy            Interaction Energy                          N-body Contribution to Interaction Energy
                   [Eh]                    [Eh]                  [kcal/mol]            [Eh]                  [kcal/mol]
             1  N/A                         0.000000000000        0.000000000000        0.000000000000        0.000000000000
  FULL/RTN   2  N/A                        -0.159496611053     -100.085634471481       -0.159496611053     -100.085634471481


    Psi4 stopped on: Saturday, 06 January 2024 05:37PM
    Psi4 wall time for execution: 0:00:19.31

*** Psi4 exiting successfully. Buy a developer a beer!
