
    -----------------------------------------------------------------------
          Psi4: An Open-Source Ab Initio Electronic Structure Package
                               Psi4 1.8.2 release

                         Git: Rev {} zzzzzzz 


    D. G. A. Smith, L. A. Burns, A. C. Simmonett, R. M. Parrish,
    M. C. Schieber, R. Galvelis, P. Kraus, H. Kruse, R. Di Remigio,
    A. Alenaizan, A. M. James, S. Lehtola, J. P. Misiewicz, M. Scheurer,
    R. A. Shaw, J. B. Schriber, Y. Xie, Z. L. Glick, D. A. Sirianni,
    J. S. O'Brien, J. M. Waldrop, A. Kumar, E. G. Hohenstein,
    B. P. Pritchard, B. R. Brooks, H. F. Schaefer III, A. Yu. Sokolov,
    K. Patkowski, A. E. DePrince III, U. Bozkaya, R. A. King,
    F. A. Evangelista, J. M. Turney, T. D. Crawford, C. D. Sherrill,
    J. Chem. Phys. 152(18) 184108 (2020). https://doi.org/10.1063/5.0006002

                            Additional Code Authors
    E. T. Seidl, C. L. Janssen, E. F. Valeev, M. L. Leininger,
    J. F. Gonthier, R. M. Richard, H. R. McAlexander, M. Saitow, X. Wang,
    P. Verma, M. H. Lechner, A. Jiang, S. Behnle, A. G. Heide,
    M. F. Herbst, and D. L. Poole

             Previous Authors, Complete List of Code Contributors,
                       and Citations for Specific Modules
    https://github.com/psi4/psi4/blob/master/codemeta.json
    https://github.com/psi4/psi4/graphs/contributors
    http://psicode.org/psi4manual/master/introduction.html#citing-psifour

    -----------------------------------------------------------------------


    Psi4 started on: Monday, 22 January 2024 01:05PM

    Process ID: 53981
    Host:       ddmfs1
    PSIDATADIR: /ddmfs1b/softs/psi4conda/share/psi4
    Memory:     500.0 MiB
    Threads:    20
    
  ==> Input File <==

--------------------------------------------------------------------------
MEMORY 60 GB

molecule dimer {
1 1
Li         0.000000     0.000000     0.000000
Gh(O)     -1.823214    -0.719894     0.345269
Gh(H)     -2.765845    -0.448248     0.422513
Gh(H)     -1.777057    -1.712165     0.634199
Gh(O)      0.476037     1.149236     1.715289
Gh(H)      0.711857     2.093154     1.538815
Gh(H)      0.685084     0.967159     2.641652
Gh(O)      1.728929    -0.875103     0.471180
Gh(H)      2.397221    -1.337494    -0.064528
Gh(H)      2.188841    -0.670296     1.297771
Gh(O)      0.027016     0.508388    -1.723464
Gh(H)      0.534035     1.318936    -1.962317
Gh(H)      0.013326    -0.084920    -2.476549

units ang
no_reorient
no_com
symmetry c1
}

set {
basis        aug-cc-pVTZ
scf_type     df
}

energy("mp2")
--------------------------------------------------------------------------

  Memory set to  55.879 GiB by Python driver.

Scratch directory: /ddmfs1a/scratch/
   => Libint2 <=

    Primary   basis highest AM E, G, H:  5, 4, 3
    Auxiliary basis highest AM E, G, H:  6, 5, 4
    Onebody   basis highest AM E, G, H:  6, 5, 4
    Solid Harmonics ordering:            gaussian

*** tstart() called on ddmfs1
*** at Mon Jan 22 13:05:14 2024

   => Loading Basis Set <=

    Name: AUG-CC-PVTZ
    Role: ORBITAL
    Keyword: BASIS
    atoms 1                     entry LI         line    85 file /ddmfs1b/softs/psi4conda/share/psi4/basis/aug-cc-pvtz.gbs 
    atoms 2, 5, 8, 11           entry O          line   331 file /ddmfs1b/softs/psi4conda/share/psi4/basis/aug-cc-pvtz.gbs 
    atoms 3-4, 6-7, 9-10, 12-13 entry H          line    40 file /ddmfs1b/softs/psi4conda/share/psi4/basis/aug-cc-pvtz.gbs 


         ---------------------------------------------------------
                                   SCF
               by Justin Turney, Rob Parrish, Andy Simmonett
                          and Daniel G. A. Smith
                              RHF Reference
                       20 Threads,  57220 MiB Core
         ---------------------------------------------------------

  ==> Geometry <==

    Molecular point group: c1
    Full point group: C1

    Geometry (in Angstrom), charge = 1, multiplicity = 1:

       Center              X                  Y                   Z               Mass       
    ------------   -----------------  -----------------  -----------------  -----------------
         LI           0.000000000000     0.000000000000     0.000000000000     7.016003436600
      Gh(O)          -1.823214000000    -0.719894000000     0.345269000000    15.994914619570
      Gh(H)          -2.765845000000    -0.448248000000     0.422513000000     1.007825032230
      Gh(H)          -1.777057000000    -1.712165000000     0.634199000000     1.007825032230
      Gh(O)           0.476037000000     1.149236000000     1.715289000000    15.994914619570
      Gh(H)           0.711857000000     2.093154000000     1.538815000000     1.007825032230
      Gh(H)           0.685084000000     0.967159000000     2.641652000000     1.007825032230
      Gh(O)           1.728929000000    -0.875103000000     0.471180000000    15.994914619570
      Gh(H)           2.397221000000    -1.337494000000    -0.064528000000     1.007825032230
      Gh(H)           2.188841000000    -0.670296000000     1.297771000000     1.007825032230
      Gh(O)           0.027016000000     0.508388000000    -1.723464000000    15.994914619570
      Gh(H)           0.534035000000     1.318936000000    -1.962317000000     1.007825032230
      Gh(H)           0.013326000000    -0.084920000000    -2.476549000000     1.007825032230

  Running in c1 symmetry.

  Rotational constants: A =      0.10304  B =      0.08402  C =      0.06721 [cm^-1]
  Rotational constants: A =   3088.96610  B =   2518.81098  C =   2015.03830 [MHz]
  Nuclear repulsion =    0.000000000000000

  Charge       = 1
  Multiplicity = 1
  Electrons    = 2
  Nalpha       = 1
  Nbeta        = 1

  ==> Algorithm <==

  SCF Algorithm Type is DF.
  DIIS enabled.
  MOM disabled.
  Fractional occupation disabled.
  Guess Type is SAD.
  Energy threshold   = 1.00e-08
  Density threshold  = 1.00e-08
  Integral threshold = 1.00e-12

  ==> Primary Basis <==

  Basis Set: AUG-CC-PVTZ
    Blend: AUG-CC-PVTZ
    Number of shells: 142
    Number of basis functions: 414
    Number of Cartesian functions: 475
    Spherical Harmonics?: true
    Max angular momentum: 3

   => Loading Basis Set <=

    Name: (AUG-CC-PVTZ AUX)
    Role: JKFIT
    Keyword: DF_BASIS_SCF
    atoms 1                     entry LI         line    54 file /ddmfs1b/softs/psi4conda/share/psi4/basis/def2-universal-jkfit.gbs 
    atoms 2, 5, 8, 11           entry O          line   286 file /ddmfs1b/softs/psi4conda/share/psi4/basis/aug-cc-pvtz-jkfit.gbs 
    atoms 3-4, 6-7, 9-10, 12-13 entry H          line    70 file /ddmfs1b/softs/psi4conda/share/psi4/basis/aug-cc-pvtz-jkfit.gbs 

  ==> Integral Setup <==

  DFHelper Memory: AOs need 1.076 GiB; user supplied 41.910 GiB. 
  Using in-core AOs.

  ==> MemDFJK: Density-Fitted J/K Matrices <==

    J tasked:                   Yes
    K tasked:                   Yes
    wK tasked:                   No
    OpenMP threads:              20
    Memory [MiB]:             42915
    Algorithm:                 Core
    Schwarz Cutoff:           1E-12
    Mask sparsity (%):       5.1938
    Fitting Condition:        1E-10

   => Auxiliary Basis Set <=

  Basis Set: (AUG-CC-PVTZ AUX)
    Blend: AUG-CC-PVTZ-JKFIT + DEF2-UNIVERSAL-JKFIT
    Number of shells: 249
    Number of basis functions: 835
    Number of Cartesian functions: 1024
    Spherical Harmonics?: true
    Max angular momentum: 4

  Minimum eigenvalue in the overlap matrix is 1.4955535516E-05.
  Reciprocal condition number of the overlap matrix is 1.0708313312E-06.
    Using symmetric orthogonalization.

  ==> Pre-Iterations <==

  SCF Guess: Superposition of Atomic Densities via on-the-fly atomic UHF (no occupation information).

   -------------------------
    Irrep   Nso     Nmo    
   -------------------------
     A        414     414 
   -------------------------
    Total     414     414
   -------------------------

  ==> Iterations <==

                           Total Energy        Delta E     RMS |[F,P]|

   @DF-RHF iter SAD:    -7.31414673351324   -7.31415e+00   0.00000e+00 
   @DF-RHF iter   1:    -7.23638284679246    7.77639e-02   5.47741e-06 DIIS
   @DF-RHF iter   2:    -7.23638476415429   -1.91736e-06   6.68518e-07 DIIS
   @DF-RHF iter   3:    -7.23638479559403   -3.14397e-08   3.45192e-08 DIIS
   @DF-RHF iter   4:    -7.23638479565517   -6.11458e-11   2.37849e-10 DIIS
  Energy and wave function converged.


  ==> Post-Iterations <==

    Orbital Energies [Eh]
    ---------------------

    Doubly Occupied:                                                      

       1A     -2.792354  

    Virtual:                                                              

       2A     -0.196302     3A     -0.128603     4A     -0.128602  
       5A     -0.128599     6A     -0.073771     7A     -0.056400  
       8A     -0.056396     9A     -0.056389    10A     -0.051783  
      11A     -0.051244    12A     -0.050228    13A     -0.047653  
      14A     -0.047166    15A     -0.026712    16A     -0.011801  
      17A     -0.010025    18A     -0.008817    19A     -0.007976  
      20A     -0.004898    21A      0.007686    22A      0.011735  
      23A      0.013844    24A      0.017632    25A      0.019368  
      26A      0.022451    27A      0.038757    28A      0.041124  
      29A      0.045802    30A      0.050983    31A      0.062047  
      32A      0.078350    33A      0.084871    34A      0.086123  
      35A      0.092912    36A      0.099556    37A      0.099987  
      38A      0.130604    39A      0.136062    40A      0.138259  
      41A      0.144681    42A      0.152821    43A      0.160729  
      44A      0.164041    45A      0.170103    46A      0.172809  
      47A      0.175712    48A      0.177466    49A      0.182665  
      50A      0.199771    51A      0.201572    52A      0.212116  
      53A      0.223540    54A      0.230504    55A      0.232397  
      56A      0.235321    57A      0.241015    58A      0.252761  
      59A      0.257277    60A      0.260630    61A      0.264230  
      62A      0.269538    63A      0.271135    64A      0.272288  
      65A      0.279819    66A      0.287802    67A      0.298886  
      68A      0.307424    69A      0.311094    70A      0.319963  
      71A      0.321511    72A      0.331402    73A      0.346639  
      74A      0.349975    75A      0.351648    76A      0.358011  
      77A      0.366258    78A      0.369047    79A      0.375773  
      80A      0.380817    81A      0.384384    82A      0.403561  
      83A      0.426111    84A      0.430134    85A      0.435621  
      86A      0.453592    87A      0.454030    88A      0.477654  
      89A      0.493283    90A      0.528352    91A      0.533740  
      92A      0.550188    93A      0.560213    94A      0.577303  
      95A      0.579799    96A      0.595131    97A      0.600099  
      98A      0.607317    99A      0.615694   100A      0.620247  
     101A      0.626896   102A      0.642358   103A      0.653322  
     104A      0.671975   105A      0.678290   106A      0.683090  
     107A      0.687039   108A      0.695899   109A      0.704406  
     110A      0.711841   111A      0.720006   112A      0.727660  
     113A      0.737617   114A      0.750265   115A      0.754937  
     116A      0.769158   117A      0.785525   118A      0.790991  
     119A      0.800489   120A      0.810808   121A      0.827708  
     122A      0.828829   123A      0.840977   124A      0.848103  
     125A      0.855755   126A      0.865454   127A      0.873582  
     128A      0.886053   129A      0.890126   130A      0.897759  
     131A      0.909251   132A      0.917932   133A      0.923038  
     134A      0.929030   135A      0.940606   136A      0.948046  
     137A      0.953977   138A      0.960767   139A      0.968686  
     140A      0.978816   141A      0.987446   142A      0.992630  
     143A      1.003296   144A      1.014100   145A      1.025095  
     146A      1.029780   147A      1.044537   148A      1.048316  
     149A      1.055801   150A      1.071367   151A      1.076041  
     152A      1.089976   153A      1.101363   154A      1.119119  
     155A      1.122983   156A      1.128045   157A      1.135051  
     158A      1.148329   159A      1.156330   160A      1.184726  
     161A      1.191755   162A      1.209358   163A      1.224436  
     164A      1.240361   165A      1.248180   166A      1.254857  
     167A      1.265455   168A      1.276956   169A      1.285450  
     170A      1.298532   171A      1.307934   172A      1.337636  
     173A      1.347234   174A      1.364232   175A      1.379567  
     176A      1.409859   177A      1.424308   178A      1.485900  
     179A      1.496225   180A      1.510202   181A      1.554607  
     182A      1.572880   183A      1.594070   184A      1.609162  
     185A      1.612654   186A      1.633317   187A      1.649047  
     188A      1.671262   189A      1.674238   190A      1.680374  
     191A      1.692030   192A      1.709048   193A      1.720925  
     194A      1.743828   195A      1.757894   196A      1.779943  
     197A      1.800150   198A      1.813439   199A      1.821514  
     200A      1.829366   201A      1.834599   202A      1.844845  
     203A      1.863909   204A      1.886671   205A      1.903583  
     206A      1.934862   207A      1.959791   208A      1.966270  
     209A      2.038048   210A      2.182189   211A      2.232549  
     212A      2.237369   213A      2.282538   214A      2.296253  
     215A      2.306673   216A      2.326599   217A      2.329933  
     218A      2.344978   219A      2.349502   220A      2.363994  
     221A      2.390958   222A      2.402319   223A      2.410903  
     224A      2.413024   225A      2.419319   226A      2.453757  
     227A      2.456837   228A      2.466097   229A      2.494533  
     230A      2.531481   231A      2.552754   232A      2.560717  
     233A      2.576448   234A      2.662597   235A      2.676359  
     236A      2.703936   237A      2.712286   238A      2.728492  
     239A      2.741377   240A      2.769961   241A      2.788530  
     242A      2.812371   243A      2.843635   244A      2.884539  
     245A      2.925178   246A      2.962479   247A      2.986580  
     248A      2.999989   249A      3.019465   250A      3.036319  
     251A      3.053726   252A      3.067386   253A      3.084790  
     254A      3.096568   255A      3.103527   256A      3.119208  
     257A      3.124300   258A      3.142406   259A      3.155640  
     260A      3.164859   261A      3.188631   262A      3.195224  
     263A      3.241433   264A      3.295153   265A      3.299703  
     266A      3.473474   267A      3.489627   268A      3.512369  
     269A      3.522916   270A      3.547097   271A      3.594321  
     272A      3.613647   273A      3.789778   274A      4.148272  
     275A      4.167868   276A      4.197942   277A      4.230336  
     278A      4.241597   279A      4.316600   280A      4.347267  
     281A      4.364318   282A      4.380788   283A      4.396768  
     284A      4.418018   285A      4.435195   286A      4.446184  
     287A      4.487030   288A      4.510727   289A      4.552385  
     290A      4.561590   291A      4.572483   292A      4.612336  
     293A      4.644115   294A      4.667332   295A      4.676725  
     296A      4.699876   297A      4.725897   298A      4.785600  
     299A      4.807151   300A      4.830428   301A      4.854700  
     302A      4.869890   303A      4.889380   304A      4.905106  
     305A      4.912269   306A      4.927759   307A      4.935957  
     308A      4.949003   309A      4.992275   310A      5.000786  
     311A      5.038241   312A      5.057525   313A      5.086386  
     314A      5.186207   315A      5.201121   316A      5.226127  
     317A      5.280635   318A      5.315365   319A      5.338852  
     320A      5.364632   321A      5.409285   322A      5.452852  
     323A      5.461773   324A      5.476656   325A      5.541801  
     326A      5.563443   327A      5.630690   328A      5.676973  
     329A      5.735925   330A      5.783804   331A      5.982924  
     332A      6.000265   333A      6.072127   334A      6.094438  
     335A      6.133072   336A      6.160796   337A      6.197835  
     338A      6.259035   339A      6.360334   340A      6.505760  
     341A      6.557001   342A      6.585250   343A      6.732468  
     344A      6.816434   345A      6.865945   346A      6.904893  
     347A      7.454105   348A      7.502625   349A      7.519108  
     350A      7.549326   351A      7.590190   352A      7.634263  
     353A      7.656572   354A      7.724490   355A      7.783737  
     356A      7.837952   357A      7.863433   358A      7.888806  
     359A      7.908475   360A      7.944758   361A      7.962063  
     362A      7.986773   363A      8.004879   364A      8.026186  
     365A      8.033387   366A      8.076821   367A      8.326126  
     368A      8.404485   369A      8.486742   370A      8.497671  
     371A      8.536534   372A      8.554552   373A      8.567630  
     374A      8.613749   375A      9.560646   376A      9.627215  
     377A      9.643396   378A      9.663521   379A      9.696609  
     380A      9.736010   381A      9.754163   382A      9.765925  
     383A      9.781523   384A      9.797568   385A      9.805767  
     386A      9.810557   387A      9.938202   388A      9.981477  
     389A     10.006803   390A     10.041035   391A     10.664886  
     392A     10.848122   393A     10.877096   394A     10.970255  
     395A     11.484575   396A     11.500167   397A     11.551130  
     398A     11.618823   399A     11.643257   400A     11.869902  
     401A     11.940252   402A     12.060122   403A     13.158700  
     404A     13.252178   405A     13.348675   406A     13.368634  
     407A     13.658055   408A     13.677972   409A     13.689856  
     410A     13.755774   411A     62.938416   412A     64.388639  
     413A     64.583250   414A     65.183400  

    Final Occupation by Irrep:
              A 
    DOCC [     1 ]
    NA   [     1 ]
    NB   [     1 ]

  @DF-RHF Final Energy:    -7.23638479565517

   => Energetics <=

    Nuclear Repulsion Energy =              0.0000000000000000
    One-Electron Energy =                  -8.8880620877445544
    Two-Electron Energy =                   1.6516772920893799
    Total Energy =                         -7.2363847956551748

Computation Completed


Properties will be evaluated at   0.000000,   0.000000,   0.000000 [a0]

Properties computed using the SCF density matrix


 Multipole Moments:

 ------------------------------------------------------------------------------------
     Multipole            Electronic (a.u.)      Nuclear  (a.u.)        Total (a.u.)
 ------------------------------------------------------------------------------------

 L = 1.  Multiply by 2.5417464519 to convert [e a0] to [Debye]
 Dipole X            :          0.0000014            0.0000000            0.0000014
 Dipole Y            :          0.0000022            0.0000000            0.0000022
 Dipole Z            :          0.0000094            0.0000000            0.0000094
 Magnitude           :                                                    0.0000098

 ------------------------------------------------------------------------------------

*** tstop() called on ddmfs1 at Mon Jan 22 13:05:17 2024
Module time:
	user time   =      40.49 seconds =       0.67 minutes
	system time =       2.35 seconds =       0.04 minutes
	total time  =          3 seconds =       0.05 minutes
Total time:
	user time   =      40.49 seconds =       0.67 minutes
	system time =       2.35 seconds =       0.04 minutes
	total time  =          3 seconds =       0.05 minutes

*** tstart() called on ddmfs1
*** at Mon Jan 22 13:05:17 2024


  //>>>>>>>>>>>>>>>>>>>>>>>>>>>>>>>>>>>//
  //               DFMP2               //
  //<<<<<<<<<<<<<<<<<<<<<<<<<<<<<<<<<<<//

   => Loading Basis Set <=

    Name: (AUG-CC-PVTZ AUX)
    Role: RIFIT
    Keyword: DF_BASIS_MP2
    atoms 1                     entry LI         line    90 file /ddmfs1b/softs/psi4conda/share/psi4/basis/def2-qzvpp-ri.gbs 
    atoms 2, 5, 8, 11           entry O          line   264 file /ddmfs1b/softs/psi4conda/share/psi4/basis/aug-cc-pvtz-ri.gbs 
    atoms 3-4, 6-7, 9-10, 12-13 entry H          line    30 file /ddmfs1b/softs/psi4conda/share/psi4/basis/aug-cc-pvtz-ri.gbs 

	 --------------------------------------------------------
	                          DF-MP2                         
	      2nd-Order Density-Fitted Moller-Plesset Theory     
	              RMP2 Wavefunction,  20 Threads             
	                                                         
	        Rob Parrish, Justin Turney, Andy Simmonett,      
	           Ed Hohenstein, and C. David Sherrill          
	 --------------------------------------------------------

   => Auxiliary Basis Set <=

  Basis Set: (AUG-CC-PVTZ AUX)
    Blend: AUG-CC-PVTZ-RI + DEF2-QZVPP-RI
    Number of shells: 251
    Number of basis functions: 893
    Number of Cartesian functions: 1114
    Spherical Harmonics?: true
    Max angular momentum: 4

	 --------------------------------------------------------
	                 NBF =   414, NAUX =   893
	 --------------------------------------------------------
	   CLASS    FOCC     OCC    AOCC    AVIR     VIR    FVIR
	   PAIRS       0       1       1     413     413       0
	 --------------------------------------------------------

	-----------------------------------------------------------
	 ==================> DF-MP2 Energies <==================== 
	-----------------------------------------------------------
	 Reference Energy          =      -7.2363847956551739 [Eh]
	 Singles Energy            =      -0.0000000000000000 [Eh]
	 Same-Spin Energy          =       0.0000000000000000 [Eh]
	 Opposite-Spin Energy      =      -0.0167976161378421 [Eh]
	 Correlation Energy        =      -0.0167976161378421 [Eh]
	 Total Energy              =      -7.2531824117930164 [Eh]
	-----------------------------------------------------------
	 ================> DF-SCS-MP2 Energies <================== 
	-----------------------------------------------------------
	 SCS Same-Spin Scale       =       0.3333333333333333 [-]
	 SCS Opposite-Spin Scale   =       1.2000000000000000 [-]
	 SCS Same-Spin Energy      =       0.0000000000000000 [Eh]
	 SCS Opposite-Spin Energy  =      -0.0201571393654106 [Eh]
	 SCS Correlation Energy    =      -0.0201571393654106 [Eh]
	 SCS Total Energy          =      -7.2565419350205849 [Eh]
	-----------------------------------------------------------


*** tstop() called on ddmfs1 at Mon Jan 22 13:05:19 2024
Module time:
	user time   =      15.66 seconds =       0.26 minutes
	system time =       0.80 seconds =       0.01 minutes
	total time  =          2 seconds =       0.03 minutes
Total time:
	user time   =      56.17 seconds =       0.94 minutes
	system time =       3.16 seconds =       0.05 minutes
	total time  =          5 seconds =       0.08 minutes

    Psi4 stopped on: Monday, 22 January 2024 01:05PM
    Psi4 wall time for execution: 0:00:05.37

*** Psi4 exiting successfully. Buy a developer a beer!
