
    -----------------------------------------------------------------------
          Psi4: An Open-Source Ab Initio Electronic Structure Package
                               Psi4 1.9 release

                         Git: Rev {} zzzzzzz 


    D. G. A. Smith, L. A. Burns, A. C. Simmonett, R. M. Parrish,
    M. C. Schieber, R. Galvelis, P. Kraus, H. Kruse, R. Di Remigio,
    A. Alenaizan, A. M. James, S. Lehtola, J. P. Misiewicz, M. Scheurer,
    R. A. Shaw, J. B. Schriber, Y. Xie, Z. L. Glick, D. A. Sirianni,
    J. S. O'Brien, J. M. Waldrop, A. Kumar, E. G. Hohenstein,
    B. P. Pritchard, B. R. Brooks, H. F. Schaefer III, A. Yu. Sokolov,
    K. Patkowski, A. E. DePrince III, U. Bozkaya, R. A. King,
    F. A. Evangelista, J. M. Turney, T. D. Crawford, C. D. Sherrill,
    J. Chem. Phys. 152(18) 184108 (2020). https://doi.org/10.1063/5.0006002

                            Additional Code Authors
    E. T. Seidl, C. L. Janssen, E. F. Valeev, M. L. Leininger,
    J. F. Gonthier, R. M. Richard, H. R. McAlexander, M. Saitow, X. Wang,
    P. Verma, M. H. Lechner, A. Jiang, S. Behnle, A. G. Heide,
    M. F. Herbst, and D. L. Poole

             Previous Authors, Complete List of Code Contributors,
                       and Citations for Specific Modules
    https://github.com/psi4/psi4/blob/master/codemeta.json
    https://github.com/psi4/psi4/graphs/contributors
    http://psicode.org/psi4manual/master/introduction.html#citing-psifour

    -----------------------------------------------------------------------


    Psi4 started on: Saturday, 06 January 2024 05:25PM

    Process ID: 547730
    Host:       moses-razer
    PSIDATADIR: /home/kchung25/anaconda3/envs/psi4_19/share/psi4
    Memory:     500.0 MiB
    Threads:    6
    
  ==> Input File <==

--------------------------------------------------------------------------
MEMORY 60 GB

molecule dimer {
1 1
Li     0.000000     0.000000     0.000000
--
0 1
O      1.019083     0.534807    -1.726191
H      0.625080     0.290251    -2.608177
H      0.830858     1.498588    -1.618666
O      0.965199     1.220004     1.116919
H      0.489944     1.995527     1.292918
H      1.415083     0.944086     1.921579
O     -1.437462     1.300273    -0.217367
H     -1.717662     1.772714     0.555732
H     -1.328741     1.931896    -0.948455
O     -0.568332    -1.731301    -0.760465
H     -0.202881    -1.985016    -1.680965
H     -0.497598    -2.566820    -0.278428

units ang
no_reorient
no_com
symmetry c1
}

set {
basis        aug-cc-pVTZ
scf_type     df
}

energy("mp2", bsse_type="cp")
--------------------------------------------------------------------------

  Memory set to  55.879 GiB by Python driver.

Scratch directory: /scratch/

  //>>>>>>>>>>>>>>>>>>>>>>>>>>>>>>>>>>>>>//
  // ManyBody Setup: N-Body Levels [1, 2]//
  //<<<<<<<<<<<<<<<<<<<<<<<<<<<<<<<<<<<<<//

        Number of 1-body computations:     2
        Number of 2-body computations:     1

    -----------------------------------------------------------------------
          Psi4: An Open-Source Ab Initio Electronic Structure Package
                               Psi4 1.9 release

                         Git: Rev {} zzzzzzz 


    D. G. A. Smith, L. A. Burns, A. C. Simmonett, R. M. Parrish,
    M. C. Schieber, R. Galvelis, P. Kraus, H. Kruse, R. Di Remigio,
    A. Alenaizan, A. M. James, S. Lehtola, J. P. Misiewicz, M. Scheurer,
    R. A. Shaw, J. B. Schriber, Y. Xie, Z. L. Glick, D. A. Sirianni,
    J. S. O'Brien, J. M. Waldrop, A. Kumar, E. G. Hohenstein,
    B. P. Pritchard, B. R. Brooks, H. F. Schaefer III, A. Yu. Sokolov,
    K. Patkowski, A. E. DePrince III, U. Bozkaya, R. A. King,
    F. A. Evangelista, J. M. Turney, T. D. Crawford, C. D. Sherrill,
    J. Chem. Phys. 152(18) 184108 (2020). https://doi.org/10.1063/5.0006002

                            Additional Code Authors
    E. T. Seidl, C. L. Janssen, E. F. Valeev, M. L. Leininger,
    J. F. Gonthier, R. M. Richard, H. R. McAlexander, M. Saitow, X. Wang,
    P. Verma, M. H. Lechner, A. Jiang, S. Behnle, A. G. Heide,
    M. F. Herbst, and D. L. Poole

             Previous Authors, Complete List of Code Contributors,
                       and Citations for Specific Modules
    https://github.com/psi4/psi4/blob/master/codemeta.json
    https://github.com/psi4/psi4/graphs/contributors
    http://psicode.org/psi4manual/master/introduction.html#citing-psifour

    -----------------------------------------------------------------------


    Psi4 started on: Saturday, 06 January 2024 05:25PM

    Process ID: 547730
    Host:       moses-razer
    PSIDATADIR: /home/kchung25/anaconda3/envs/psi4_19/share/psi4
    Memory:     55.9 GiB
    Threads:    6
    
  ==> Input QCSchema <==

--------------------------------------------------------------------------
{'driver': 'energy',
 'extras': {'psiapi': True, 'wfn_qcvars_only': True},
 'id': None,
 'keywords': {'SCF_TYPE': 'DF', 'function_kwargs': {}},
 'model': {'basis': 'aug-cc-pvtz', 'method': 'mp2'},
 'molecule': {'atom_labels': ['', '', '', '', '', '', '', '', '', '', '', '', ''],
              'atomic_numbers': [3, 8, 1, 1, 8, 1, 1, 8, 1, 1, 8, 1, 1],
              'extras': {},
              'fix_com': True,
              'fix_orientation': True,
              'fix_symmetry': 'c1',
              'fragment_charges': [0.0, 0.0],
              'fragment_multiplicities': [1, 1],
              'fragments': [[0], [1, 2, 3, 4, 5, 6, 7, 8, 9, 10, 11, 12]],
              'geometry': [0.0, 0.0, 0.0, 1.9257877691099399, 1.0106387599777247, -3.262028230230174,
                           1.1812300065011792, 0.54849489764026, -4.9287402167182215, 1.5700940691456402,
                           2.831920894897596, -3.0588354285903208, 1.8239617665657704, 2.3054734319630525,
                           2.110671014320232, 0.9258599768113102, 3.7709995059564836, 2.443260922674684,
                           2.67411931479124, 1.7840639788789792, 3.631258038431128, -2.7164094957528606,
                           2.457159858327427, -0.4107640987123917, -3.245910756106144, 3.349943958764848,
                           1.0501812791529297, -2.51095658166696, 3.6507543428674767, -1.7923201923211045,
                           -1.0739918283336982, -3.2716847307312626, -1.4370705779962871, -0.38338952605900967,
                           -3.751136594651796, -3.176563476480218, -0.9403239405755643, -4.850586813347662,
                           -0.5261526656589722],
              'mass_numbers': [7, 16, 1, 1, 16, 1, 1, 16, 1, 1, 16, 1, 1],
              'masses': [7.0160034366, 15.99491461957, 1.00782503223, 1.00782503223, 15.99491461957, 1.00782503223,
                         1.00782503223, 15.99491461957, 1.00782503223, 1.00782503223, 15.99491461957, 1.00782503223,
                         1.00782503223],
              'molecular_charge': 0.0,
              'molecular_multiplicity': 1,
              'name': 'dimer',
              'provenance': {'creator': 'QCElemental',
                             'routine': 'qcelemental.molparse.from_string',
                             'version': '0.27.1'},
              'real': [False, True, True, True, True, True, True, True, True, True, True, True, True],
              'schema_name': 'qcschema_molecule',
              'schema_version': 2,
              'symbols': ['Li', 'O', 'H', 'H', 'O', 'H', 'H', 'O', 'H', 'H', 'O', 'H', 'H'],
              'validated': True},
 'protocols': {'stdout': True},
 'provenance': {'creator': 'QCElemental', 'routine': 'qcelemental.models.results', 'version': '0.27.1'},
 'schema_name': 'qcschema_input',
 'schema_version': 1}
--------------------------------------------------------------------------

Scratch directory: /scratch/
   => Libint2 <=

    Primary   basis highest AM E, G, H:  5, 4, 3
    Auxiliary basis highest AM E, G, H:  6, 5, 4
    Onebody   basis highest AM E, G, H:  6, 5, 4
    Solid Harmonics ordering:            gaussian

*** tstart() called on moses-razer
*** at Sat Jan  6 17:25:30 2024

   => Loading Basis Set <=

    Name: AUG-CC-PVTZ
    Role: ORBITAL
    Keyword: BASIS
    atoms 1                     entry LI         line    85 file /home/kchung25/anaconda3/envs/p415env/share/psi4/basis/aug-cc-pvtz.gbs 
    atoms 2, 5, 8, 11           entry O          line   331 file /home/kchung25/anaconda3/envs/p415env/share/psi4/basis/aug-cc-pvtz.gbs 
    atoms 3-4, 6-7, 9-10, 12-13 entry H          line    40 file /home/kchung25/anaconda3/envs/p415env/share/psi4/basis/aug-cc-pvtz.gbs 


         ---------------------------------------------------------
                                   SCF
               by Justin Turney, Rob Parrish, Andy Simmonett
                          and Daniel G. A. Smith
                              RHF Reference
                        6 Threads,  57220 MiB Core
         ---------------------------------------------------------

  ==> Geometry <==

    Molecular point group: c1
    Full point group: C1

    Geometry (in Bohr), charge = 0, multiplicity = 1:

       Center              X                  Y                   Z               Mass       
    ------------   -----------------  -----------------  -----------------  -----------------
      Gh(LI)          0.000000000000     0.000000000000     0.000000000000     7.016003436600
         O            1.925787769110     1.010638759978    -3.262028230230    15.994914619570
         H            1.181230006501     0.548494897640    -4.928740216718     1.007825032230
         H            1.570094069146     2.831920894898    -3.058835428590     1.007825032230
         O            1.823961766566     2.305473431963     2.110671014320    15.994914619570
         H            0.925859976811     3.770999505956     2.443260922675     1.007825032230
         H            2.674119314791     1.784063978879     3.631258038431     1.007825032230
         O           -2.716409495753     2.457159858327    -0.410764098712    15.994914619570
         H           -3.245910756106     3.349943958765     1.050181279153     1.007825032230
         H           -2.510956581667     3.650754342867    -1.792320192321     1.007825032230
         O           -1.073991828334    -3.271684730731    -1.437070577996    15.994914619570
         H           -0.383389526059    -3.751136594652    -3.176563476480     1.007825032230
         H           -0.940323940576    -4.850586813348    -0.526152665659     1.007825032230

  Running in c1 symmetry.

  Rotational constants: A =      0.10798  B =      0.07673  C =      0.07326 [cm^-1]
  Rotational constants: A =   3237.26799  B =   2300.23881  C =   2196.42276 [MHz]
  Nuclear repulsion =  135.625289344299972

  Charge       = 0
  Multiplicity = 1
  Electrons    = 40
  Nalpha       = 20
  Nbeta        = 20

  ==> Algorithm <==

  SCF Algorithm Type is DF.
  DIIS enabled.
  MOM disabled.
  Fractional occupation disabled.
  Guess Type is SAD.
  Energy threshold   = 1.00e-08
  Density threshold  = 1.00e-08
  Integral threshold = 1.00e-12

  ==> Primary Basis <==

  Basis Set: AUG-CC-PVTZ
    Blend: AUG-CC-PVTZ
    Number of shells: 142
    Number of basis functions: 414
    Number of Cartesian functions: 475
    Spherical Harmonics?: true
    Max angular momentum: 3

   => Loading Basis Set <=

    Name: (AUG-CC-PVTZ AUX)
    Role: JKFIT
    Keyword: DF_BASIS_SCF
    atoms 1                     entry LI         line    54 file /home/kchung25/anaconda3/envs/p415env/share/psi4/basis/def2-universal-jkfit.gbs 
    atoms 2, 5, 8, 11           entry O          line   286 file /home/kchung25/anaconda3/envs/p415env/share/psi4/basis/aug-cc-pvtz-jkfit.gbs 
    atoms 3-4, 6-7, 9-10, 12-13 entry H          line    70 file /home/kchung25/anaconda3/envs/p415env/share/psi4/basis/aug-cc-pvtz-jkfit.gbs 

  ==> Integral Setup <==

  DFHelper Memory: AOs need 1.071 GiB; user supplied 41.910 GiB. 
  Using in-core AOs.

  ==> MemDFJK: Density-Fitted J/K Matrices <==

    J tasked:                   Yes
    K tasked:                   Yes
    wK tasked:                   No
    OpenMP threads:               6
    Memory [MiB]:             42915
    Algorithm:                 Core
    Schwarz Cutoff:           1E-12
    Mask sparsity (%):       4.0071
    Fitting Condition:        1E-10

   => Auxiliary Basis Set <=

  Basis Set: (AUG-CC-PVTZ AUX)
    Blend: AUG-CC-PVTZ-JKFIT + DEF2-UNIVERSAL-JKFIT
    Number of shells: 249
    Number of basis functions: 835
    Number of Cartesian functions: 1024
    Spherical Harmonics?: true
    Max angular momentum: 4

  Minimum eigenvalue in the overlap matrix is 1.8873911568E-05.
  Reciprocal condition number of the overlap matrix is 1.2477052937E-06.
    Using symmetric orthogonalization.

  ==> Pre-Iterations <==

  SCF Guess: Superposition of Atomic Densities via on-the-fly atomic UHF (no occupation information).

   -------------------------
    Irrep   Nso     Nmo    
   -------------------------
     A        414     414 
   -------------------------
    Total     414     414
   -------------------------

  ==> Iterations <==

                           Total Energy        Delta E     RMS |[F,P]|

   @DF-RHF iter SAD:  -301.97494638502315   -3.01975e+02   0.00000e+00 
   @DF-RHF iter   1:  -303.83452400615727   -1.85958e+00   2.30932e-03 ADIIS/DIIS
   @DF-RHF iter   2:  -304.05077564066823   -2.16252e-01   1.64222e-03 ADIIS/DIIS
   @DF-RHF iter   3:  -304.19873029724766   -1.47955e-01   1.15293e-04 ADIIS/DIIS
   @DF-RHF iter   4:  -304.20068911709058   -1.95882e-03   3.26268e-05 DIIS
   @DF-RHF iter   5:  -304.20083541654469   -1.46299e-04   1.17367e-05 DIIS
   @DF-RHF iter   6:  -304.20085311742082   -1.77009e-05   4.28569e-06 DIIS
   @DF-RHF iter   7:  -304.20085577746909   -2.66005e-06   8.75007e-07 DIIS
   @DF-RHF iter   8:  -304.20085597973701   -2.02268e-07   1.77602e-07 DIIS
   @DF-RHF iter   9:  -304.20085598656584   -6.82883e-09   6.32854e-08 DIIS
   @DF-RHF iter  10:  -304.20085598699040   -4.24563e-10   1.96566e-08 DIIS
   @DF-RHF iter  11:  -304.20085598704497   -5.45697e-11   5.54059e-09 DIIS
  Energy and wave function converged.


  ==> Post-Iterations <==

    Orbital Energies [Eh]
    ---------------------

    Doubly Occupied:                                                      

       1A    -20.545347     2A    -20.540280     3A    -20.540141  
       4A    -20.537527     5A     -1.337170     6A     -1.328386  
       7A     -1.305835     8A     -1.301579     9A     -0.713722  
      10A     -0.705316    11A     -0.672582    12A     -0.657040  
      13A     -0.564901    14A     -0.552158    15A     -0.541552  
      16A     -0.537539    17A     -0.499620    18A     -0.479199  
      19A     -0.473325    20A     -0.464500  

    Virtual:                                                              

      21A      0.009621    22A      0.017190    23A      0.017956  
      24A      0.022211    25A      0.045957    26A      0.053813  
      27A      0.055168    28A      0.060408    29A      0.062159  
      30A      0.065613    31A      0.067943    32A      0.079154  
      33A      0.081368    34A      0.083195    35A      0.090609  
      36A      0.122483    37A      0.148177    38A      0.150586  
      39A      0.161687    40A      0.165093    41A      0.168733  
      42A      0.171965    43A      0.174734    44A      0.177581  
      45A      0.184981    46A      0.189163    47A      0.194080  
      48A      0.197802    49A      0.204633    50A      0.223128  
      51A      0.226694    52A      0.228845    53A      0.239275  
      54A      0.250045    55A      0.256471    56A      0.270770  
      57A      0.281551    58A      0.290921    59A      0.293699  
      60A      0.310153    61A      0.312795    62A      0.325112  
      63A      0.347938    64A      0.354148    65A      0.361384  
      66A      0.371355    67A      0.380690    68A      0.381335  
      69A      0.393228    70A      0.398878    71A      0.401889  
      72A      0.406230    73A      0.410617    74A      0.421868  
      75A      0.428002    76A      0.434531    77A      0.436104  
      78A      0.441116    79A      0.446450    80A      0.452798  
      81A      0.455292    82A      0.461418    83A      0.467437  
      84A      0.470946    85A      0.471661    86A      0.483290  
      87A      0.488830    88A      0.495552    89A      0.498857  
      90A      0.504783    91A      0.508833    92A      0.512447  
      93A      0.517013    94A      0.523090    95A      0.537436  
      96A      0.539755    97A      0.544781    98A      0.554557  
      99A      0.585026   100A      0.593371   101A      0.599669  
     102A      0.626715   103A      0.638085   104A      0.657203  
     105A      0.675650   106A      0.702390   107A      0.724364  
     108A      0.735922   109A      0.741345   110A      0.767792  
     111A      0.769598   112A      0.784381   113A      0.791855  
     114A      0.802450   115A      0.811382   116A      0.818091  
     117A      0.822392   118A      0.835599   119A      0.839807  
     120A      0.859010   121A      0.872765   122A      0.890335  
     123A      0.895594   124A      0.907280   125A      0.915579  
     126A      0.918083   127A      0.931637   128A      0.938356  
     129A      0.946353   130A      0.953421   131A      0.960984  
     132A      0.965281   133A      0.974342   134A      0.981832  
     135A      0.988766   136A      0.990540   137A      1.002752  
     138A      1.017025   139A      1.020877   140A      1.028038  
     141A      1.036727   142A      1.053583   143A      1.059465  
     144A      1.063931   145A      1.073415   146A      1.086536  
     147A      1.094312   148A      1.099418   149A      1.108239  
     150A      1.112674   151A      1.126811   152A      1.130803  
     153A      1.136067   154A      1.142140   155A      1.151804  
     156A      1.165947   157A      1.168231   158A      1.181440  
     159A      1.190699   160A      1.205866   161A      1.220976  
     162A      1.233828   163A      1.249475   164A      1.256986  
     165A      1.262629   166A      1.287709   167A      1.301545  
     168A      1.305126   169A      1.310653   170A      1.318535  
     171A      1.338040   172A      1.345753   173A      1.351405  
     174A      1.365741   175A      1.372877   176A      1.396112  
     177A      1.405020   178A      1.412114   179A      1.441324  
     180A      1.453389   181A      1.468370   182A      1.487464  
     183A      1.498904   184A      1.513724   185A      1.533106  
     186A      1.538149   187A      1.548430   188A      1.566636  
     189A      1.576235   190A      1.591139   191A      1.602699  
     192A      1.618073   193A      1.651645   194A      1.657523  
     195A      1.704090   196A      1.716352   197A      1.724671  
     198A      1.754570   199A      1.768688   200A      1.771680  
     201A      1.786263   202A      1.798793   203A      1.820551  
     204A      1.826688   205A      1.853409   206A      1.855450  
     207A      1.874400   208A      1.899480   209A      1.915088  
     210A      1.928726   211A      1.951898   212A      1.954520  
     213A      1.970364   214A      2.029658   215A      2.060492  
     216A      2.068894   217A      2.078675   218A      2.098752  
     219A      2.130497   220A      2.136062   221A      2.153302  
     222A      2.217547   223A      2.238249   224A      2.261647  
     225A      2.297427   226A      2.321246   227A      2.348777  
     228A      2.368877   229A      2.396049   230A      2.436398  
     231A      2.449127   232A      2.474096   233A      2.490972  
     234A      2.501746   235A      2.520010   236A      2.529879  
     237A      2.562041   238A      2.564279   239A      2.598139  
     240A      2.618061   241A      2.638463   242A      2.662555  
     243A      2.681371   244A      2.683197   245A      2.698157  
     246A      2.713092   247A      2.725916   248A      2.747718  
     249A      2.763568   250A      2.796367   251A      2.802413  
     252A      2.816083   253A      2.832122   254A      2.839257  
     255A      2.854458   256A      2.869119   257A      2.873222  
     258A      2.883566   259A      2.910538   260A      2.925556  
     261A      2.928402   262A      2.939932   263A      2.974940  
     264A      2.983144   265A      3.003302   266A      3.026620  
     267A      3.038903   268A      3.049549   269A      3.068977  
     270A      3.077542   271A      3.132076   272A      3.134101  
     273A      3.175962   274A      3.227316   275A      3.264743  
     276A      3.339649   277A      3.417825   278A      3.816023  
     279A      3.886155   280A      3.898231   281A      3.929525  
     282A      3.942818   283A      3.972908   284A      4.025223  
     285A      4.047918   286A      4.132963   287A      4.189528  
     288A      4.198582   289A      4.214287   290A      4.267258  
     291A      4.277233   292A      4.308550   293A      4.334221  
     294A      4.346686   295A      4.358908   296A      4.368991  
     297A      4.382469   298A      4.398455   299A      4.441365  
     300A      4.474386   301A      4.483715   302A      4.487260  
     303A      4.522608   304A      4.535154   305A      4.545173  
     306A      4.563646   307A      4.576955   308A      4.605511  
     309A      4.617986   310A      4.630001   311A      4.636569  
     312A      4.659570   313A      4.669382   314A      4.696137  
     315A      4.704342   316A      4.716307   317A      4.748828  
     318A      4.754270   319A      4.771590   320A      4.809081  
     321A      4.840492   322A      4.856795   323A      4.860158  
     324A      4.888469   325A      4.923405   326A      4.939265  
     327A      4.953202   328A      4.965569   329A      4.980228  
     330A      5.128223   331A      5.147788   332A      5.167230  
     333A      5.209698   334A      5.232759   335A      5.253288  
     336A      5.284841   337A      5.291608   338A      5.350419  
     339A      5.355427   340A      5.382919   341A      5.424006  
     342A      5.437387   343A      5.485583   344A      5.495676  
     345A      5.546009   346A      5.560462   347A      5.621328  
     348A      5.675970   349A      5.696129   350A      5.778644  
     351A      5.821884   352A      5.980030   353A      6.032262  
     354A      6.354426   355A      6.379516   356A      6.383107  
     357A      6.432554   358A      6.678616   359A      6.684430  
     360A      6.694848   361A      6.748227   362A      6.846944  
     363A      6.884398   364A      6.917219   365A      6.947094  
     366A      6.965404   367A      6.992842   368A      7.045420  
     369A      7.093640   370A      7.169148   371A      7.214435  
     372A      7.265501   373A      7.290067   374A      7.292005  
     375A      7.335946   376A      7.338000   377A      7.361774  
     378A      7.381586   379A      7.400115   380A      7.419958  
     381A      7.437201   382A      7.443151   383A      7.463169  
     384A      7.468998   385A      7.479952   386A      7.485963  
     387A      7.490149   388A      7.503333   389A      7.519196  
     390A      7.536344   391A      7.566151   392A      7.571113  
     393A      7.650376   394A      7.697675   395A      7.746248  
     396A      7.767841   397A      7.880356   398A      7.901677  
     399A      7.955717   400A      7.992203   401A      8.037084  
     402A      8.049333   403A      8.070321   404A      8.103317  
     405A      8.140172   406A      8.756403   407A      8.802226  
     408A      8.925184   409A      8.989606   410A     13.086746  
     411A     15.502892   412A     15.591471   413A     16.407976  
     414A     16.979259  

    Final Occupation by Irrep:
              A 
    DOCC [    20 ]
    NA   [    20 ]
    NB   [    20 ]

  @DF-RHF Final Energy:  -304.20085598704497

   => Energetics <=

    Nuclear Repulsion Energy =            135.6252893442999721
    One-Electron Energy =                -691.0568433503981396
    Two-Electron Energy =                 251.2306980190531931
    Total Energy =                       -304.2008559870449744

Computation Completed


Properties will be evaluated at   0.000000,   0.000000,   0.000000 [a0]

Properties computed using the SCF density matrix


 Multipole Moments:

 ------------------------------------------------------------------------------------
     Multipole            Electronic (a.u.)      Nuclear  (a.u.)        Total (a.u.)
 ------------------------------------------------------------------------------------

 L = 1.  Multiply by 2.5417464519 to convert [e a0] to [Debye]
 Dipole X            :          0.8311922           -1.0544917           -0.2232996
 Dipole Y            :        -26.6291739           27.3471527            0.7179788
 Dipole Z            :         30.3801529          -30.3514469            0.0287060
 Magnitude           :                                                    0.7524496

 ------------------------------------------------------------------------------------

*** tstop() called on moses-razer at Sat Jan  6 17:25:34 2024
Module time:
	user time   =      25.38 seconds =       0.42 minutes
	system time =       1.00 seconds =       0.02 minutes
	total time  =          4 seconds =       0.07 minutes
Total time:
	user time   =      25.38 seconds =       0.42 minutes
	system time =       1.00 seconds =       0.02 minutes
	total time  =          4 seconds =       0.07 minutes

*** tstart() called on moses-razer
*** at Sat Jan  6 17:25:34 2024


  //>>>>>>>>>>>>>>>>>>>>>>>>>>>>>>>>>>>//
  //               DFMP2               //
  //<<<<<<<<<<<<<<<<<<<<<<<<<<<<<<<<<<<//

   => Loading Basis Set <=

    Name: (AUG-CC-PVTZ AUX)
    Role: RIFIT
    Keyword: DF_BASIS_MP2
    atoms 1                     entry LI         line    90 file /home/kchung25/anaconda3/envs/p415env/share/psi4/basis/def2-qzvpp-ri.gbs 
    atoms 2, 5, 8, 11           entry O          line   264 file /home/kchung25/anaconda3/envs/p415env/share/psi4/basis/aug-cc-pvtz-ri.gbs 
    atoms 3-4, 6-7, 9-10, 12-13 entry H          line    30 file /home/kchung25/anaconda3/envs/p415env/share/psi4/basis/aug-cc-pvtz-ri.gbs 

	 --------------------------------------------------------
	                          DF-MP2                         
	      2nd-Order Density-Fitted Moller-Plesset Theory     
	              RMP2 Wavefunction,   6 Threads             
	                                                         
	        Rob Parrish, Justin Turney, Andy Simmonett,      
	           Ed Hohenstein, and C. David Sherrill          
	 --------------------------------------------------------

   => Auxiliary Basis Set <=

  Basis Set: (AUG-CC-PVTZ AUX)
    Blend: AUG-CC-PVTZ-RI + DEF2-QZVPP-RI
    Number of shells: 251
    Number of basis functions: 893
    Number of Cartesian functions: 1114
    Spherical Harmonics?: true
    Max angular momentum: 4

	 --------------------------------------------------------
	                 NBF =   414, NAUX =   893
	 --------------------------------------------------------
	   CLASS    FOCC     OCC    AOCC    AVIR     VIR    FVIR
	   PAIRS       0      20      20     394     394       0
	 --------------------------------------------------------

	-----------------------------------------------------------
	 ==================> DF-MP2 Energies <==================== 
	-----------------------------------------------------------
	 Reference Energy          =    -304.2008559870449744 [Eh]
	 Singles Energy            =      -0.0000000000000000 [Eh]
	 Same-Spin Energy          =      -0.2788382525680444 [Eh]
	 Opposite-Spin Energy      =      -0.8727198220762771 [Eh]
	 Correlation Energy        =      -1.1515580746443215 [Eh]
	 Total Energy              =    -305.3524140616892737 [Eh]
	-----------------------------------------------------------
	 ================> DF-SCS-MP2 Energies <================== 
	-----------------------------------------------------------
	 SCS Same-Spin Scale       =       0.3333333333333333 [-]
	 SCS Opposite-Spin Scale   =       1.2000000000000000 [-]
	 SCS Same-Spin Energy      =      -0.0929460841893481 [Eh]
	 SCS Opposite-Spin Energy  =      -1.0472637864915324 [Eh]
	 SCS Correlation Energy    =      -1.1402098706808805 [Eh]
	 SCS Total Energy          =    -305.3410658577258801 [Eh]
	-----------------------------------------------------------


*** tstop() called on moses-razer at Sat Jan  6 17:25:36 2024
Module time:
	user time   =       9.49 seconds =       0.16 minutes
	system time =       0.55 seconds =       0.01 minutes
	total time  =          2 seconds =       0.03 minutes
Total time:
	user time   =      34.88 seconds =       0.58 minutes
	system time =       1.55 seconds =       0.03 minutes
	total time  =          6 seconds =       0.10 minutes

    Psi4 stopped on: Saturday, 06 January 2024 05:25PM
    Psi4 wall time for execution: 0:00:06.84


    -----------------------------------------------------------------------
          Psi4: An Open-Source Ab Initio Electronic Structure Package
                               Psi4 1.9 release

                         Git: Rev {} zzzzzzz 


    D. G. A. Smith, L. A. Burns, A. C. Simmonett, R. M. Parrish,
    M. C. Schieber, R. Galvelis, P. Kraus, H. Kruse, R. Di Remigio,
    A. Alenaizan, A. M. James, S. Lehtola, J. P. Misiewicz, M. Scheurer,
    R. A. Shaw, J. B. Schriber, Y. Xie, Z. L. Glick, D. A. Sirianni,
    J. S. O'Brien, J. M. Waldrop, A. Kumar, E. G. Hohenstein,
    B. P. Pritchard, B. R. Brooks, H. F. Schaefer III, A. Yu. Sokolov,
    K. Patkowski, A. E. DePrince III, U. Bozkaya, R. A. King,
    F. A. Evangelista, J. M. Turney, T. D. Crawford, C. D. Sherrill,
    J. Chem. Phys. 152(18) 184108 (2020). https://doi.org/10.1063/5.0006002

                            Additional Code Authors
    E. T. Seidl, C. L. Janssen, E. F. Valeev, M. L. Leininger,
    J. F. Gonthier, R. M. Richard, H. R. McAlexander, M. Saitow, X. Wang,
    P. Verma, M. H. Lechner, A. Jiang, S. Behnle, A. G. Heide,
    M. F. Herbst, and D. L. Poole

             Previous Authors, Complete List of Code Contributors,
                       and Citations for Specific Modules
    https://github.com/psi4/psi4/blob/master/codemeta.json
    https://github.com/psi4/psi4/graphs/contributors
    http://psicode.org/psi4manual/master/introduction.html#citing-psifour

    -----------------------------------------------------------------------


    Psi4 started on: Saturday, 06 January 2024 05:25PM

    Process ID: 547730
    Host:       moses-razer
    PSIDATADIR: /home/kchung25/anaconda3/envs/psi4_19/share/psi4
    Memory:     55.9 GiB
    Threads:    6
    
  ==> Input QCSchema <==

--------------------------------------------------------------------------
{'driver': 'energy',
 'extras': {'psiapi': True, 'wfn_qcvars_only': True},
 'id': None,
 'keywords': {'SCF_TYPE': 'DF', 'function_kwargs': {}},
 'model': {'basis': 'aug-cc-pvtz', 'method': 'mp2'},
 'molecule': {'atom_labels': ['', '', '', '', '', '', '', '', '', '', '', '', ''],
              'atomic_numbers': [3, 8, 1, 1, 8, 1, 1, 8, 1, 1, 8, 1, 1],
              'extras': {},
              'fix_com': True,
              'fix_orientation': True,
              'fix_symmetry': 'c1',
              'fragment_charges': [1.0, 0.0],
              'fragment_multiplicities': [1, 1],
              'fragments': [[0], [1, 2, 3, 4, 5, 6, 7, 8, 9, 10, 11, 12]],
              'geometry': [0.0, 0.0, 0.0, 1.9257877691099399, 1.0106387599777247, -3.262028230230174,
                           1.1812300065011792, 0.54849489764026, -4.9287402167182215, 1.5700940691456402,
                           2.831920894897596, -3.0588354285903208, 1.8239617665657704, 2.3054734319630525,
                           2.110671014320232, 0.9258599768113102, 3.7709995059564836, 2.443260922674684,
                           2.67411931479124, 1.7840639788789792, 3.631258038431128, -2.7164094957528606,
                           2.457159858327427, -0.4107640987123917, -3.245910756106144, 3.349943958764848,
                           1.0501812791529297, -2.51095658166696, 3.6507543428674767, -1.7923201923211045,
                           -1.0739918283336982, -3.2716847307312626, -1.4370705779962871, -0.38338952605900967,
                           -3.751136594651796, -3.176563476480218, -0.9403239405755643, -4.850586813347662,
                           -0.5261526656589722],
              'mass_numbers': [7, 16, 1, 1, 16, 1, 1, 16, 1, 1, 16, 1, 1],
              'masses': [7.0160034366, 15.99491461957, 1.00782503223, 1.00782503223, 15.99491461957, 1.00782503223,
                         1.00782503223, 15.99491461957, 1.00782503223, 1.00782503223, 15.99491461957, 1.00782503223,
                         1.00782503223],
              'molecular_charge': 1.0,
              'molecular_multiplicity': 1,
              'name': 'dimer',
              'provenance': {'creator': 'QCElemental',
                             'routine': 'qcelemental.molparse.from_string',
                             'version': '0.27.1'},
              'real': [True, False, False, False, False, False, False, False, False, False, False, False, False],
              'schema_name': 'qcschema_molecule',
              'schema_version': 2,
              'symbols': ['Li', 'O', 'H', 'H', 'O', 'H', 'H', 'O', 'H', 'H', 'O', 'H', 'H'],
              'validated': True},
 'protocols': {'stdout': True},
 'provenance': {'creator': 'QCElemental', 'routine': 'qcelemental.models.results', 'version': '0.27.1'},
 'schema_name': 'qcschema_input',
 'schema_version': 1}
--------------------------------------------------------------------------

Scratch directory: /scratch/
   => Libint2 <=

    Primary   basis highest AM E, G, H:  5, 4, 3
    Auxiliary basis highest AM E, G, H:  6, 5, 4
    Onebody   basis highest AM E, G, H:  6, 5, 4
    Solid Harmonics ordering:            gaussian

*** tstart() called on moses-razer
*** at Sat Jan  6 17:25:36 2024

   => Loading Basis Set <=

    Name: AUG-CC-PVTZ
    Role: ORBITAL
    Keyword: BASIS
    atoms 1                     entry LI         line    85 file /home/kchung25/anaconda3/envs/p415env/share/psi4/basis/aug-cc-pvtz.gbs 
    atoms 2, 5, 8, 11           entry O          line   331 file /home/kchung25/anaconda3/envs/p415env/share/psi4/basis/aug-cc-pvtz.gbs 
    atoms 3-4, 6-7, 9-10, 12-13 entry H          line    40 file /home/kchung25/anaconda3/envs/p415env/share/psi4/basis/aug-cc-pvtz.gbs 


         ---------------------------------------------------------
                                   SCF
               by Justin Turney, Rob Parrish, Andy Simmonett
                          and Daniel G. A. Smith
                              RHF Reference
                        6 Threads,  57220 MiB Core
         ---------------------------------------------------------

  ==> Geometry <==

    Molecular point group: c1
    Full point group: C1

    Geometry (in Bohr), charge = 1, multiplicity = 1:

       Center              X                  Y                   Z               Mass       
    ------------   -----------------  -----------------  -----------------  -----------------
         LI           0.000000000000     0.000000000000     0.000000000000     7.016003436600
      Gh(O)           1.925787769110     1.010638759978    -3.262028230230    15.994914619570
      Gh(H)           1.181230006501     0.548494897640    -4.928740216718     1.007825032230
      Gh(H)           1.570094069146     2.831920894898    -3.058835428590     1.007825032230
      Gh(O)           1.823961766566     2.305473431963     2.110671014320    15.994914619570
      Gh(H)           0.925859976811     3.770999505956     2.443260922675     1.007825032230
      Gh(H)           2.674119314791     1.784063978879     3.631258038431     1.007825032230
      Gh(O)          -2.716409495753     2.457159858327    -0.410764098712    15.994914619570
      Gh(H)          -3.245910756106     3.349943958765     1.050181279153     1.007825032230
      Gh(H)          -2.510956581667     3.650754342867    -1.792320192321     1.007825032230
      Gh(O)          -1.073991828334    -3.271684730731    -1.437070577996    15.994914619570
      Gh(H)          -0.383389526059    -3.751136594652    -3.176563476480     1.007825032230
      Gh(H)          -0.940323940576    -4.850586813348    -0.526152665659     1.007825032230

  Running in c1 symmetry.

  Rotational constants: A =      0.10798  B =      0.07673  C =      0.07326 [cm^-1]
  Rotational constants: A =   3237.26799  B =   2300.23881  C =   2196.42276 [MHz]
  Nuclear repulsion =    0.000000000000000

  Charge       = 1
  Multiplicity = 1
  Electrons    = 2
  Nalpha       = 1
  Nbeta        = 1

  ==> Algorithm <==

  SCF Algorithm Type is DF.
  DIIS enabled.
  MOM disabled.
  Fractional occupation disabled.
  Guess Type is SAD.
  Energy threshold   = 1.00e-08
  Density threshold  = 1.00e-08
  Integral threshold = 1.00e-12

  ==> Primary Basis <==

  Basis Set: AUG-CC-PVTZ
    Blend: AUG-CC-PVTZ
    Number of shells: 142
    Number of basis functions: 414
    Number of Cartesian functions: 475
    Spherical Harmonics?: true
    Max angular momentum: 3

   => Loading Basis Set <=

    Name: (AUG-CC-PVTZ AUX)
    Role: JKFIT
    Keyword: DF_BASIS_SCF
    atoms 1                     entry LI         line    54 file /home/kchung25/anaconda3/envs/p415env/share/psi4/basis/def2-universal-jkfit.gbs 
    atoms 2, 5, 8, 11           entry O          line   286 file /home/kchung25/anaconda3/envs/p415env/share/psi4/basis/aug-cc-pvtz-jkfit.gbs 
    atoms 3-4, 6-7, 9-10, 12-13 entry H          line    70 file /home/kchung25/anaconda3/envs/p415env/share/psi4/basis/aug-cc-pvtz-jkfit.gbs 

  ==> Integral Setup <==

  DFHelper Memory: AOs need 1.071 GiB; user supplied 41.910 GiB. 
  Using in-core AOs.

  ==> MemDFJK: Density-Fitted J/K Matrices <==

    J tasked:                   Yes
    K tasked:                   Yes
    wK tasked:                   No
    OpenMP threads:               6
    Memory [MiB]:             42915
    Algorithm:                 Core
    Schwarz Cutoff:           1E-12
    Mask sparsity (%):       4.0071
    Fitting Condition:        1E-10

   => Auxiliary Basis Set <=

  Basis Set: (AUG-CC-PVTZ AUX)
    Blend: AUG-CC-PVTZ-JKFIT + DEF2-UNIVERSAL-JKFIT
    Number of shells: 249
    Number of basis functions: 835
    Number of Cartesian functions: 1024
    Spherical Harmonics?: true
    Max angular momentum: 4

  Minimum eigenvalue in the overlap matrix is 1.8873911568E-05.
  Reciprocal condition number of the overlap matrix is 1.2477052937E-06.
    Using symmetric orthogonalization.

  ==> Pre-Iterations <==

  SCF Guess: Superposition of Atomic Densities via on-the-fly atomic UHF (no occupation information).

   -------------------------
    Irrep   Nso     Nmo    
   -------------------------
     A        414     414 
   -------------------------
    Total     414     414
   -------------------------

  ==> Iterations <==

                           Total Energy        Delta E     RMS |[F,P]|

   @DF-RHF iter SAD:    -7.31418971672291   -7.31419e+00   0.00000e+00 
   @DF-RHF iter   1:    -7.23638292865779    7.78068e-02   5.48785e-06 DIIS
   @DF-RHF iter   2:    -7.23638484970312   -1.92105e-06   6.68662e-07 DIIS
   @DF-RHF iter   3:    -7.23638488111530   -3.14122e-08   3.46729e-08 DIIS
   @DF-RHF iter   4:    -7.23638488117713   -6.18305e-11   2.61329e-10 DIIS
  Energy and wave function converged.


  ==> Post-Iterations <==

    Orbital Energies [Eh]
    ---------------------

    Doubly Occupied:                                                      

       1A     -2.792353  

    Virtual:                                                              

       2A     -0.196302     3A     -0.128605     4A     -0.128601  
       5A     -0.128599     6A     -0.073776     7A     -0.056398  
       8A     -0.056391     9A     -0.056389    10A     -0.051609  
      11A     -0.050905    12A     -0.050041    13A     -0.048277  
      14A     -0.045808    15A     -0.025826    16A     -0.012057  
      17A     -0.009529    18A     -0.008696    19A     -0.008569  
      20A     -0.006827    21A      0.006073    22A      0.010401  
      23A      0.016159    24A      0.017114    25A      0.019316  
      26A      0.031530    27A      0.034544    28A      0.038465  
      29A      0.047468    30A      0.053806    31A      0.067174  
      32A      0.078430    33A      0.087340    34A      0.094139  
      35A      0.095130    36A      0.098478    37A      0.104798  
      38A      0.106798    39A      0.126309    40A      0.138383  
      41A      0.140005    42A      0.144185    43A      0.152307  
      44A      0.161038    45A      0.163301    46A      0.169535  
      47A      0.171942    48A      0.181788    49A      0.183558  
      50A      0.191098    51A      0.200446    52A      0.202463  
      53A      0.220226    54A      0.223926    55A      0.230575  
      56A      0.233637    57A      0.240962    58A      0.253560  
      59A      0.262844    60A      0.266127    61A      0.267692  
      62A      0.278938    63A      0.282529    64A      0.285529  
      65A      0.290184    66A      0.302850    67A      0.306509  
      68A      0.314908    69A      0.317052    70A      0.326099  
      71A      0.330599    72A      0.339584    73A      0.343110  
      74A      0.345306    75A      0.351927    76A      0.363786  
      77A      0.366835    78A      0.376215    79A      0.380538  
      80A      0.385137    81A      0.398212    82A      0.417468  
      83A      0.418496    84A      0.424964    85A      0.440173  
      86A      0.442500    87A      0.454245    88A      0.470405  
      89A      0.485398    90A      0.515796    91A      0.521824  
      92A      0.546743    93A      0.551895    94A      0.564915  
      95A      0.581922    96A      0.582536    97A      0.588722  
      98A      0.608795    99A      0.611749   100A      0.625405  
     101A      0.639847   102A      0.653438   103A      0.658954  
     104A      0.674629   105A      0.680589   106A      0.687869  
     107A      0.695847   108A      0.700278   109A      0.708614  
     110A      0.720098   111A      0.733557   112A      0.745697  
     113A      0.748724   114A      0.762985   115A      0.769568  
     116A      0.774970   117A      0.786594   118A      0.793230  
     119A      0.807507   120A      0.816013   121A      0.826515  
     122A      0.829249   123A      0.837418   124A      0.849029  
     125A      0.856099   126A      0.859230   127A      0.874870  
     128A      0.887514   129A      0.891455   130A      0.903965  
     131A      0.905158   132A      0.919903   133A      0.929365  
     134A      0.940415   135A      0.949622   136A      0.953276  
     137A      0.956530   138A      0.971269   139A      0.979692  
     140A      0.987215   141A      0.993220   142A      1.009796  
     143A      1.021790   144A      1.030466   145A      1.036077  
     146A      1.044417   147A      1.051248   148A      1.074436  
     149A      1.080603   150A      1.096463   151A      1.100980  
     152A      1.127971   153A      1.131833   154A      1.147176  
     155A      1.149625   156A      1.160925   157A      1.169664  
     158A      1.182884   159A      1.191166   160A      1.196696  
     161A      1.203042   162A      1.214446   163A      1.234980  
     164A      1.240563   165A      1.258348   166A      1.278645  
     167A      1.292024   168A      1.300302   169A      1.327441  
     170A      1.334188   171A      1.367926   172A      1.376307  
     173A      1.384827   174A      1.402930   175A      1.409399  
     176A      1.420519   177A      1.449256   178A      1.458445  
     179A      1.498656   180A      1.503074   181A      1.551853  
     182A      1.560290   183A      1.587932   184A      1.594015  
     185A      1.615570   186A      1.652794   187A      1.665057  
     188A      1.676593   189A      1.689137   190A      1.703996  
     191A      1.716674   192A      1.724555   193A      1.736640  
     194A      1.759311   195A      1.769476   196A      1.782035  
     197A      1.805129   198A      1.822955   199A      1.830802  
     200A      1.852313   201A      1.856520   202A      1.865590  
     203A      1.883857   204A      1.891045   205A      1.905461  
     206A      1.941566   207A      1.947158   208A      1.955495  
     209A      1.992474   210A      2.192474   211A      2.226068  
     212A      2.264170   213A      2.272199   214A      2.288782  
     215A      2.311811   216A      2.322541   217A      2.356654  
     218A      2.362485   219A      2.369626   220A      2.387666  
     221A      2.404485   222A      2.430204   223A      2.432398  
     224A      2.441567   225A      2.471073   226A      2.493388  
     227A      2.524148   228A      2.540419   229A      2.555161  
     230A      2.596779   231A      2.606148   232A      2.637420  
     233A      2.639275   234A      2.669177   235A      2.685352  
     236A      2.703728   237A      2.747009   238A      2.763630  
     239A      2.795756   240A      2.820291   241A      2.838542  
     242A      2.862648   243A      2.892018   244A      2.911424  
     245A      2.946322   246A      2.968112   247A      2.972116  
     248A      3.024319   249A      3.031590   250A      3.039303  
     251A      3.072446   252A      3.079900   253A      3.097957  
     254A      3.104213   255A      3.106036   256A      3.131360  
     257A      3.149346   258A      3.152940   259A      3.165312  
     260A      3.199648   261A      3.224410   262A      3.241891  
     263A      3.300823   264A      3.331281   265A      3.339800  
     266A      3.441152   267A      3.462236   268A      3.478082  
     269A      3.523222   270A      3.566683   271A      3.588940  
     272A      3.615300   273A      3.651014   274A      4.183030  
     275A      4.226724   276A      4.266001   277A      4.267329  
     278A      4.281001   279A      4.339076   280A      4.355864  
     281A      4.394585   282A      4.412816   283A      4.419756  
     284A      4.435416   285A      4.453531   286A      4.480314  
     287A      4.503030   288A      4.519046   289A      4.547686  
     290A      4.567980   291A      4.569366   292A      4.601366  
     293A      4.638958   294A      4.647533   295A      4.679668  
     296A      4.691188   297A      4.701555   298A      4.760612  
     299A      4.820699   300A      4.841073   301A      4.852975  
     302A      4.873490   303A      4.913170   304A      4.927982  
     305A      4.945639   306A      4.959115   307A      5.003439  
     308A      5.028900   309A      5.051516   310A      5.061055  
     311A      5.088770   312A      5.103380   313A      5.121623  
     314A      5.224289   315A      5.262842   316A      5.271440  
     317A      5.308365   318A      5.348045   319A      5.374940  
     320A      5.431233   321A      5.447793   322A      5.455944  
     323A      5.484235   324A      5.537569   325A      5.570894  
     326A      5.621313   327A      5.673174   328A      5.689368  
     329A      5.751884   330A      5.814811   331A      6.061549  
     332A      6.084210   333A      6.115591   334A      6.149819  
     335A      6.183410   336A      6.232884   337A      6.245813  
     338A      6.308789   339A      6.330322   340A      6.453834  
     341A      6.613043   342A      6.667783   343A      6.741797  
     344A      6.751360   345A      6.939439   346A      6.996448  
     347A      7.479743   348A      7.526898   349A      7.554258  
     350A      7.563075   351A      7.586655   352A      7.620527  
     353A      7.657403   354A      7.711588   355A      7.798007  
     356A      7.857585   357A      7.862254   358A      7.922029  
     359A      7.942976   360A      7.949780   361A      8.012760  
     362A      8.038662   363A      8.072457   364A      8.086492  
     365A      8.103995   366A      8.139018   367A      8.399791  
     368A      8.434512   369A      8.520224   370A      8.526909  
     371A      8.589398   372A      8.619938   373A      8.690608  
     374A      8.790713   375A      9.586716   376A      9.674327  
     377A      9.690611   378A      9.721635   379A      9.739995  
     380A      9.759949   381A      9.773315   382A      9.785269  
     383A      9.811594   384A      9.834596   385A      9.839623  
     386A      9.875680   387A      9.968544   388A      9.978618  
     389A     10.014032   390A     10.050847   391A     10.756579  
     392A     10.806188   393A     10.952417   394A     11.046909  
     395A     11.567761   396A     11.594955   397A     11.631375  
     398A     11.723761   399A     11.759594   400A     11.810472  
     401A     12.109039   402A     12.315787   403A     13.205083  
     404A     13.229888   405A     13.414921   406A     13.527247  
     407A     13.680835   408A     13.738070   409A     13.789382  
     410A     13.841463   411A     64.001974   412A     64.285186  
     413A     65.622857   414A     66.811442  

    Final Occupation by Irrep:
              A 
    DOCC [     1 ]
    NA   [     1 ]
    NB   [     1 ]

  @DF-RHF Final Energy:    -7.23638488117713

   => Energetics <=

    Nuclear Repulsion Energy =              0.0000000000000000
    One-Electron Energy =                  -8.8880644373632922
    Two-Electron Energy =                   1.6516795561861575
    Total Energy =                         -7.2363848811771350

Computation Completed


Properties will be evaluated at   0.000000,   0.000000,   0.000000 [a0]

Properties computed using the SCF density matrix


 Multipole Moments:

 ------------------------------------------------------------------------------------
     Multipole            Electronic (a.u.)      Nuclear  (a.u.)        Total (a.u.)
 ------------------------------------------------------------------------------------

 L = 1.  Multiply by 2.5417464519 to convert [e a0] to [Debye]
 Dipole X            :          0.0000068            0.0000000            0.0000068
 Dipole Y            :         -0.0000087            0.0000000           -0.0000087
 Dipole Z            :          0.0000009            0.0000000            0.0000009
 Magnitude           :                                                    0.0000111

 ------------------------------------------------------------------------------------

*** tstop() called on moses-razer at Sat Jan  6 17:25:40 2024
Module time:
	user time   =      15.82 seconds =       0.26 minutes
	system time =       0.79 seconds =       0.01 minutes
	total time  =          4 seconds =       0.07 minutes
Total time:
	user time   =      51.10 seconds =       0.85 minutes
	system time =       2.34 seconds =       0.04 minutes
	total time  =         10 seconds =       0.17 minutes

*** tstart() called on moses-razer
*** at Sat Jan  6 17:25:40 2024


  //>>>>>>>>>>>>>>>>>>>>>>>>>>>>>>>>>>>//
  //               DFMP2               //
  //<<<<<<<<<<<<<<<<<<<<<<<<<<<<<<<<<<<//

   => Loading Basis Set <=

    Name: (AUG-CC-PVTZ AUX)
    Role: RIFIT
    Keyword: DF_BASIS_MP2
    atoms 1                     entry LI         line    90 file /home/kchung25/anaconda3/envs/p415env/share/psi4/basis/def2-qzvpp-ri.gbs 
    atoms 2, 5, 8, 11           entry O          line   264 file /home/kchung25/anaconda3/envs/p415env/share/psi4/basis/aug-cc-pvtz-ri.gbs 
    atoms 3-4, 6-7, 9-10, 12-13 entry H          line    30 file /home/kchung25/anaconda3/envs/p415env/share/psi4/basis/aug-cc-pvtz-ri.gbs 

	 --------------------------------------------------------
	                          DF-MP2                         
	      2nd-Order Density-Fitted Moller-Plesset Theory     
	              RMP2 Wavefunction,   6 Threads             
	                                                         
	        Rob Parrish, Justin Turney, Andy Simmonett,      
	           Ed Hohenstein, and C. David Sherrill          
	 --------------------------------------------------------

   => Auxiliary Basis Set <=

  Basis Set: (AUG-CC-PVTZ AUX)
    Blend: AUG-CC-PVTZ-RI + DEF2-QZVPP-RI
    Number of shells: 251
    Number of basis functions: 893
    Number of Cartesian functions: 1114
    Spherical Harmonics?: true
    Max angular momentum: 4

	 --------------------------------------------------------
	                 NBF =   414, NAUX =   893
	 --------------------------------------------------------
	   CLASS    FOCC     OCC    AOCC    AVIR     VIR    FVIR
	   PAIRS       0       1       1     413     413       0
	 --------------------------------------------------------

	-----------------------------------------------------------
	 ==================> DF-MP2 Energies <==================== 
	-----------------------------------------------------------
	 Reference Energy          =      -7.2363848811771350 [Eh]
	 Singles Energy            =      -0.0000000000000000 [Eh]
	 Same-Spin Energy          =       0.0000000000000000 [Eh]
	 Opposite-Spin Energy      =      -0.0167973149012790 [Eh]
	 Correlation Energy        =      -0.0167973149012790 [Eh]
	 Total Energy              =      -7.2531821960784137 [Eh]
	-----------------------------------------------------------
	 ================> DF-SCS-MP2 Energies <================== 
	-----------------------------------------------------------
	 SCS Same-Spin Scale       =       0.3333333333333333 [-]
	 SCS Opposite-Spin Scale   =       1.2000000000000000 [-]
	 SCS Same-Spin Energy      =       0.0000000000000000 [Eh]
	 SCS Opposite-Spin Energy  =      -0.0201567778815348 [Eh]
	 SCS Correlation Energy    =      -0.0201567778815348 [Eh]
	 SCS Total Energy          =      -7.2565416590586693 [Eh]
	-----------------------------------------------------------


*** tstop() called on moses-razer at Sat Jan  6 17:25:41 2024
Module time:
	user time   =       6.10 seconds =       0.10 minutes
	system time =       0.29 seconds =       0.00 minutes
	total time  =          1 seconds =       0.02 minutes
Total time:
	user time   =      57.20 seconds =       0.95 minutes
	system time =       2.63 seconds =       0.04 minutes
	total time  =         11 seconds =       0.18 minutes

    Psi4 stopped on: Saturday, 06 January 2024 05:25PM
    Psi4 wall time for execution: 0:00:04.53


    -----------------------------------------------------------------------
          Psi4: An Open-Source Ab Initio Electronic Structure Package
                               Psi4 1.9 release

                         Git: Rev {} zzzzzzz 


    D. G. A. Smith, L. A. Burns, A. C. Simmonett, R. M. Parrish,
    M. C. Schieber, R. Galvelis, P. Kraus, H. Kruse, R. Di Remigio,
    A. Alenaizan, A. M. James, S. Lehtola, J. P. Misiewicz, M. Scheurer,
    R. A. Shaw, J. B. Schriber, Y. Xie, Z. L. Glick, D. A. Sirianni,
    J. S. O'Brien, J. M. Waldrop, A. Kumar, E. G. Hohenstein,
    B. P. Pritchard, B. R. Brooks, H. F. Schaefer III, A. Yu. Sokolov,
    K. Patkowski, A. E. DePrince III, U. Bozkaya, R. A. King,
    F. A. Evangelista, J. M. Turney, T. D. Crawford, C. D. Sherrill,
    J. Chem. Phys. 152(18) 184108 (2020). https://doi.org/10.1063/5.0006002

                            Additional Code Authors
    E. T. Seidl, C. L. Janssen, E. F. Valeev, M. L. Leininger,
    J. F. Gonthier, R. M. Richard, H. R. McAlexander, M. Saitow, X. Wang,
    P. Verma, M. H. Lechner, A. Jiang, S. Behnle, A. G. Heide,
    M. F. Herbst, and D. L. Poole

             Previous Authors, Complete List of Code Contributors,
                       and Citations for Specific Modules
    https://github.com/psi4/psi4/blob/master/codemeta.json
    https://github.com/psi4/psi4/graphs/contributors
    http://psicode.org/psi4manual/master/introduction.html#citing-psifour

    -----------------------------------------------------------------------


    Psi4 started on: Saturday, 06 January 2024 05:25PM

    Process ID: 547730
    Host:       moses-razer
    PSIDATADIR: /home/kchung25/anaconda3/envs/psi4_19/share/psi4
    Memory:     55.9 GiB
    Threads:    6
    
  ==> Input QCSchema <==

--------------------------------------------------------------------------
{'driver': 'energy',
 'extras': {'psiapi': True, 'wfn_qcvars_only': True},
 'id': None,
 'keywords': {'SCF_TYPE': 'DF', 'function_kwargs': {}},
 'model': {'basis': 'aug-cc-pvtz', 'method': 'mp2'},
 'molecule': {'atom_labels': ['', '', '', '', '', '', '', '', '', '', '', '', ''],
              'atomic_numbers': [3, 8, 1, 1, 8, 1, 1, 8, 1, 1, 8, 1, 1],
              'extras': {},
              'fix_com': True,
              'fix_orientation': True,
              'fix_symmetry': 'c1',
              'fragment_charges': [1.0, 0.0],
              'fragment_multiplicities': [1, 1],
              'fragments': [[0], [1, 2, 3, 4, 5, 6, 7, 8, 9, 10, 11, 12]],
              'geometry': [0.0, 0.0, 0.0, 1.9257877691099399, 1.0106387599777247, -3.262028230230174,
                           1.1812300065011792, 0.54849489764026, -4.9287402167182215, 1.5700940691456402,
                           2.831920894897596, -3.0588354285903208, 1.8239617665657704, 2.3054734319630525,
                           2.110671014320232, 0.9258599768113102, 3.7709995059564836, 2.443260922674684,
                           2.67411931479124, 1.7840639788789792, 3.631258038431128, -2.7164094957528606,
                           2.457159858327427, -0.4107640987123917, -3.245910756106144, 3.349943958764848,
                           1.0501812791529297, -2.51095658166696, 3.6507543428674767, -1.7923201923211045,
                           -1.0739918283336982, -3.2716847307312626, -1.4370705779962871, -0.38338952605900967,
                           -3.751136594651796, -3.176563476480218, -0.9403239405755643, -4.850586813347662,
                           -0.5261526656589722],
              'mass_numbers': [7, 16, 1, 1, 16, 1, 1, 16, 1, 1, 16, 1, 1],
              'masses': [7.0160034366, 15.99491461957, 1.00782503223, 1.00782503223, 15.99491461957, 1.00782503223,
                         1.00782503223, 15.99491461957, 1.00782503223, 1.00782503223, 15.99491461957, 1.00782503223,
                         1.00782503223],
              'molecular_charge': 1.0,
              'molecular_multiplicity': 1,
              'name': 'dimer',
              'provenance': {'creator': 'QCElemental',
                             'routine': 'qcelemental.molparse.from_string',
                             'version': '0.27.1'},
              'real': [True, True, True, True, True, True, True, True, True, True, True, True, True],
              'schema_name': 'qcschema_molecule',
              'schema_version': 2,
              'symbols': ['Li', 'O', 'H', 'H', 'O', 'H', 'H', 'O', 'H', 'H', 'O', 'H', 'H'],
              'validated': True},
 'protocols': {'stdout': True},
 'provenance': {'creator': 'QCElemental', 'routine': 'qcelemental.models.results', 'version': '0.27.1'},
 'schema_name': 'qcschema_input',
 'schema_version': 1}
--------------------------------------------------------------------------

Scratch directory: /scratch/
   => Libint2 <=

    Primary   basis highest AM E, G, H:  5, 4, 3
    Auxiliary basis highest AM E, G, H:  6, 5, 4
    Onebody   basis highest AM E, G, H:  6, 5, 4
    Solid Harmonics ordering:            gaussian

*** tstart() called on moses-razer
*** at Sat Jan  6 17:25:41 2024

   => Loading Basis Set <=

    Name: AUG-CC-PVTZ
    Role: ORBITAL
    Keyword: BASIS
    atoms 1                     entry LI         line    85 file /home/kchung25/anaconda3/envs/p415env/share/psi4/basis/aug-cc-pvtz.gbs 
    atoms 2, 5, 8, 11           entry O          line   331 file /home/kchung25/anaconda3/envs/p415env/share/psi4/basis/aug-cc-pvtz.gbs 
    atoms 3-4, 6-7, 9-10, 12-13 entry H          line    40 file /home/kchung25/anaconda3/envs/p415env/share/psi4/basis/aug-cc-pvtz.gbs 


         ---------------------------------------------------------
                                   SCF
               by Justin Turney, Rob Parrish, Andy Simmonett
                          and Daniel G. A. Smith
                              RHF Reference
                        6 Threads,  57220 MiB Core
         ---------------------------------------------------------

  ==> Geometry <==

    Molecular point group: c1
    Full point group: C1

    Geometry (in Bohr), charge = 1, multiplicity = 1:

       Center              X                  Y                   Z               Mass       
    ------------   -----------------  -----------------  -----------------  -----------------
         LI           0.000000000000     0.000000000000     0.000000000000     7.016003436600
         O            1.925787769110     1.010638759978    -3.262028230230    15.994914619570
         H            1.181230006501     0.548494897640    -4.928740216718     1.007825032230
         H            1.570094069146     2.831920894898    -3.058835428590     1.007825032230
         O            1.823961766566     2.305473431963     2.110671014320    15.994914619570
         H            0.925859976811     3.770999505956     2.443260922675     1.007825032230
         H            2.674119314791     1.784063978879     3.631258038431     1.007825032230
         O           -2.716409495753     2.457159858327    -0.410764098712    15.994914619570
         H           -3.245910756106     3.349943958765     1.050181279153     1.007825032230
         H           -2.510956581667     3.650754342867    -1.792320192321     1.007825032230
         O           -1.073991828334    -3.271684730731    -1.437070577996    15.994914619570
         H           -0.383389526059    -3.751136594652    -3.176563476480     1.007825032230
         H           -0.940323940576    -4.850586813348    -0.526152665659     1.007825032230

  Running in c1 symmetry.

  Rotational constants: A =      0.10798  B =      0.07673  C =      0.07326 [cm^-1]
  Rotational constants: A =   3237.26799  B =   2300.23881  C =   2196.42276 [MHz]
  Nuclear repulsion =  166.323914438349931

  Charge       = 1
  Multiplicity = 1
  Electrons    = 42
  Nalpha       = 21
  Nbeta        = 21

  ==> Algorithm <==

  SCF Algorithm Type is DF.
  DIIS enabled.
  MOM disabled.
  Fractional occupation disabled.
  Guess Type is SAD.
  Energy threshold   = 1.00e-08
  Density threshold  = 1.00e-08
  Integral threshold = 1.00e-12

  ==> Primary Basis <==

  Basis Set: AUG-CC-PVTZ
    Blend: AUG-CC-PVTZ
    Number of shells: 142
    Number of basis functions: 414
    Number of Cartesian functions: 475
    Spherical Harmonics?: true
    Max angular momentum: 3

   => Loading Basis Set <=

    Name: (AUG-CC-PVTZ AUX)
    Role: JKFIT
    Keyword: DF_BASIS_SCF
    atoms 1                     entry LI         line    54 file /home/kchung25/anaconda3/envs/p415env/share/psi4/basis/def2-universal-jkfit.gbs 
    atoms 2, 5, 8, 11           entry O          line   286 file /home/kchung25/anaconda3/envs/p415env/share/psi4/basis/aug-cc-pvtz-jkfit.gbs 
    atoms 3-4, 6-7, 9-10, 12-13 entry H          line    70 file /home/kchung25/anaconda3/envs/p415env/share/psi4/basis/aug-cc-pvtz-jkfit.gbs 

  ==> Integral Setup <==

  DFHelper Memory: AOs need 1.071 GiB; user supplied 41.910 GiB. 
  Using in-core AOs.

  ==> MemDFJK: Density-Fitted J/K Matrices <==

    J tasked:                   Yes
    K tasked:                   Yes
    wK tasked:                   No
    OpenMP threads:               6
    Memory [MiB]:             42915
    Algorithm:                 Core
    Schwarz Cutoff:           1E-12
    Mask sparsity (%):       4.0071
    Fitting Condition:        1E-10

   => Auxiliary Basis Set <=

  Basis Set: (AUG-CC-PVTZ AUX)
    Blend: AUG-CC-PVTZ-JKFIT + DEF2-UNIVERSAL-JKFIT
    Number of shells: 249
    Number of basis functions: 835
    Number of Cartesian functions: 1024
    Spherical Harmonics?: true
    Max angular momentum: 4

  Minimum eigenvalue in the overlap matrix is 1.8873911568E-05.
  Reciprocal condition number of the overlap matrix is 1.2477052937E-06.
    Using symmetric orthogonalization.

  ==> Pre-Iterations <==

  SCF Guess: Superposition of Atomic Densities via on-the-fly atomic UHF (no occupation information).

   -------------------------
    Irrep   Nso     Nmo    
   -------------------------
     A        414     414 
   -------------------------
    Total     414     414
   -------------------------

  ==> Iterations <==

                           Total Energy        Delta E     RMS |[F,P]|

   @DF-RHF iter SAD:  -309.62695567408014   -3.09627e+02   0.00000e+00 
   @DF-RHF iter   1:  -311.25508810399492   -1.62813e+00   2.29101e-03 ADIIS/DIIS
   @DF-RHF iter   2:  -311.48337816505062   -2.28290e-01   1.49573e-03 ADIIS/DIIS
   @DF-RHF iter   3:  -311.60207301273010   -1.18695e-01   1.16316e-04 ADIIS/DIIS
   @DF-RHF iter   4:  -311.60388795555048   -1.81494e-03   3.19869e-05 DIIS
   @DF-RHF iter   5:  -311.60401474892780   -1.26793e-04   1.04426e-05 DIIS
   @DF-RHF iter   6:  -311.60402770295821   -1.29540e-05   3.88426e-06 DIIS
   @DF-RHF iter   7:  -311.60402954115591   -1.83820e-06   6.89355e-07 DIIS
   @DF-RHF iter   8:  -311.60402964972667   -1.08571e-07   1.33811e-07 DIIS
   @DF-RHF iter   9:  -311.60402965305406   -3.32739e-09   3.69629e-08 DIIS
   @DF-RHF iter  10:  -311.60402965320895   -1.54898e-10   1.35343e-08 DIIS
   @DF-RHF iter  11:  -311.60402965322663   -1.76783e-11   3.53819e-09 DIIS
  Energy and wave function converged.


  ==> Post-Iterations <==

    Orbital Energies [Eh]
    ---------------------

    Doubly Occupied:                                                      

       1A    -20.758741     2A    -20.755243     3A    -20.750371  
       4A    -20.747592     5A     -2.542615     6A     -1.559245  
       7A     -1.548036     8A     -1.520642     9A     -1.515228  
      10A     -0.932256    11A     -0.921584    12A     -0.883600  
      13A     -0.869367    14A     -0.801362    15A     -0.791845  
      16A     -0.775881    17A     -0.759599    18A     -0.723286  
      19A     -0.704567    20A     -0.695353    21A     -0.684621  

    Virtual:                                                              

      22A     -0.105932    23A     -0.081970    24A     -0.081040  
      25A     -0.066330    26A     -0.051639    27A     -0.049133  
      28A     -0.046684    29A     -0.040082    30A     -0.038045  
      31A     -0.034207    32A     -0.033185    33A     -0.024155  
      34A     -0.022109    35A     -0.016619    36A     -0.009749  
      37A      0.008788    38A      0.020526    39A      0.022829  
      40A      0.034478    41A      0.037610    42A      0.042206  
      43A      0.046839    44A      0.048873    45A      0.052190  
      46A      0.053234    47A      0.058137    48A      0.063571  
      49A      0.068112    50A      0.081304    51A      0.091016  
      52A      0.091815    53A      0.096457    54A      0.110861  
      55A      0.113226    56A      0.121325    57A      0.130167  
      58A      0.132427    59A      0.144165    60A      0.146017  
      61A      0.167703    62A      0.173098    63A      0.177344  
      64A      0.197021    65A      0.202450    66A      0.210976  
      67A      0.211275    68A      0.221013    69A      0.223249  
      70A      0.235356    71A      0.241575    72A      0.253282  
      73A      0.258350    74A      0.260704    75A      0.266520  
      76A      0.273350    77A      0.275655    78A      0.278710  
      79A      0.288258    80A      0.292624    81A      0.300575  
      82A      0.306596    83A      0.311542    84A      0.317696  
      85A      0.319993    86A      0.320777    87A      0.332955  
      88A      0.337872    89A      0.345237    90A      0.345698  
      91A      0.349388    92A      0.357350    93A      0.361486  
      94A      0.362271    95A      0.371243    96A      0.381721  
      97A      0.382488    98A      0.390134    99A      0.399396  
     100A      0.415494   101A      0.424239   102A      0.427694  
     103A      0.441734   104A      0.445868   105A      0.467605  
     106A      0.480849   107A      0.493722   108A      0.516925  
     109A      0.521597   110A      0.549743   111A      0.555605  
     112A      0.573726   113A      0.580312   114A      0.590773  
     115A      0.608562   116A      0.621626   117A      0.630814  
     118A      0.632400   119A      0.645827   120A      0.649265  
     121A      0.662185   122A      0.672570   123A      0.685420  
     124A      0.699350   125A      0.719245   126A      0.726008  
     127A      0.735915   128A      0.744788   129A      0.748953  
     130A      0.759550   131A      0.760137   132A      0.780238  
     133A      0.785480   134A      0.791582   135A      0.804303  
     136A      0.806780   137A      0.816111   138A      0.824431  
     139A      0.830753   140A      0.840633   141A      0.846190  
     142A      0.854111   143A      0.856061   144A      0.868819  
     145A      0.875651   146A      0.888292   147A      0.903876  
     148A      0.904589   149A      0.912199   150A      0.916191  
     151A      0.921726   152A      0.935612   153A      0.949612  
     154A      0.953604   155A      0.962591   156A      0.968453  
     157A      0.977105   158A      0.987781   159A      0.991950  
     160A      1.005002   161A      1.012697   162A      1.020378  
     163A      1.033287   164A      1.048578   165A      1.061611  
     166A      1.066204   167A      1.074732   168A      1.099866  
     169A      1.105958   170A      1.113708   171A      1.122730  
     172A      1.128045   173A      1.133752   174A      1.147516  
     175A      1.155825   176A      1.175529   177A      1.189209  
     178A      1.202173   179A      1.208133   180A      1.213552  
     181A      1.231999   182A      1.249786   183A      1.276643  
     184A      1.298835   185A      1.311940   186A      1.315221  
     187A      1.328072   188A      1.335833   189A      1.360100  
     190A      1.363925   191A      1.376486   192A      1.383821  
     193A      1.404908   194A      1.436309   195A      1.445146  
     196A      1.481093   197A      1.493685   198A      1.516876  
     199A      1.536073   200A      1.562626   201A      1.582184  
     202A      1.584845   203A      1.590807   204A      1.602646  
     205A      1.640918   206A      1.649940   207A      1.666786  
     208A      1.689200   209A      1.707457   210A      1.719027  
     211A      1.730182   212A      1.747745   213A      1.749160  
     214A      1.759664   215A      1.782092   216A      1.815956  
     217A      1.819731   218A      1.866682   219A      1.885199  
     220A      1.901539   221A      1.912565   222A      1.926130  
     223A      1.930664   224A      1.948061   225A      1.972528  
     226A      2.032132   227A      2.053812   228A      2.074405  
     229A      2.102146   230A      2.162280   231A      2.206644  
     232A      2.221432   233A      2.248421   234A      2.259842  
     235A      2.286859   236A      2.294186   237A      2.302731  
     238A      2.339285   239A      2.346626   240A      2.373411  
     241A      2.380678   242A      2.400709   243A      2.423004  
     244A      2.430750   245A      2.463604   246A      2.472965  
     247A      2.487459   248A      2.495699   249A      2.523036  
     250A      2.532110   251A      2.549462   252A      2.569390  
     253A      2.597341   254A      2.602394   255A      2.619851  
     256A      2.637244   257A      2.646928   258A      2.654905  
     259A      2.672456   260A      2.678927   261A      2.687580  
     262A      2.697670   263A      2.705332   264A      2.719510  
     265A      2.737657   266A      2.762128   267A      2.770083  
     268A      2.790307   269A      2.818903   270A      2.837909  
     271A      2.861140   272A      2.899654   273A      2.903229  
     274A      2.929792   275A      2.966678   276A      3.011324  
     277A      3.038365   278A      3.594542   279A      3.675825  
     280A      3.679769   281A      3.717134   282A      3.732316  
     283A      3.760980   284A      3.811663   285A      3.830286  
     286A      3.931997   287A      3.986069   288A      3.993724  
     289A      4.004646   290A      4.017062   291A      4.071723  
     292A      4.095822   293A      4.114332   294A      4.141798  
     295A      4.147023   296A      4.165413   297A      4.172972  
     298A      4.189327   299A      4.217692   300A      4.261173  
     301A      4.273833   302A      4.275226   303A      4.294173  
     304A      4.330411   305A      4.334475   306A      4.341959  
     307A      4.355917   308A      4.382656   309A      4.395951  
     310A      4.410428   311A      4.416026   312A      4.439515  
     313A      4.441169   314A      4.463370   315A      4.497528  
     316A      4.510144   317A      4.527499   318A      4.543293  
     319A      4.557256   320A      4.583771   321A      4.629762  
     322A      4.645168   323A      4.649692   324A      4.673513  
     325A      4.705966   326A      4.723219   327A      4.733652  
     328A      4.755504   329A      4.770767   330A      4.920631  
     331A      4.931865   332A      4.957026   333A      4.996221  
     334A      5.008300   335A      5.038616   336A      5.056053  
     337A      5.080905   338A      5.132991   339A      5.139033  
     340A      5.148168   341A      5.187816   342A      5.222635  
     343A      5.226268   344A      5.267514   345A      5.305713  
     346A      5.338526   347A      5.359552   348A      5.441844  
     349A      5.458234   350A      5.481395   351A      5.565497  
     352A      5.613217   353A      5.768238   354A      5.816577  
     355A      6.139534   356A      6.157948   357A      6.160623  
     358A      6.218634   359A      6.459886   360A      6.470569  
     361A      6.478816   362A      6.533653   363A      6.621439  
     364A      6.667625   365A      6.701817   366A      6.707437  
     367A      6.735240   368A      6.778579   369A      6.815872  
     370A      6.868805   371A      6.948054   372A      6.994992  
     373A      7.045737   374A      7.065448   375A      7.076453  
     376A      7.119290   377A      7.125968   378A      7.145522  
     379A      7.157397   380A      7.178414   381A      7.202565  
     382A      7.218394   383A      7.224475   384A      7.244025  
     385A      7.250624   386A      7.258463   387A      7.266492  
     388A      7.275249   389A      7.286725   390A      7.300759  
     391A      7.319648   392A      7.346748   393A      7.351113  
     394A      7.430357   395A      7.489698   396A      7.536372  
     397A      7.552200   398A      7.676909   399A      7.718709  
     400A      7.747301   401A      7.772758   402A      7.817506  
     403A      7.828094   404A      7.858014   405A      7.884491  
     406A      7.917569   407A      8.546890   408A      8.597818  
     409A      8.712964   410A      8.773852   411A     15.245847  
     412A     15.379825   413A     16.188882   414A     16.754935  

    Final Occupation by Irrep:
              A 
    DOCC [    21 ]
    NA   [    21 ]
    NB   [    21 ]

  @DF-RHF Final Energy:  -311.60402965322663

   => Energetics <=

    Nuclear Repulsion Energy =            166.3239144383499308
    One-Electron Energy =                -753.3738168142720042
    Two-Electron Energy =                 275.4458727226954693
    Total Energy =                       -311.6040296532266325

Computation Completed


Properties will be evaluated at   0.000000,   0.000000,   0.000000 [a0]

Properties computed using the SCF density matrix


 Multipole Moments:

 ------------------------------------------------------------------------------------
     Multipole            Electronic (a.u.)      Nuclear  (a.u.)        Total (a.u.)
 ------------------------------------------------------------------------------------

 L = 1.  Multiply by 2.5417464519 to convert [e a0] to [Debye]
 Dipole X            :          0.8160936           -1.0544917           -0.2383981
 Dipole Y            :        -26.3725115           27.3471527            0.9746413
 Dipole Z            :         30.1071779          -30.3514469           -0.2442690
 Magnitude           :                                                    1.0326793

 ------------------------------------------------------------------------------------

*** tstop() called on moses-razer at Sat Jan  6 17:25:46 2024
Module time:
	user time   =      24.64 seconds =       0.41 minutes
	system time =       0.73 seconds =       0.01 minutes
	total time  =          5 seconds =       0.08 minutes
Total time:
	user time   =      82.25 seconds =       1.37 minutes
	system time =       3.36 seconds =       0.06 minutes
	total time  =         16 seconds =       0.27 minutes

*** tstart() called on moses-razer
*** at Sat Jan  6 17:25:46 2024


  //>>>>>>>>>>>>>>>>>>>>>>>>>>>>>>>>>>>//
  //               DFMP2               //
  //<<<<<<<<<<<<<<<<<<<<<<<<<<<<<<<<<<<//

   => Loading Basis Set <=

    Name: (AUG-CC-PVTZ AUX)
    Role: RIFIT
    Keyword: DF_BASIS_MP2
    atoms 1                     entry LI         line    90 file /home/kchung25/anaconda3/envs/p415env/share/psi4/basis/def2-qzvpp-ri.gbs 
    atoms 2, 5, 8, 11           entry O          line   264 file /home/kchung25/anaconda3/envs/p415env/share/psi4/basis/aug-cc-pvtz-ri.gbs 
    atoms 3-4, 6-7, 9-10, 12-13 entry H          line    30 file /home/kchung25/anaconda3/envs/p415env/share/psi4/basis/aug-cc-pvtz-ri.gbs 

	 --------------------------------------------------------
	                          DF-MP2                         
	      2nd-Order Density-Fitted Moller-Plesset Theory     
	              RMP2 Wavefunction,   6 Threads             
	                                                         
	        Rob Parrish, Justin Turney, Andy Simmonett,      
	           Ed Hohenstein, and C. David Sherrill          
	 --------------------------------------------------------

   => Auxiliary Basis Set <=

  Basis Set: (AUG-CC-PVTZ AUX)
    Blend: AUG-CC-PVTZ-RI + DEF2-QZVPP-RI
    Number of shells: 251
    Number of basis functions: 893
    Number of Cartesian functions: 1114
    Spherical Harmonics?: true
    Max angular momentum: 4

	 --------------------------------------------------------
	                 NBF =   414, NAUX =   893
	 --------------------------------------------------------
	   CLASS    FOCC     OCC    AOCC    AVIR     VIR    FVIR
	   PAIRS       0      21      21     393     393       0
	 --------------------------------------------------------

	-----------------------------------------------------------
	 ==================> DF-MP2 Energies <==================== 
	-----------------------------------------------------------
	 Reference Energy          =    -311.6040296532266325 [Eh]
	 Singles Energy            =      -0.0000000000000000 [Eh]
	 Same-Spin Energy          =      -0.2772701491445012 [Eh]
	 Opposite-Spin Energy      =      -0.8822578177902062 [Eh]
	 Correlation Energy        =      -1.1595279669347074 [Eh]
	 Total Energy              =    -312.7635576201613503 [Eh]
	-----------------------------------------------------------
	 ================> DF-SCS-MP2 Energies <================== 
	-----------------------------------------------------------
	 SCS Same-Spin Scale       =       0.3333333333333333 [-]
	 SCS Opposite-Spin Scale   =       1.2000000000000000 [-]
	 SCS Same-Spin Energy      =      -0.0924233830481671 [Eh]
	 SCS Opposite-Spin Energy  =      -1.0587093813482473 [Eh]
	 SCS Correlation Energy    =      -1.1511327643964144 [Eh]
	 SCS Total Energy          =    -312.7551624176230689 [Eh]
	-----------------------------------------------------------


*** tstop() called on moses-razer at Sat Jan  6 17:25:48 2024
Module time:
	user time   =       9.36 seconds =       0.16 minutes
	system time =       0.46 seconds =       0.01 minutes
	total time  =          2 seconds =       0.03 minutes
Total time:
	user time   =      91.61 seconds =       1.53 minutes
	system time =       3.82 seconds =       0.06 minutes
	total time  =         18 seconds =       0.30 minutes

    Psi4 stopped on: Saturday, 06 January 2024 05:25PM
    Psi4 wall time for execution: 0:00:06.56


  //>>>>>>>>>>>>>>>>>>>>>>>>>>>>>>>>>>>//
  //          ManyBody Results         //
  //<<<<<<<<<<<<<<<<<<<<<<<<<<<<<<<<<<<//


   ==> N-Body: Counterpoise Corrected (CP) energies <==

        n-Body     Total Energy            Interaction Energy                          N-body Contribution to Interaction Energy
                   [Eh]                    [Eh]                  [kcal/mol]            [Eh]                  [kcal/mol]
             1  N/A                         0.000000000000        0.000000000000        0.000000000000        0.000000000000
  FULL/RTN   2  N/A                        -0.157961362394      -99.122251392840       -0.157961362394      -99.122251392840


    Psi4 stopped on: Saturday, 06 January 2024 05:25PM
    Psi4 wall time for execution: 0:00:19.59

*** Psi4 exiting successfully. Buy a developer a beer!
