
    -----------------------------------------------------------------------
          Psi4: An Open-Source Ab Initio Electronic Structure Package
                               Psi4 1.8.2 release

                         Git: Rev {} zzzzzzz 


    D. G. A. Smith, L. A. Burns, A. C. Simmonett, R. M. Parrish,
    M. C. Schieber, R. Galvelis, P. Kraus, H. Kruse, R. Di Remigio,
    A. Alenaizan, A. M. James, S. Lehtola, J. P. Misiewicz, M. Scheurer,
    R. A. Shaw, J. B. Schriber, Y. Xie, Z. L. Glick, D. A. Sirianni,
    J. S. O'Brien, J. M. Waldrop, A. Kumar, E. G. Hohenstein,
    B. P. Pritchard, B. R. Brooks, H. F. Schaefer III, A. Yu. Sokolov,
    K. Patkowski, A. E. DePrince III, U. Bozkaya, R. A. King,
    F. A. Evangelista, J. M. Turney, T. D. Crawford, C. D. Sherrill,
    J. Chem. Phys. 152(18) 184108 (2020). https://doi.org/10.1063/5.0006002

                            Additional Code Authors
    E. T. Seidl, C. L. Janssen, E. F. Valeev, M. L. Leininger,
    J. F. Gonthier, R. M. Richard, H. R. McAlexander, M. Saitow, X. Wang,
    P. Verma, M. H. Lechner, A. Jiang, S. Behnle, A. G. Heide,
    M. F. Herbst, and D. L. Poole

             Previous Authors, Complete List of Code Contributors,
                       and Citations for Specific Modules
    https://github.com/psi4/psi4/blob/master/codemeta.json
    https://github.com/psi4/psi4/graphs/contributors
    http://psicode.org/psi4manual/master/introduction.html#citing-psifour

    -----------------------------------------------------------------------


    Psi4 started on: Monday, 22 January 2024 12:55PM

    Process ID: 51967
    Host:       ddmfs1
    PSIDATADIR: /ddmfs1b/softs/psi4conda/share/psi4
    Memory:     500.0 MiB
    Threads:    20
    
  ==> Input File <==

--------------------------------------------------------------------------
MEMORY 60 GB

molecule dimer {
1 1
Li         0.000000     0.000000     0.000000
O         -0.815512    -1.973069     0.213618
H         -1.442123    -2.343453     0.881888
H         -0.002592    -2.481571     0.216923
O          1.699625     0.035978    -1.109364
H          2.234679    -0.288064    -0.379152
H          2.152471     0.871850    -1.472594
O          0.954529     0.704439     1.627529
H          0.792200     1.656184     1.570414
H          0.354105     0.450627     2.342875
O         -1.562320     1.135689    -0.344199
H         -1.999637     1.483420     0.437688
H         -1.205724     1.935640    -0.797850

units ang
no_reorient
no_com
symmetry c1
}

set {
basis        aug-cc-pVTZ
scf_type     df
}

energy("mp2")
--------------------------------------------------------------------------

  Memory set to  55.879 GiB by Python driver.

Scratch directory: /ddmfs1a/scratch/
   => Libint2 <=

    Primary   basis highest AM E, G, H:  5, 4, 3
    Auxiliary basis highest AM E, G, H:  6, 5, 4
    Onebody   basis highest AM E, G, H:  6, 5, 4
    Solid Harmonics ordering:            gaussian

*** tstart() called on ddmfs1
*** at Mon Jan 22 12:55:30 2024

   => Loading Basis Set <=

    Name: AUG-CC-PVTZ
    Role: ORBITAL
    Keyword: BASIS
    atoms 1                     entry LI         line    85 file /ddmfs1b/softs/psi4conda/share/psi4/basis/aug-cc-pvtz.gbs 
    atoms 2, 5, 8, 11           entry O          line   331 file /ddmfs1b/softs/psi4conda/share/psi4/basis/aug-cc-pvtz.gbs 
    atoms 3-4, 6-7, 9-10, 12-13 entry H          line    40 file /ddmfs1b/softs/psi4conda/share/psi4/basis/aug-cc-pvtz.gbs 


         ---------------------------------------------------------
                                   SCF
               by Justin Turney, Rob Parrish, Andy Simmonett
                          and Daniel G. A. Smith
                              RHF Reference
                       20 Threads,  57220 MiB Core
         ---------------------------------------------------------

  ==> Geometry <==

    Molecular point group: c1
    Full point group: C1

    Geometry (in Angstrom), charge = 1, multiplicity = 1:

       Center              X                  Y                   Z               Mass       
    ------------   -----------------  -----------------  -----------------  -----------------
         LI           0.000000000000     0.000000000000     0.000000000000     7.016003436600
         O           -0.815512000000    -1.973069000000     0.213618000000    15.994914619570
         H           -1.442123000000    -2.343453000000     0.881888000000     1.007825032230
         H           -0.002592000000    -2.481571000000     0.216923000000     1.007825032230
         O            1.699625000000     0.035978000000    -1.109364000000    15.994914619570
         H            2.234679000000    -0.288064000000    -0.379152000000     1.007825032230
         H            2.152471000000     0.871850000000    -1.472594000000     1.007825032230
         O            0.954529000000     0.704439000000     1.627529000000    15.994914619570
         H            0.792200000000     1.656184000000     1.570414000000     1.007825032230
         H            0.354105000000     0.450627000000     2.342875000000     1.007825032230
         O           -1.562320000000     1.135689000000    -0.344199000000    15.994914619570
         H           -1.999637000000     1.483420000000     0.437688000000     1.007825032230
         H           -1.205724000000     1.935640000000    -0.797850000000     1.007825032230

  Running in c1 symmetry.

  Rotational constants: A =      0.09142  B =      0.08055  C =      0.06979 [cm^-1]
  Rotational constants: A =   2740.81533  B =   2414.93886  C =   2092.15654 [MHz]
  Nuclear repulsion =  159.018722916337850

  Charge       = 1
  Multiplicity = 1
  Electrons    = 42
  Nalpha       = 21
  Nbeta        = 21

  ==> Algorithm <==

  SCF Algorithm Type is DF.
  DIIS enabled.
  MOM disabled.
  Fractional occupation disabled.
  Guess Type is SAD.
  Energy threshold   = 1.00e-08
  Density threshold  = 1.00e-08
  Integral threshold = 1.00e-12

  ==> Primary Basis <==

  Basis Set: AUG-CC-PVTZ
    Blend: AUG-CC-PVTZ
    Number of shells: 142
    Number of basis functions: 414
    Number of Cartesian functions: 475
    Spherical Harmonics?: true
    Max angular momentum: 3

   => Loading Basis Set <=

    Name: (AUG-CC-PVTZ AUX)
    Role: JKFIT
    Keyword: DF_BASIS_SCF
    atoms 1                     entry LI         line    54 file /ddmfs1b/softs/psi4conda/share/psi4/basis/def2-universal-jkfit.gbs 
    atoms 2, 5, 8, 11           entry O          line   286 file /ddmfs1b/softs/psi4conda/share/psi4/basis/aug-cc-pvtz-jkfit.gbs 
    atoms 3-4, 6-7, 9-10, 12-13 entry H          line    70 file /ddmfs1b/softs/psi4conda/share/psi4/basis/aug-cc-pvtz-jkfit.gbs 

  ==> Integral Setup <==

  DFHelper Memory: AOs need 1.082 GiB; user supplied 41.910 GiB. 
  Using in-core AOs.

  ==> MemDFJK: Density-Fitted J/K Matrices <==

    J tasked:                   Yes
    K tasked:                   Yes
    wK tasked:                   No
    OpenMP threads:              20
    Memory [MiB]:             42915
    Algorithm:                 Core
    Schwarz Cutoff:           1E-12
    Mask sparsity (%):       4.6127
    Fitting Condition:        1E-10

   => Auxiliary Basis Set <=

  Basis Set: (AUG-CC-PVTZ AUX)
    Blend: AUG-CC-PVTZ-JKFIT + DEF2-UNIVERSAL-JKFIT
    Number of shells: 249
    Number of basis functions: 835
    Number of Cartesian functions: 1024
    Spherical Harmonics?: true
    Max angular momentum: 4

  Minimum eigenvalue in the overlap matrix is 2.1617932902E-05.
  Reciprocal condition number of the overlap matrix is 1.4925576588E-06.
    Using symmetric orthogonalization.

  ==> Pre-Iterations <==

  SCF Guess: Superposition of Atomic Densities via on-the-fly atomic UHF (no occupation information).

   -------------------------
    Irrep   Nso     Nmo    
   -------------------------
     A        414     414 
   -------------------------
    Total     414     414
   -------------------------

  ==> Iterations <==

                           Total Energy        Delta E     RMS |[F,P]|

   @DF-RHF iter SAD:  -309.53017779293623   -3.09530e+02   0.00000e+00 
   @DF-RHF iter   1:  -311.27170675048762   -1.74153e+00   2.24696e-03 ADIIS/DIIS
   @DF-RHF iter   2:  -311.48920378170601   -2.17497e-01   1.47691e-03 ADIIS/DIIS
   @DF-RHF iter   3:  -311.60441888453994   -1.15215e-01   1.12388e-04 ADIIS/DIIS
   @DF-RHF iter   4:  -311.60615117663701   -1.73229e-03   2.83354e-05 DIIS
   @DF-RHF iter   5:  -311.60626363816993   -1.12462e-04   7.94067e-06 DIIS
   @DF-RHF iter   6:  -311.60627331335132   -9.67518e-06   3.48892e-06 DIIS
   @DF-RHF iter   7:  -311.60627450825746   -1.19491e-06   6.95391e-07 DIIS
   @DF-RHF iter   8:  -311.60627460888804   -1.00631e-07   1.27115e-07 DIIS
   @DF-RHF iter   9:  -311.60627461203586   -3.14782e-09   2.77872e-08 DIIS
   @DF-RHF iter  10:  -311.60627461215995   -1.24089e-10   1.02921e-08 DIIS
   @DF-RHF iter  11:  -311.60627461217172   -1.17666e-11   3.97401e-09 DIIS
  Energy and wave function converged.


  ==> Post-Iterations <==

    Orbital Energies [Eh]
    ---------------------

    Doubly Occupied:                                                      

       1A    -20.771635     2A    -20.763997     3A    -20.751133  
       4A    -20.742792     5A     -2.559646     6A     -1.558411  
       7A     -1.545153     8A     -1.522417     9A     -1.520058  
      10A     -0.910140    11A     -0.904271    12A     -0.895262  
      13A     -0.889464    14A     -0.803590    15A     -0.792584  
      16A     -0.767679    17A     -0.757078    18A     -0.734573  
      19A     -0.707823    20A     -0.694863    21A     -0.688160  

    Virtual:                                                              

      22A     -0.110932    23A     -0.083249    24A     -0.079435  
      25A     -0.069051    26A     -0.049755    27A     -0.048432  
      28A     -0.047335    29A     -0.041369    30A     -0.040296  
      31A     -0.034478    32A     -0.032480    33A     -0.024562  
      34A     -0.021854    35A     -0.003386    36A     -0.000024  
      37A      0.005351    38A      0.015772    39A      0.021999  
      40A      0.027690    41A      0.032082    42A      0.040681  
      43A      0.044328    44A      0.047291    45A      0.052213  
      46A      0.055659    47A      0.059948    48A      0.068472  
      49A      0.071484    50A      0.077206    51A      0.083547  
      52A      0.095559    53A      0.101717    54A      0.108017  
      55A      0.113900    56A      0.121365    57A      0.125251  
      58A      0.129252    59A      0.143702    60A      0.151384  
      61A      0.160645    62A      0.172396    63A      0.184140  
      64A      0.188950    65A      0.196229    66A      0.200962  
      67A      0.203074    68A      0.204143    69A      0.214773  
      70A      0.224991    71A      0.236311    72A      0.239271  
      73A      0.245547    74A      0.254540    75A      0.258803  
      76A      0.274768    77A      0.275402    78A      0.282867  
      79A      0.284550    80A      0.290014    81A      0.297676  
      82A      0.303957    83A      0.310702    84A      0.312725  
      85A      0.318146    86A      0.323107    87A      0.329422  
      88A      0.333406    89A      0.341605    90A      0.344101  
      91A      0.351823    92A      0.354025    93A      0.361160  
      94A      0.369668    95A      0.373215    96A      0.380265  
      97A      0.387415    98A      0.389106    99A      0.405804  
     100A      0.407255   101A      0.418403   102A      0.427528  
     103A      0.446081   104A      0.453571   105A      0.461231  
     106A      0.477922   107A      0.486143   108A      0.499540  
     109A      0.528517   110A      0.551709   111A      0.570789  
     112A      0.576113   113A      0.582013   114A      0.593419  
     115A      0.603435   116A      0.604697   117A      0.613642  
     118A      0.620370   119A      0.632150   120A      0.636839  
     121A      0.644197   122A      0.657543   123A      0.685116  
     124A      0.691498   125A      0.708967   126A      0.713497  
     127A      0.730542   128A      0.745828   129A      0.758110  
     130A      0.767754   131A      0.777535   132A      0.780665  
     133A      0.789477   134A      0.801099   135A      0.803033  
     136A      0.818922   137A      0.822461   138A      0.823430  
     139A      0.831827   140A      0.835658   141A      0.848812  
     142A      0.852493   143A      0.877867   144A      0.881159  
     145A      0.888185   146A      0.893590   147A      0.899795  
     148A      0.903098   149A      0.918556   150A      0.920759  
     151A      0.933002   152A      0.934560   153A      0.939881  
     154A      0.943121   155A      0.956134   156A      0.963038  
     157A      0.966067   158A      0.973160   159A      0.976602  
     160A      0.989998   161A      1.001068   162A      1.007930  
     163A      1.029397   164A      1.041396   165A      1.047440  
     166A      1.056065   167A      1.063218   168A      1.072355  
     169A      1.088235   170A      1.094882   171A      1.098798  
     172A      1.115494   173A      1.127594   174A      1.144709  
     175A      1.152383   176A      1.153619   177A      1.161270  
     178A      1.168056   179A      1.189085   180A      1.201893  
     181A      1.215129   182A      1.229595   183A      1.234698  
     184A      1.253282   185A      1.257188   186A      1.282728  
     187A      1.299105   188A      1.319716   189A      1.334965  
     190A      1.346836   191A      1.357744   192A      1.366641  
     193A      1.366967   194A      1.394004   195A      1.417131  
     196A      1.436122   197A      1.464958   198A      1.471473  
     199A      1.505424   200A      1.522113   201A      1.549335  
     202A      1.556741   203A      1.577444   204A      1.593715  
     205A      1.597025   206A      1.627171   207A      1.650178  
     208A      1.671242   209A      1.682163   210A      1.686730  
     211A      1.704725   212A      1.707591   213A      1.719772  
     214A      1.735530   215A      1.766146   216A      1.789204  
     217A      1.822558   218A      1.866960   219A      1.878551  
     220A      1.891130   221A      1.894888   222A      1.916192  
     223A      1.929204   224A      1.944620   225A      1.969110  
     226A      2.024989   227A      2.036364   228A      2.087579  
     229A      2.123213   230A      2.199918   231A      2.205963  
     232A      2.237864   233A      2.251007   234A      2.254705  
     235A      2.266647   236A      2.289750   237A      2.309692  
     238A      2.321877   239A      2.329092   240A      2.335786  
     241A      2.369778   242A      2.384126   243A      2.415983  
     244A      2.426769   245A      2.438048   246A      2.454705  
     247A      2.470726   248A      2.474269   249A      2.494541  
     250A      2.520067   251A      2.528453   252A      2.552124  
     253A      2.559265   254A      2.574301   255A      2.580005  
     256A      2.604482   257A      2.621654   258A      2.628125  
     259A      2.638274   260A      2.646901   261A      2.663267  
     262A      2.680322   263A      2.698934   264A      2.706546  
     265A      2.716848   266A      2.725708   267A      2.750174  
     268A      2.769688   269A      2.789280   270A      2.802821  
     271A      2.815973   272A      2.834149   273A      2.838026  
     274A      2.871245   275A      2.887726   276A      2.898288  
     277A      2.989398   278A      3.625243   279A      3.653407  
     280A      3.702864   281A      3.709896   282A      3.737331  
     283A      3.754072   284A      3.770972   285A      3.786641  
     286A      3.918653   287A      3.936913   288A      3.982409  
     289A      3.993152   290A      4.008579   291A      4.065192  
     292A      4.087173   293A      4.094488   294A      4.097135  
     295A      4.118123   296A      4.135459   297A      4.151402  
     298A      4.167411   299A      4.187028   300A      4.204336  
     301A      4.226724   302A      4.284145   303A      4.292207  
     304A      4.311856   305A      4.323978   306A      4.328580  
     307A      4.350704   308A      4.360874   309A      4.372679  
     310A      4.392907   311A      4.401545   312A      4.408253  
     313A      4.421120   314A      4.446787   315A      4.469744  
     316A      4.476284   317A      4.485849   318A      4.512184  
     319A      4.528479   320A      4.538111   321A      4.548549  
     322A      4.592588   323A      4.620789   324A      4.640691  
     325A      4.662424   326A      4.681438   327A      4.691615  
     328A      4.754618   329A      4.795441   330A      4.842718  
     331A      4.930463   332A      4.954627   333A      4.979918  
     334A      4.990215   335A      5.008430   336A      5.028668  
     337A      5.040298   338A      5.055990   339A      5.118746  
     340A      5.130751   341A      5.143328   342A      5.186375  
     343A      5.199036   344A      5.212722   345A      5.233804  
     346A      5.250402   347A      5.349705   348A      5.380138  
     349A      5.387908   350A      5.505145   351A      5.603511  
     352A      5.634707   353A      5.648237   354A      5.712547  
     355A      6.092602   356A      6.116409   357A      6.180048  
     358A      6.205843   359A      6.409162   360A      6.448643  
     361A      6.482394   362A      6.497527   363A      6.603238  
     364A      6.627013   365A      6.629445   366A      6.692041  
     367A      6.735679   368A      6.751956   369A      6.795308  
     370A      6.849785   371A      6.975720   372A      7.008541  
     373A      7.024310   374A      7.052042   375A      7.094248  
     376A      7.122668   377A      7.133177   378A      7.151644  
     379A      7.156462   380A      7.161822   381A      7.173705  
     382A      7.186208   383A      7.194651   384A      7.199078  
     385A      7.215326   386A      7.220461   387A      7.228150  
     388A      7.249495   389A      7.266372   390A      7.279191  
     391A      7.294376   392A      7.303498   393A      7.329150  
     394A      7.370137   395A      7.470910   396A      7.500271  
     397A      7.530242   398A      7.563142   399A      7.686755  
     400A      7.702659   401A      7.730667   402A      7.756547  
     403A      7.806423   404A      7.815841   405A      7.824385  
     406A      7.848195   407A      8.548492   408A      8.612001  
     409A      8.678422   410A      8.722709   411A     15.421342  
     412A     15.741942   413A     15.755484   414A     15.998185  

    Final Occupation by Irrep:
              A 
    DOCC [    21 ]
    NA   [    21 ]
    NB   [    21 ]

  @DF-RHF Final Energy:  -311.60627461217172

   => Energetics <=

    Nuclear Repulsion Energy =            159.0187229163378504
    One-Electron Energy =                -738.6885366141614213
    Two-Electron Energy =                 268.0635390856518256
    Total Energy =                       -311.6062746121717169

Computation Completed


Properties will be evaluated at   0.000000,   0.000000,   0.000000 [a0]

Properties computed using the SCF density matrix


 Multipole Moments:

 ------------------------------------------------------------------------------------
     Multipole            Electronic (a.u.)      Nuclear  (a.u.)        Total (a.u.)
 ------------------------------------------------------------------------------------

 L = 1.  Multiply by 2.5417464519 to convert [e a0] to [Debye]
 Dipole X            :         -5.6168614            5.8467276            0.2298662
 Dipole Y            :          0.0472893            0.9617364            1.0090257
 Dipole Z            :         -9.7267691           11.1510169            1.4242477
 Magnitude           :                                                    1.7605263

 ------------------------------------------------------------------------------------

*** tstop() called on ddmfs1 at Mon Jan 22 12:55:34 2024
Module time:
	user time   =      72.80 seconds =       1.21 minutes
	system time =       3.64 seconds =       0.06 minutes
	total time  =          4 seconds =       0.07 minutes
Total time:
	user time   =      72.80 seconds =       1.21 minutes
	system time =       3.64 seconds =       0.06 minutes
	total time  =          4 seconds =       0.07 minutes

*** tstart() called on ddmfs1
*** at Mon Jan 22 12:55:34 2024


  //>>>>>>>>>>>>>>>>>>>>>>>>>>>>>>>>>>>//
  //               DFMP2               //
  //<<<<<<<<<<<<<<<<<<<<<<<<<<<<<<<<<<<//

   => Loading Basis Set <=

    Name: (AUG-CC-PVTZ AUX)
    Role: RIFIT
    Keyword: DF_BASIS_MP2
    atoms 1                     entry LI         line    90 file /ddmfs1b/softs/psi4conda/share/psi4/basis/def2-qzvpp-ri.gbs 
    atoms 2, 5, 8, 11           entry O          line   264 file /ddmfs1b/softs/psi4conda/share/psi4/basis/aug-cc-pvtz-ri.gbs 
    atoms 3-4, 6-7, 9-10, 12-13 entry H          line    30 file /ddmfs1b/softs/psi4conda/share/psi4/basis/aug-cc-pvtz-ri.gbs 

	 --------------------------------------------------------
	                          DF-MP2                         
	      2nd-Order Density-Fitted Moller-Plesset Theory     
	              RMP2 Wavefunction,  20 Threads             
	                                                         
	        Rob Parrish, Justin Turney, Andy Simmonett,      
	           Ed Hohenstein, and C. David Sherrill          
	 --------------------------------------------------------

   => Auxiliary Basis Set <=

  Basis Set: (AUG-CC-PVTZ AUX)
    Blend: AUG-CC-PVTZ-RI + DEF2-QZVPP-RI
    Number of shells: 251
    Number of basis functions: 893
    Number of Cartesian functions: 1114
    Spherical Harmonics?: true
    Max angular momentum: 4

	 --------------------------------------------------------
	                 NBF =   414, NAUX =   893
	 --------------------------------------------------------
	   CLASS    FOCC     OCC    AOCC    AVIR     VIR    FVIR
	   PAIRS       0      21      21     393     393       0
	 --------------------------------------------------------

	-----------------------------------------------------------
	 ==================> DF-MP2 Energies <==================== 
	-----------------------------------------------------------
	 Reference Energy          =    -311.6062746121717169 [Eh]
	 Singles Energy            =      -0.0000000000000000 [Eh]
	 Same-Spin Energy          =      -0.2765787866408943 [Eh]
	 Opposite-Spin Energy      =      -0.8817539460248272 [Eh]
	 Correlation Energy        =      -1.1583327326657216 [Eh]
	 Total Energy              =    -312.7646073448374295 [Eh]
	-----------------------------------------------------------
	 ================> DF-SCS-MP2 Energies <================== 
	-----------------------------------------------------------
	 SCS Same-Spin Scale       =       0.3333333333333333 [-]
	 SCS Opposite-Spin Scale   =       1.2000000000000000 [-]
	 SCS Same-Spin Energy      =      -0.0921929288802981 [Eh]
	 SCS Opposite-Spin Energy  =      -1.0581047352297925 [Eh]
	 SCS Correlation Energy    =      -1.1502976641100906 [Eh]
	 SCS Total Energy          =    -312.7565722762818154 [Eh]
	-----------------------------------------------------------


*** tstop() called on ddmfs1 at Mon Jan 22 12:55:37 2024
Module time:
	user time   =      23.17 seconds =       0.39 minutes
	system time =       1.08 seconds =       0.02 minutes
	total time  =          3 seconds =       0.05 minutes
Total time:
	user time   =      95.99 seconds =       1.60 minutes
	system time =       4.72 seconds =       0.08 minutes
	total time  =          7 seconds =       0.12 minutes

    Psi4 stopped on: Monday, 22 January 2024 12:55PM
    Psi4 wall time for execution: 0:00:07.45

*** Psi4 exiting successfully. Buy a developer a beer!
