
    -----------------------------------------------------------------------
          Psi4: An Open-Source Ab Initio Electronic Structure Package
                               Psi4 1.8.2 release

                         Git: Rev {} zzzzzzz 


    D. G. A. Smith, L. A. Burns, A. C. Simmonett, R. M. Parrish,
    M. C. Schieber, R. Galvelis, P. Kraus, H. Kruse, R. Di Remigio,
    A. Alenaizan, A. M. James, S. Lehtola, J. P. Misiewicz, M. Scheurer,
    R. A. Shaw, J. B. Schriber, Y. Xie, Z. L. Glick, D. A. Sirianni,
    J. S. O'Brien, J. M. Waldrop, A. Kumar, E. G. Hohenstein,
    B. P. Pritchard, B. R. Brooks, H. F. Schaefer III, A. Yu. Sokolov,
    K. Patkowski, A. E. DePrince III, U. Bozkaya, R. A. King,
    F. A. Evangelista, J. M. Turney, T. D. Crawford, C. D. Sherrill,
    J. Chem. Phys. 152(18) 184108 (2020). https://doi.org/10.1063/5.0006002

                            Additional Code Authors
    E. T. Seidl, C. L. Janssen, E. F. Valeev, M. L. Leininger,
    J. F. Gonthier, R. M. Richard, H. R. McAlexander, M. Saitow, X. Wang,
    P. Verma, M. H. Lechner, A. Jiang, S. Behnle, A. G. Heide,
    M. F. Herbst, and D. L. Poole

             Previous Authors, Complete List of Code Contributors,
                       and Citations for Specific Modules
    https://github.com/psi4/psi4/blob/master/codemeta.json
    https://github.com/psi4/psi4/graphs/contributors
    http://psicode.org/psi4manual/master/introduction.html#citing-psifour

    -----------------------------------------------------------------------


    Psi4 started on: Monday, 22 January 2024 01:52PM

    Process ID: 63412
    Host:       ddmfs1
    PSIDATADIR: /ddmfs1b/softs/psi4conda/share/psi4
    Memory:     500.0 MiB
    Threads:    20
    
  ==> Input File <==

--------------------------------------------------------------------------
MEMORY 60 GB

molecule dimer {
0 1
Gh(Li)     0.000000     0.000000     0.000000
O          0.834436    -0.241329    -1.578276
H          1.191917    -1.111872    -1.723723
H          1.469698     0.437227    -1.857302
Gh(O)     -1.157150    -1.678256     0.354050
Gh(H)     -2.090219    -1.865260     0.521759
Gh(H)     -0.712408    -2.505514     0.115149
Gh(O)     -1.517712     1.412924    -0.255778
Gh(H)     -1.084382     2.261262    -0.283873
Gh(H)     -1.989995     1.420311     0.576573
Gh(O)      0.904310     1.187102     1.315687
Gh(H)      1.168203     0.886967     2.209891
Gh(H)      0.442074     1.996661     1.434603

units ang
no_reorient
no_com
symmetry c1
}

set {
basis        aug-cc-pVTZ
scf_type     df
}

energy("mp2")
--------------------------------------------------------------------------

  Memory set to  55.879 GiB by Python driver.

Scratch directory: /ddmfs1a/scratch/
   => Libint2 <=

    Primary   basis highest AM E, G, H:  5, 4, 3
    Auxiliary basis highest AM E, G, H:  6, 5, 4
    Onebody   basis highest AM E, G, H:  6, 5, 4
    Solid Harmonics ordering:            gaussian

*** tstart() called on ddmfs1
*** at Mon Jan 22 13:52:32 2024

   => Loading Basis Set <=

    Name: AUG-CC-PVTZ
    Role: ORBITAL
    Keyword: BASIS
    atoms 1                     entry LI         line    85 file /ddmfs1b/softs/psi4conda/share/psi4/basis/aug-cc-pvtz.gbs 
    atoms 2, 5, 8, 11           entry O          line   331 file /ddmfs1b/softs/psi4conda/share/psi4/basis/aug-cc-pvtz.gbs 
    atoms 3-4, 6-7, 9-10, 12-13 entry H          line    40 file /ddmfs1b/softs/psi4conda/share/psi4/basis/aug-cc-pvtz.gbs 


         ---------------------------------------------------------
                                   SCF
               by Justin Turney, Rob Parrish, Andy Simmonett
                          and Daniel G. A. Smith
                              RHF Reference
                       20 Threads,  57220 MiB Core
         ---------------------------------------------------------

  ==> Geometry <==

    Molecular point group: c1
    Full point group: C1

    Geometry (in Angstrom), charge = 0, multiplicity = 1:

       Center              X                  Y                   Z               Mass       
    ------------   -----------------  -----------------  -----------------  -----------------
      Gh(LI)          0.000000000000     0.000000000000     0.000000000000     7.016003436600
         O            0.834436000000    -0.241329000000    -1.578276000000    15.994914619570
         H            1.191917000000    -1.111872000000    -1.723723000000     1.007825032230
         H            1.469698000000     0.437227000000    -1.857302000000     1.007825032230
      Gh(O)          -1.157150000000    -1.678256000000     0.354050000000    15.994914619570
      Gh(H)          -2.090219000000    -1.865260000000     0.521759000000     1.007825032230
      Gh(H)          -0.712408000000    -2.505514000000     0.115149000000     1.007825032230
      Gh(O)          -1.517712000000     1.412924000000    -0.255778000000    15.994914619570
      Gh(H)          -1.084382000000     2.261262000000    -0.283873000000     1.007825032230
      Gh(H)          -1.989995000000     1.420311000000     0.576573000000     1.007825032230
      Gh(O)           0.904310000000     1.187102000000     1.315687000000    15.994914619570
      Gh(H)           1.168203000000     0.886967000000     2.209891000000     1.007825032230
      Gh(H)           0.442074000000     1.996661000000     1.434603000000     1.007825032230

  Running in c1 symmetry.

  Rotational constants: A =      0.09841  B =      0.08167  C =      0.07182 [cm^-1]
  Rotational constants: A =   2950.29173  B =   2448.27940  C =   2153.02335 [MHz]
  Nuclear repulsion =    9.142847479196817

  Charge       = 0
  Multiplicity = 1
  Electrons    = 10
  Nalpha       = 5
  Nbeta        = 5

  ==> Algorithm <==

  SCF Algorithm Type is DF.
  DIIS enabled.
  MOM disabled.
  Fractional occupation disabled.
  Guess Type is SAD.
  Energy threshold   = 1.00e-08
  Density threshold  = 1.00e-08
  Integral threshold = 1.00e-12

  ==> Primary Basis <==

  Basis Set: AUG-CC-PVTZ
    Blend: AUG-CC-PVTZ
    Number of shells: 142
    Number of basis functions: 414
    Number of Cartesian functions: 475
    Spherical Harmonics?: true
    Max angular momentum: 3

   => Loading Basis Set <=

    Name: (AUG-CC-PVTZ AUX)
    Role: JKFIT
    Keyword: DF_BASIS_SCF
    atoms 1                     entry LI         line    54 file /ddmfs1b/softs/psi4conda/share/psi4/basis/def2-universal-jkfit.gbs 
    atoms 2, 5, 8, 11           entry O          line   286 file /ddmfs1b/softs/psi4conda/share/psi4/basis/aug-cc-pvtz-jkfit.gbs 
    atoms 3-4, 6-7, 9-10, 12-13 entry H          line    70 file /ddmfs1b/softs/psi4conda/share/psi4/basis/aug-cc-pvtz-jkfit.gbs 

  ==> Integral Setup <==

  DFHelper Memory: AOs need 1.082 GiB; user supplied 41.910 GiB. 
  Using in-core AOs.

  ==> MemDFJK: Density-Fitted J/K Matrices <==

    J tasked:                   Yes
    K tasked:                   Yes
    wK tasked:                   No
    OpenMP threads:              20
    Memory [MiB]:             42915
    Algorithm:                 Core
    Schwarz Cutoff:           1E-12
    Mask sparsity (%):       4.6139
    Fitting Condition:        1E-10

   => Auxiliary Basis Set <=

  Basis Set: (AUG-CC-PVTZ AUX)
    Blend: AUG-CC-PVTZ-JKFIT + DEF2-UNIVERSAL-JKFIT
    Number of shells: 249
    Number of basis functions: 835
    Number of Cartesian functions: 1024
    Spherical Harmonics?: true
    Max angular momentum: 4

  Minimum eigenvalue in the overlap matrix is 1.5891304346E-05.
  Reciprocal condition number of the overlap matrix is 1.0992824774E-06.
    Using symmetric orthogonalization.

  ==> Pre-Iterations <==

  SCF Guess: Superposition of Atomic Densities via on-the-fly atomic UHF (no occupation information).

   -------------------------
    Irrep   Nso     Nmo    
   -------------------------
     A        414     414 
   -------------------------
    Total     414     414
   -------------------------

  ==> Iterations <==

                           Total Energy        Delta E     RMS |[F,P]|

   @DF-RHF iter SAD:   -75.46752566609423   -7.54675e+01   0.00000e+00 
   @DF-RHF iter   1:   -75.97584432645259   -5.08319e-01   1.13156e-03 ADIIS/DIIS
   @DF-RHF iter   2:   -76.02808421953343   -5.22399e-02   7.68826e-04 ADIIS/DIIS
   @DF-RHF iter   3:   -76.05927829028450   -3.11941e-02   5.22923e-05 DIIS
   @DF-RHF iter   4:   -76.05967650891766   -3.98219e-04   1.26232e-05 DIIS
   @DF-RHF iter   5:   -76.05970161926908   -2.51104e-05   2.86556e-06 DIIS
   @DF-RHF iter   6:   -76.05970371263845   -2.09337e-06   6.45822e-07 DIIS
   @DF-RHF iter   7:   -76.05970383099397   -1.18356e-07   1.23815e-07 DIIS
   @DF-RHF iter   8:   -76.05970383484508   -3.85111e-09   2.04062e-08 DIIS
   @DF-RHF iter   9:   -76.05970383492824   -8.31619e-11   5.13085e-09 DIIS
  Energy and wave function converged.


  ==> Post-Iterations <==

    Orbital Energies [Eh]
    ---------------------

    Doubly Occupied:                                                      

       1A    -20.564945     2A     -1.347287     3A     -0.726470  
       4A     -0.572506     5A     -0.508182  

    Virtual:                                                              

       6A      0.008813     7A      0.017972     8A      0.018005  
       9A      0.019662    10A      0.044171    11A      0.056028  
      12A      0.056861    13A      0.060162    14A      0.062587  
      15A      0.064961    16A      0.065776    17A      0.067540  
      18A      0.071888    19A      0.084847    20A      0.092975  
      21A      0.101557    22A      0.144679    23A      0.149868  
      24A      0.151480    25A      0.152748    26A      0.157189  
      27A      0.158777    28A      0.165311    29A      0.167547  
      30A      0.172452    31A      0.179826    32A      0.183362  
      33A      0.188487    34A      0.190615    35A      0.206954  
      36A      0.218978    37A      0.222473    38A      0.230762  
      39A      0.240031    40A      0.250840    41A      0.257389  
      42A      0.260257    43A      0.300724    44A      0.306036  
      45A      0.311033    46A      0.313835    47A      0.322271  
      48A      0.332348    49A      0.336041    50A      0.350255  
      51A      0.357149    52A      0.363696    53A      0.366613  
      54A      0.373526    55A      0.377910    56A      0.382669  
      57A      0.388921    58A      0.396732    59A      0.399608  
      60A      0.405271    61A      0.407266    62A      0.414152  
      63A      0.423075    64A      0.423624    65A      0.432387  
      66A      0.433544    67A      0.441759    68A      0.450192  
      69A      0.457680    70A      0.462108    71A      0.468338  
      72A      0.472430    73A      0.478500    74A      0.485680  
      75A      0.495547    76A      0.502278    77A      0.507464  
      78A      0.516803    79A      0.518726    80A      0.525370  
      81A      0.532898    82A      0.541828    83A      0.554626  
      84A      0.569912    85A      0.575705    86A      0.597556  
      87A      0.603524    88A      0.617422    89A      0.621117  
      90A      0.633805    91A      0.655153    92A      0.722939  
      93A      0.732280    94A      0.756105    95A      0.765756  
      96A      0.778650    97A      0.798746    98A      0.801420  
      99A      0.809911   100A      0.829859   101A      0.831771  
     102A      0.839105   103A      0.843665   104A      0.855482  
     105A      0.858963   106A      0.873650   107A      0.885952  
     108A      0.891987   109A      0.895681   110A      0.898110  
     111A      0.900820   112A      0.920089   113A      0.926149  
     114A      0.934333   115A      0.943176   116A      0.947170  
     117A      0.953264   118A      0.958097   119A      0.977755  
     120A      0.989094   121A      0.996301   122A      1.004273  
     123A      1.013752   124A      1.015394   125A      1.018474  
     126A      1.029560   127A      1.037980   128A      1.044707  
     129A      1.049992   130A      1.061049   131A      1.078732  
     132A      1.080547   133A      1.092801   134A      1.100391  
     135A      1.110998   136A      1.116548   137A      1.123995  
     138A      1.131212   139A      1.144996   140A      1.151600  
     141A      1.163520   142A      1.168617   143A      1.175764  
     144A      1.183929   145A      1.202518   146A      1.206001  
     147A      1.213382   148A      1.221673   149A      1.241933  
     150A      1.245218   151A      1.246806   152A      1.266179  
     153A      1.270536   154A      1.276358   155A      1.289697  
     156A      1.295301   157A      1.320649   158A      1.333272  
     159A      1.340864   160A      1.353000   161A      1.376521  
     162A      1.383023   163A      1.398188   164A      1.411979  
     165A      1.413711   166A      1.449100   167A      1.449509  
     168A      1.479937   169A      1.509304   170A      1.518860  
     171A      1.540923   172A      1.544134   173A      1.558153  
     174A      1.562620   175A      1.571768   176A      1.586252  
     177A      1.608185   178A      1.661061   179A      1.671192  
     180A      1.690871   181A      1.698673   182A      1.725177  
     183A      1.735956   184A      1.747923   185A      1.774792  
     186A      1.789955   187A      1.814266   188A      1.840095  
     189A      1.855904   190A      1.870039   191A      1.873204  
     192A      1.895727   193A      1.905671   194A      1.918951  
     195A      1.930594   196A      1.945822   197A      1.958110  
     198A      1.979579   199A      1.998761   200A      2.014679  
     201A      2.016715   202A      2.025385   203A      2.046254  
     204A      2.073330   205A      2.079679   206A      2.110992  
     207A      2.151882   208A      2.165038   209A      2.177848  
     210A      2.203140   211A      2.270005   212A      2.325522  
     213A      2.374703   214A      2.414980   215A      2.454726  
     216A      2.478103   217A      2.499829   218A      2.518754  
     219A      2.552049   220A      2.593522   221A      2.602052  
     222A      2.616926   223A      2.637303   224A      2.649274  
     225A      2.672822   226A      2.680574   227A      2.693756  
     228A      2.707042   229A      2.722259   230A      2.750106  
     231A      2.770148   232A      2.784037   233A      2.791433  
     234A      2.812423   235A      2.833832   236A      2.842456  
     237A      2.854010   238A      2.880102   239A      2.902627  
     240A      2.918136   241A      2.954420   242A      2.982836  
     243A      2.994755   244A      3.006095   245A      3.036287  
     246A      3.063228   247A      3.087879   248A      3.122279  
     249A      3.134230   250A      3.180816   251A      3.203132  
     252A      3.228976   253A      3.248886   254A      3.292378  
     255A      3.303242   256A      3.308651   257A      3.322864  
     258A      3.339682   259A      3.355869   260A      3.380795  
     261A      3.385735   262A      3.400568   263A      3.434420  
     264A      3.445948   265A      3.474445   266A      3.485571  
     267A      3.551237   268A      3.569155   269A      3.673747  
     270A      3.729055   271A      3.747298   272A      3.799866  
     273A      3.813041   274A      3.851003   275A      3.979172  
     276A      4.011514   277A      4.163138   278A      4.300017  
     279A      4.329996   280A      4.392950   281A      4.438354  
     282A      4.468666   283A      4.508718   284A      4.530562  
     285A      4.570306   286A      4.577958   287A      4.599450  
     288A      4.605442   289A      4.619560   290A      4.651917  
     291A      4.666447   292A      4.676412   293A      4.691168  
     294A      4.719877   295A      4.745484   296A      4.775337  
     297A      4.776595   298A      4.798085   299A      4.816747  
     300A      4.844250   301A      4.861230   302A      4.863533  
     303A      4.875911   304A      4.887648   305A      4.902342  
     306A      5.021403   307A      5.040049   308A      5.061645  
     309A      5.081660   310A      5.116007   311A      5.161698  
     312A      5.172488   313A      5.186109   314A      5.233811  
     315A      5.246665   316A      5.277964   317A      5.301405  
     318A      5.321289   319A      5.397247   320A      5.420639  
     321A      5.469274   322A      5.541872   323A      5.592455  
     324A      5.612819   325A      5.622304   326A      5.652864  
     327A      5.685621   328A      5.738149   329A      5.759386  
     330A      5.782220   331A      5.808567   332A      5.932258  
     333A      5.937073   334A      5.983228   335A      6.043473  
     336A      6.253321   337A      6.320520   338A      6.335403  
     339A      6.408065   340A      6.430293   341A      6.506281  
     342A      6.521108   343A      6.682874   344A      6.775901  
     345A      6.799075   346A      6.859059   347A      6.888109  
     348A      6.984806   349A      7.114309   350A      7.164938  
     351A      7.171145   352A      7.252385   353A      7.358386  
     354A      7.394693   355A      7.438376   356A      7.459508  
     357A      7.497195   358A      7.694995   359A      7.774692  
     360A      7.812536   361A      7.851986   362A      7.872544  
     363A      7.944006   364A      7.951730   365A      7.986779  
     366A      8.021598   367A      8.136010   368A      8.163203  
     369A      8.223340   370A      8.256893   371A      8.271126  
     372A      8.290664   373A      8.325281   374A      8.372876  
     375A      8.428894   376A      8.819251   377A      8.819481  
     378A      8.848792   379A      8.861834   380A      8.888962  
     381A      8.922304   382A      8.942317   383A      9.912137  
     384A      9.948685   385A      9.999015   386A     10.007106  
     387A     10.031815   388A     10.056831   389A     10.067840  
     390A     10.096630   391A     10.104181   392A     10.253436  
     393A     10.265529   394A     10.298302   395A     11.190647  
     396A     11.224668   397A     11.314609   398A     11.793732  
     399A     11.928084   400A     11.977711   401A     12.239058  
     402A     12.352750   403A     12.396316   404A     12.916507  
     405A     13.599286   406A     13.650566   407A     13.799479  
     408A     13.926677   409A     13.990605   410A     14.011393  
     411A     16.294637   412A     65.120918   413A     65.989542  
     414A     66.292215  

    Final Occupation by Irrep:
              A 
    DOCC [     5 ]
    NA   [     5 ]
    NB   [     5 ]

  @DF-RHF Final Energy:   -76.05970383492824

   => Energetics <=

    Nuclear Repulsion Energy =              9.1428474791968171
    One-Electron Energy =                -122.9663191604661563
    Two-Electron Energy =                  37.7637678463410964
    Total Energy =                        -76.0597038349282428

Computation Completed


Properties will be evaluated at   0.000000,   0.000000,   0.000000 [a0]

Properties computed using the SCF density matrix


 Multipole Moments:

 ------------------------------------------------------------------------------------
     Multipole            Electronic (a.u.)      Nuclear  (a.u.)        Total (a.u.)
 ------------------------------------------------------------------------------------

 L = 1.  Multiply by 2.5417464519 to convert [e a0] to [Debye]
 Dipole X            :        -16.9742905           17.6445675            0.6702770
 Dipole Y            :          4.7910201           -4.9232600           -0.1322399
 Dipole Z            :         30.3404255          -30.6272316           -0.2868061
 Magnitude           :                                                    0.7409564

 ------------------------------------------------------------------------------------

*** tstop() called on ddmfs1 at Mon Jan 22 13:52:35 2024
Module time:
	user time   =      53.60 seconds =       0.89 minutes
	system time =       2.77 seconds =       0.05 minutes
	total time  =          3 seconds =       0.05 minutes
Total time:
	user time   =      53.60 seconds =       0.89 minutes
	system time =       2.77 seconds =       0.05 minutes
	total time  =          3 seconds =       0.05 minutes

*** tstart() called on ddmfs1
*** at Mon Jan 22 13:52:35 2024


  //>>>>>>>>>>>>>>>>>>>>>>>>>>>>>>>>>>>//
  //               DFMP2               //
  //<<<<<<<<<<<<<<<<<<<<<<<<<<<<<<<<<<<//

   => Loading Basis Set <=

    Name: (AUG-CC-PVTZ AUX)
    Role: RIFIT
    Keyword: DF_BASIS_MP2
    atoms 1                     entry LI         line    90 file /ddmfs1b/softs/psi4conda/share/psi4/basis/def2-qzvpp-ri.gbs 
    atoms 2, 5, 8, 11           entry O          line   264 file /ddmfs1b/softs/psi4conda/share/psi4/basis/aug-cc-pvtz-ri.gbs 
    atoms 3-4, 6-7, 9-10, 12-13 entry H          line    30 file /ddmfs1b/softs/psi4conda/share/psi4/basis/aug-cc-pvtz-ri.gbs 

	 --------------------------------------------------------
	                          DF-MP2                         
	      2nd-Order Density-Fitted Moller-Plesset Theory     
	              RMP2 Wavefunction,  20 Threads             
	                                                         
	        Rob Parrish, Justin Turney, Andy Simmonett,      
	           Ed Hohenstein, and C. David Sherrill          
	 --------------------------------------------------------

   => Auxiliary Basis Set <=

  Basis Set: (AUG-CC-PVTZ AUX)
    Blend: AUG-CC-PVTZ-RI + DEF2-QZVPP-RI
    Number of shells: 251
    Number of basis functions: 893
    Number of Cartesian functions: 1114
    Spherical Harmonics?: true
    Max angular momentum: 4

	 --------------------------------------------------------
	                 NBF =   414, NAUX =   893
	 --------------------------------------------------------
	   CLASS    FOCC     OCC    AOCC    AVIR     VIR    FVIR
	   PAIRS       0       5       5     409     409       0
	 --------------------------------------------------------

	-----------------------------------------------------------
	 ==================> DF-MP2 Energies <==================== 
	-----------------------------------------------------------
	 Reference Energy          =     -76.0597038349282428 [Eh]
	 Singles Energy            =      -0.0000000000000000 [Eh]
	 Same-Spin Energy          =      -0.0684307490655455 [Eh]
	 Opposite-Spin Energy      =      -0.2159329642437021 [Eh]
	 Correlation Energy        =      -0.2843637133092475 [Eh]
	 Total Energy              =     -76.3440675482374900 [Eh]
	-----------------------------------------------------------
	 ================> DF-SCS-MP2 Energies <================== 
	-----------------------------------------------------------
	 SCS Same-Spin Scale       =       0.3333333333333333 [-]
	 SCS Opposite-Spin Scale   =       1.2000000000000000 [-]
	 SCS Same-Spin Energy      =      -0.0228102496885152 [Eh]
	 SCS Opposite-Spin Energy  =      -0.2591195570924424 [Eh]
	 SCS Correlation Energy    =      -0.2819298067809576 [Eh]
	 SCS Total Energy          =     -76.3416336417091941 [Eh]
	-----------------------------------------------------------


*** tstop() called on ddmfs1 at Mon Jan 22 13:52:38 2024
Module time:
	user time   =      16.82 seconds =       0.28 minutes
	system time =       0.85 seconds =       0.01 minutes
	total time  =          3 seconds =       0.05 minutes
Total time:
	user time   =      70.44 seconds =       1.17 minutes
	system time =       3.63 seconds =       0.06 minutes
	total time  =          6 seconds =       0.10 minutes

    Psi4 stopped on: Monday, 22 January 2024 01:52PM
    Psi4 wall time for execution: 0:00:06.12

*** Psi4 exiting successfully. Buy a developer a beer!
