
    -----------------------------------------------------------------------
          Psi4: An Open-Source Ab Initio Electronic Structure Package
                               Psi4 1.8.2 release

                         Git: Rev {} zzzzzzz 


    D. G. A. Smith, L. A. Burns, A. C. Simmonett, R. M. Parrish,
    M. C. Schieber, R. Galvelis, P. Kraus, H. Kruse, R. Di Remigio,
    A. Alenaizan, A. M. James, S. Lehtola, J. P. Misiewicz, M. Scheurer,
    R. A. Shaw, J. B. Schriber, Y. Xie, Z. L. Glick, D. A. Sirianni,
    J. S. O'Brien, J. M. Waldrop, A. Kumar, E. G. Hohenstein,
    B. P. Pritchard, B. R. Brooks, H. F. Schaefer III, A. Yu. Sokolov,
    K. Patkowski, A. E. DePrince III, U. Bozkaya, R. A. King,
    F. A. Evangelista, J. M. Turney, T. D. Crawford, C. D. Sherrill,
    J. Chem. Phys. 152(18) 184108 (2020). https://doi.org/10.1063/5.0006002

                            Additional Code Authors
    E. T. Seidl, C. L. Janssen, E. F. Valeev, M. L. Leininger,
    J. F. Gonthier, R. M. Richard, H. R. McAlexander, M. Saitow, X. Wang,
    P. Verma, M. H. Lechner, A. Jiang, S. Behnle, A. G. Heide,
    M. F. Herbst, and D. L. Poole

             Previous Authors, Complete List of Code Contributors,
                       and Citations for Specific Modules
    https://github.com/psi4/psi4/blob/master/codemeta.json
    https://github.com/psi4/psi4/graphs/contributors
    http://psicode.org/psi4manual/master/introduction.html#citing-psifour

    -----------------------------------------------------------------------


    Psi4 started on: Monday, 22 January 2024 01:34PM

    Process ID: 59773
    Host:       ddmfs1
    PSIDATADIR: /ddmfs1b/softs/psi4conda/share/psi4
    Memory:     500.0 MiB
    Threads:    20
    
  ==> Input File <==

--------------------------------------------------------------------------
MEMORY 60 GB

molecule dimer {
1 1
Li         0.000000     0.000000     0.000000
Gh(O)      1.362177     0.494903    -1.256822
Gh(H)      1.833323    -0.139138    -1.763691
Gh(H)      2.031082     1.092765    -0.979248
Gh(O)     -1.382938    -0.607154    -1.085086
Gh(H)     -1.865008     0.071796    -1.477591
Gh(H)     -1.178693    -1.330940    -1.688702
Gh(O)      0.262721    -1.170129     1.291731
Gh(H)      1.058433    -1.126622     1.806015
Gh(H)      0.186388    -2.100896     1.196103
Gh(O)     -0.396836     1.829554     0.256520
Gh(H)     -0.272323     2.420521     0.947354
Gh(H)     -0.490326     2.381443    -0.505406

units ang
no_reorient
no_com
symmetry c1
}

set {
basis        aug-cc-pVTZ
scf_type     df
}

energy("mp2")
--------------------------------------------------------------------------

  Memory set to  55.879 GiB by Python driver.

Scratch directory: /ddmfs1a/scratch/
   => Libint2 <=

    Primary   basis highest AM E, G, H:  5, 4, 3
    Auxiliary basis highest AM E, G, H:  6, 5, 4
    Onebody   basis highest AM E, G, H:  6, 5, 4
    Solid Harmonics ordering:            gaussian

*** tstart() called on ddmfs1
*** at Mon Jan 22 13:34:23 2024

   => Loading Basis Set <=

    Name: AUG-CC-PVTZ
    Role: ORBITAL
    Keyword: BASIS
    atoms 1                     entry LI         line    85 file /ddmfs1b/softs/psi4conda/share/psi4/basis/aug-cc-pvtz.gbs 
    atoms 2, 5, 8, 11           entry O          line   331 file /ddmfs1b/softs/psi4conda/share/psi4/basis/aug-cc-pvtz.gbs 
    atoms 3-4, 6-7, 9-10, 12-13 entry H          line    40 file /ddmfs1b/softs/psi4conda/share/psi4/basis/aug-cc-pvtz.gbs 


         ---------------------------------------------------------
                                   SCF
               by Justin Turney, Rob Parrish, Andy Simmonett
                          and Daniel G. A. Smith
                              RHF Reference
                       20 Threads,  57220 MiB Core
         ---------------------------------------------------------

  ==> Geometry <==

    Molecular point group: c1
    Full point group: C1

    Geometry (in Angstrom), charge = 1, multiplicity = 1:

       Center              X                  Y                   Z               Mass       
    ------------   -----------------  -----------------  -----------------  -----------------
         LI           0.000000000000     0.000000000000     0.000000000000     7.016003436600
      Gh(O)           1.362177000000     0.494903000000    -1.256822000000    15.994914619570
      Gh(H)           1.833323000000    -0.139138000000    -1.763691000000     1.007825032230
      Gh(H)           2.031082000000     1.092765000000    -0.979248000000     1.007825032230
      Gh(O)          -1.382938000000    -0.607154000000    -1.085086000000    15.994914619570
      Gh(H)          -1.865008000000     0.071796000000    -1.477591000000     1.007825032230
      Gh(H)          -1.178693000000    -1.330940000000    -1.688702000000     1.007825032230
      Gh(O)           0.262721000000    -1.170129000000     1.291731000000    15.994914619570
      Gh(H)           1.058433000000    -1.126622000000     1.806015000000     1.007825032230
      Gh(H)           0.186388000000    -2.100896000000     1.196103000000     1.007825032230
      Gh(O)          -0.396836000000     1.829554000000     0.256520000000    15.994914619570
      Gh(H)          -0.272323000000     2.420521000000     0.947354000000     1.007825032230
      Gh(H)          -0.490326000000     2.381443000000    -0.505406000000     1.007825032230

  Running in c1 symmetry.

  Rotational constants: A =      0.11031  B =      0.08958  C =      0.08442 [cm^-1]
  Rotational constants: A =   3307.02373  B =   2685.64749  C =   2530.78687 [MHz]
  Nuclear repulsion =    0.000000000000000

  Charge       = 1
  Multiplicity = 1
  Electrons    = 2
  Nalpha       = 1
  Nbeta        = 1

  ==> Algorithm <==

  SCF Algorithm Type is DF.
  DIIS enabled.
  MOM disabled.
  Fractional occupation disabled.
  Guess Type is SAD.
  Energy threshold   = 1.00e-08
  Density threshold  = 1.00e-08
  Integral threshold = 1.00e-12

  ==> Primary Basis <==

  Basis Set: AUG-CC-PVTZ
    Blend: AUG-CC-PVTZ
    Number of shells: 142
    Number of basis functions: 414
    Number of Cartesian functions: 475
    Spherical Harmonics?: true
    Max angular momentum: 3

   => Loading Basis Set <=

    Name: (AUG-CC-PVTZ AUX)
    Role: JKFIT
    Keyword: DF_BASIS_SCF
    atoms 1                     entry LI         line    54 file /ddmfs1b/softs/psi4conda/share/psi4/basis/def2-universal-jkfit.gbs 
    atoms 2, 5, 8, 11           entry O          line   286 file /ddmfs1b/softs/psi4conda/share/psi4/basis/aug-cc-pvtz-jkfit.gbs 
    atoms 3-4, 6-7, 9-10, 12-13 entry H          line    70 file /ddmfs1b/softs/psi4conda/share/psi4/basis/aug-cc-pvtz-jkfit.gbs 

  ==> Integral Setup <==

  DFHelper Memory: AOs need 1.095 GiB; user supplied 41.910 GiB. 
  Using in-core AOs.

  ==> MemDFJK: Density-Fitted J/K Matrices <==

    J tasked:                   Yes
    K tasked:                   Yes
    wK tasked:                   No
    OpenMP threads:              20
    Memory [MiB]:             42915
    Algorithm:                 Core
    Schwarz Cutoff:           1E-12
    Mask sparsity (%):       3.4622
    Fitting Condition:        1E-10

   => Auxiliary Basis Set <=

  Basis Set: (AUG-CC-PVTZ AUX)
    Blend: AUG-CC-PVTZ-JKFIT + DEF2-UNIVERSAL-JKFIT
    Number of shells: 249
    Number of basis functions: 835
    Number of Cartesian functions: 1024
    Spherical Harmonics?: true
    Max angular momentum: 4

  Minimum eigenvalue in the overlap matrix is 1.2192761474E-05.
  Reciprocal condition number of the overlap matrix is 8.1530911467E-07.
    Using symmetric orthogonalization.

  ==> Pre-Iterations <==

  SCF Guess: Superposition of Atomic Densities via on-the-fly atomic UHF (no occupation information).

   -------------------------
    Irrep   Nso     Nmo    
   -------------------------
     A        414     414 
   -------------------------
    Total     414     414
   -------------------------

  ==> Iterations <==

                           Total Energy        Delta E     RMS |[F,P]|

   @DF-RHF iter SAD:    -7.31416948576588   -7.31417e+00   0.00000e+00 
   @DF-RHF iter   1:    -7.23638300334967    7.77865e-02   5.49302e-06 DIIS
   @DF-RHF iter   2:    -7.23638493380970   -1.93046e-06   6.76248e-07 DIIS
   @DF-RHF iter   3:    -7.23638496576481   -3.19551e-08   3.54858e-08 DIIS
   @DF-RHF iter   4:    -7.23638496582840   -6.35954e-11   2.44295e-10 DIIS
  Energy and wave function converged.


  ==> Post-Iterations <==

    Orbital Energies [Eh]
    ---------------------

    Doubly Occupied:                                                      

       1A     -2.792351  

    Virtual:                                                              

       2A     -0.196302     3A     -0.128603     4A     -0.128601  
       5A     -0.128600     6A     -0.073775     7A     -0.056395  
       8A     -0.056392     9A     -0.056391    10A     -0.051419  
      11A     -0.051332    12A     -0.050472    13A     -0.047639  
      14A     -0.044870    15A     -0.027324    16A     -0.010927  
      17A     -0.009333    18A     -0.009075    19A     -0.008707  
      20A     -0.001911    21A      0.006964    22A      0.012751  
      23A      0.015756    24A      0.018307    25A      0.021161  
      26A      0.023373    27A      0.037532    28A      0.041021  
      29A      0.043963    30A      0.055186    31A      0.061185  
      32A      0.072147    33A      0.087652    34A      0.089611  
      35A      0.095388    36A      0.097493    37A      0.108048  
      38A      0.115978    39A      0.126605    40A      0.140893  
      41A      0.143702    42A      0.147141    43A      0.153082  
      44A      0.164379    45A      0.168513    46A      0.171847  
      47A      0.180976    48A      0.184452    49A      0.188865  
      50A      0.198988    51A      0.205108    52A      0.212161  
      53A      0.220068    54A      0.222223    55A      0.229167  
      56A      0.240265    57A      0.247526    58A      0.254374  
      59A      0.255313    60A      0.264423    61A      0.267556  
      62A      0.282092    63A      0.284432    64A      0.288585  
      65A      0.295440    66A      0.300493    67A      0.306389  
      68A      0.309977    69A      0.316874    70A      0.328471  
      71A      0.330462    72A      0.340841    73A      0.349993  
      74A      0.354967    75A      0.362461    76A      0.367646  
      77A      0.371451    78A      0.378217    79A      0.382011  
      80A      0.385052    81A      0.394629    82A      0.397419  
      83A      0.401464    84A      0.407890    85A      0.426546  
      86A      0.443212    87A      0.463372    88A      0.463766  
      89A      0.490681    90A      0.527673    91A      0.542127  
      92A      0.544352    93A      0.571217    94A      0.573145  
      95A      0.585816    96A      0.587879    97A      0.610069  
      98A      0.624468    99A      0.627859   100A      0.632553  
     101A      0.640099   102A      0.652752   103A      0.660525  
     104A      0.663036   105A      0.675458   106A      0.686604  
     107A      0.694078   108A      0.702777   109A      0.720111  
     110A      0.727190   111A      0.732585   112A      0.745590  
     113A      0.756744   114A      0.766064   115A      0.781290  
     116A      0.800321   117A      0.800474   118A      0.813321  
     119A      0.820379   120A      0.824630   121A      0.828853  
     122A      0.832592   123A      0.847086   124A      0.855933  
     125A      0.863910   126A      0.874907   127A      0.878762  
     128A      0.892670   129A      0.896932   130A      0.908931  
     131A      0.915567   132A      0.920997   133A      0.929060  
     134A      0.938257   135A      0.943391   136A      0.949994  
     137A      0.959202   138A      0.976614   139A      0.986049  
     140A      1.003242   141A      1.007183   142A      1.019355  
     143A      1.023453   144A      1.037739   145A      1.047417  
     146A      1.054255   147A      1.077106   148A      1.084015  
     149A      1.089015   150A      1.102106   151A      1.108301  
     152A      1.116158   153A      1.134702   154A      1.143156  
     155A      1.148092   156A      1.160732   157A      1.162990  
     158A      1.180868   159A      1.193716   160A      1.204079  
     161A      1.220832   162A      1.229310   163A      1.235864  
     164A      1.252893   165A      1.272019   166A      1.279138  
     167A      1.297462   168A      1.311561   169A      1.317844  
     170A      1.337556   171A      1.344338   172A      1.354760  
     173A      1.357198   174A      1.377328   175A      1.398953  
     176A      1.451569   177A      1.466546   178A      1.477415  
     179A      1.553921   180A      1.576228   181A      1.586497  
     182A      1.600010   183A      1.604403   184A      1.636683  
     185A      1.643566   186A      1.657374   187A      1.665698  
     188A      1.693842   189A      1.706035   190A      1.713969  
     191A      1.724513   192A      1.759958   193A      1.764493  
     194A      1.771690   195A      1.773569   196A      1.792375  
     197A      1.813653   198A      1.827018   199A      1.836395  
     200A      1.855122   201A      1.858123   202A      1.868219  
     203A      1.895555   204A      1.897912   205A      1.935115  
     206A      1.946629   207A      1.968625   208A      1.977568  
     209A      2.010159   210A      2.146098   211A      2.232233  
     212A      2.252791   213A      2.259460   214A      2.289425  
     215A      2.308149   216A      2.320361   217A      2.344664  
     218A      2.363286   219A      2.367863   220A      2.384787  
     221A      2.399813   222A      2.425815   223A      2.433655  
     224A      2.471856   225A      2.478331   226A      2.485949  
     227A      2.505012   228A      2.519598   229A      2.542428  
     230A      2.562900   231A      2.598277   232A      2.632449  
     233A      2.645053   234A      2.662907   235A      2.688047  
     236A      2.725631   237A      2.748750   238A      2.806256  
     239A      2.814292   240A      2.822309   241A      2.870308  
     242A      2.897949   243A      2.920477   244A      2.925957  
     245A      2.981047   246A      3.005521   247A      3.048285  
     248A      3.054403   249A      3.060335   250A      3.086899  
     251A      3.099199   252A      3.116292   253A      3.130291  
     254A      3.142779   255A      3.174180   256A      3.188547  
     257A      3.193359   258A      3.202527   259A      3.210736  
     260A      3.237980   261A      3.260599   262A      3.275883  
     263A      3.312497   264A      3.357634   265A      3.410465  
     266A      3.439086   267A      3.475392   268A      3.490068  
     269A      3.516399   270A      3.537019   271A      3.556914  
     272A      3.585735   273A      3.625437   274A      4.187256  
     275A      4.237405   276A      4.256691   277A      4.269072  
     278A      4.315195   279A      4.322497   280A      4.365538  
     281A      4.402378   282A      4.446986   283A      4.466082  
     284A      4.468501   285A      4.478974   286A      4.510442  
     287A      4.545539   288A      4.573609   289A      4.602499  
     290A      4.609154   291A      4.638058   292A      4.658673  
     293A      4.694603   294A      4.713005   295A      4.744364  
     296A      4.752898   297A      4.780699   298A      4.805029  
     299A      4.829198   300A      4.853881   301A      4.867915  
     302A      4.896907   303A      4.907604   304A      4.918768  
     305A      4.942850   306A      4.955537   307A      4.961027  
     308A      4.990174   309A      5.030653   310A      5.061951  
     311A      5.128622   312A      5.142740   313A      5.185566  
     314A      5.279034   315A      5.403919   316A      5.453789  
     317A      5.476879   318A      5.490083   319A      5.512202  
     320A      5.525226   321A      5.568182   322A      5.576657  
     323A      5.604938   324A      5.640248   325A      5.683378  
     326A      5.711071   327A      5.740209   328A      5.805243  
     329A      5.895893   330A      5.945925   331A      6.070108  
     332A      6.142365   333A      6.157959   334A      6.209491  
     335A      6.260843   336A      6.300065   337A      6.372838  
     338A      6.455848   339A      6.609489   340A      6.686216  
     341A      6.710158   342A      6.766198   343A      6.960166  
     344A      7.035722   345A      7.048208   346A      7.140494  
     347A      7.518576   348A      7.522447   349A      7.535496  
     350A      7.595226   351A      7.614959   352A      7.699437  
     353A      7.715227   354A      7.788687   355A      7.880775  
     356A      7.904135   357A      7.920562   358A      7.941034  
     359A      7.975846   360A      8.026774   361A      8.070913  
     362A      8.087778   363A      8.119966   364A      8.145701  
     365A      8.170537   366A      8.185371   367A      8.588075  
     368A      8.627687   369A      8.696505   370A      8.727274  
     371A      8.760405   372A      8.775653   373A      8.818404  
     374A      8.844702   375A      9.649450   376A      9.661154  
     377A      9.676419   378A      9.716766   379A      9.744942  
     380A      9.754785   381A      9.758040   382A      9.780234  
     383A      9.798180   384A      9.811581   385A      9.823186  
     386A      9.850479   387A      9.948683   388A      9.995883  
     389A     10.018695   390A     10.036691   391A     10.979315  
     392A     11.164075   393A     11.196746   394A     11.223385  
     395A     11.646543   396A     11.656982   397A     11.689270  
     398A     11.708366   399A     12.245742   400A     12.251969  
     401A     12.424220   402A     12.457730   403A     13.531901  
     404A     13.567415   405A     13.640090   406A     13.661932  
     407A     13.688773   408A     13.698078   409A     13.730909  
     410A     13.786418   411A     66.444356   412A     66.715802  
     413A     67.179875   414A     67.385439  

    Final Occupation by Irrep:
              A 
    DOCC [     1 ]
    NA   [     1 ]
    NB   [     1 ]

  @DF-RHF Final Energy:    -7.23638496582840

   => Energetics <=

    Nuclear Repulsion Energy =              0.0000000000000000
    One-Electron Energy =                  -8.8880673035955606
    Two-Electron Energy =                   1.6516823377671557
    Total Energy =                         -7.2363849658284050

Computation Completed


Properties will be evaluated at   0.000000,   0.000000,   0.000000 [a0]

Properties computed using the SCF density matrix


 Multipole Moments:

 ------------------------------------------------------------------------------------
     Multipole            Electronic (a.u.)      Nuclear  (a.u.)        Total (a.u.)
 ------------------------------------------------------------------------------------

 L = 1.  Multiply by 2.5417464519 to convert [e a0] to [Debye]
 Dipole X            :          0.0000019            0.0000000            0.0000019
 Dipole Y            :          0.0000040            0.0000000            0.0000040
 Dipole Z            :          0.0000031            0.0000000            0.0000031
 Magnitude           :                                                    0.0000055

 ------------------------------------------------------------------------------------

*** tstop() called on ddmfs1 at Mon Jan 22 13:34:25 2024
Module time:
	user time   =      39.82 seconds =       0.66 minutes
	system time =       2.31 seconds =       0.04 minutes
	total time  =          2 seconds =       0.03 minutes
Total time:
	user time   =      39.82 seconds =       0.66 minutes
	system time =       2.31 seconds =       0.04 minutes
	total time  =          2 seconds =       0.03 minutes

*** tstart() called on ddmfs1
*** at Mon Jan 22 13:34:25 2024


  //>>>>>>>>>>>>>>>>>>>>>>>>>>>>>>>>>>>//
  //               DFMP2               //
  //<<<<<<<<<<<<<<<<<<<<<<<<<<<<<<<<<<<//

   => Loading Basis Set <=

    Name: (AUG-CC-PVTZ AUX)
    Role: RIFIT
    Keyword: DF_BASIS_MP2
    atoms 1                     entry LI         line    90 file /ddmfs1b/softs/psi4conda/share/psi4/basis/def2-qzvpp-ri.gbs 
    atoms 2, 5, 8, 11           entry O          line   264 file /ddmfs1b/softs/psi4conda/share/psi4/basis/aug-cc-pvtz-ri.gbs 
    atoms 3-4, 6-7, 9-10, 12-13 entry H          line    30 file /ddmfs1b/softs/psi4conda/share/psi4/basis/aug-cc-pvtz-ri.gbs 

	 --------------------------------------------------------
	                          DF-MP2                         
	      2nd-Order Density-Fitted Moller-Plesset Theory     
	              RMP2 Wavefunction,  20 Threads             
	                                                         
	        Rob Parrish, Justin Turney, Andy Simmonett,      
	           Ed Hohenstein, and C. David Sherrill          
	 --------------------------------------------------------

   => Auxiliary Basis Set <=

  Basis Set: (AUG-CC-PVTZ AUX)
    Blend: AUG-CC-PVTZ-RI + DEF2-QZVPP-RI
    Number of shells: 251
    Number of basis functions: 893
    Number of Cartesian functions: 1114
    Spherical Harmonics?: true
    Max angular momentum: 4

	 --------------------------------------------------------
	                 NBF =   414, NAUX =   893
	 --------------------------------------------------------
	   CLASS    FOCC     OCC    AOCC    AVIR     VIR    FVIR
	   PAIRS       0       1       1     413     413       0
	 --------------------------------------------------------

	-----------------------------------------------------------
	 ==================> DF-MP2 Energies <==================== 
	-----------------------------------------------------------
	 Reference Energy          =      -7.2363849658284050 [Eh]
	 Singles Energy            =      -0.0000000000000000 [Eh]
	 Same-Spin Energy          =       0.0000000000000000 [Eh]
	 Opposite-Spin Energy      =      -0.0180296878192434 [Eh]
	 Correlation Energy        =      -0.0180296878192434 [Eh]
	 Total Energy              =      -7.2544146536476486 [Eh]
	-----------------------------------------------------------
	 ================> DF-SCS-MP2 Energies <================== 
	-----------------------------------------------------------
	 SCS Same-Spin Scale       =       0.3333333333333333 [-]
	 SCS Opposite-Spin Scale   =       1.2000000000000000 [-]
	 SCS Same-Spin Energy      =       0.0000000000000000 [Eh]
	 SCS Opposite-Spin Energy  =      -0.0216356253830921 [Eh]
	 SCS Correlation Energy    =      -0.0216356253830921 [Eh]
	 SCS Total Energy          =      -7.2580205912114968 [Eh]
	-----------------------------------------------------------


*** tstop() called on ddmfs1 at Mon Jan 22 13:34:28 2024
Module time:
	user time   =      15.56 seconds =       0.26 minutes
	system time =       0.79 seconds =       0.01 minutes
	total time  =          3 seconds =       0.05 minutes
Total time:
	user time   =      55.39 seconds =       0.92 minutes
	system time =       3.10 seconds =       0.05 minutes
	total time  =          5 seconds =       0.08 minutes

    Psi4 stopped on: Monday, 22 January 2024 01:34PM
    Psi4 wall time for execution: 0:00:05.29

*** Psi4 exiting successfully. Buy a developer a beer!
