
    -----------------------------------------------------------------------
          Psi4: An Open-Source Ab Initio Electronic Structure Package
                               Psi4 1.8.2 release

                         Git: Rev {} zzzzzzz 


    D. G. A. Smith, L. A. Burns, A. C. Simmonett, R. M. Parrish,
    M. C. Schieber, R. Galvelis, P. Kraus, H. Kruse, R. Di Remigio,
    A. Alenaizan, A. M. James, S. Lehtola, J. P. Misiewicz, M. Scheurer,
    R. A. Shaw, J. B. Schriber, Y. Xie, Z. L. Glick, D. A. Sirianni,
    J. S. O'Brien, J. M. Waldrop, A. Kumar, E. G. Hohenstein,
    B. P. Pritchard, B. R. Brooks, H. F. Schaefer III, A. Yu. Sokolov,
    K. Patkowski, A. E. DePrince III, U. Bozkaya, R. A. King,
    F. A. Evangelista, J. M. Turney, T. D. Crawford, C. D. Sherrill,
    J. Chem. Phys. 152(18) 184108 (2020). https://doi.org/10.1063/5.0006002

                            Additional Code Authors
    E. T. Seidl, C. L. Janssen, E. F. Valeev, M. L. Leininger,
    J. F. Gonthier, R. M. Richard, H. R. McAlexander, M. Saitow, X. Wang,
    P. Verma, M. H. Lechner, A. Jiang, S. Behnle, A. G. Heide,
    M. F. Herbst, and D. L. Poole

             Previous Authors, Complete List of Code Contributors,
                       and Citations for Specific Modules
    https://github.com/psi4/psi4/blob/master/codemeta.json
    https://github.com/psi4/psi4/graphs/contributors
    http://psicode.org/psi4manual/master/introduction.html#citing-psifour

    -----------------------------------------------------------------------


    Psi4 started on: Monday, 22 January 2024 12:56PM

    Process ID: 52229
    Host:       ddmfs1
    PSIDATADIR: /ddmfs1b/softs/psi4conda/share/psi4
    Memory:     500.0 MiB
    Threads:    20
    
  ==> Input File <==

--------------------------------------------------------------------------
MEMORY 60 GB

molecule dimer {
1 1
Li         0.000000     0.000000     0.000000
O          0.552963    -1.749645     0.131307
H          1.284114    -2.048599    -0.399136
H          0.552090    -2.127656     1.036364
O          1.541907     1.226823    -0.519578
H          1.551480     2.047459     0.018367
H          1.441348     1.555636    -1.465228
O         -0.063798     0.553262     1.985834
H          0.380477     1.157738     2.576072
H         -0.932985     0.385820     2.447181
O         -1.255138     0.486686    -1.137426
H         -1.106484     0.045005    -1.941916
H         -1.576557     1.362913    -1.297025

units ang
no_reorient
no_com
symmetry c1
}

set {
basis        aug-cc-pVTZ
scf_type     df
}

energy("mp2")
--------------------------------------------------------------------------

  Memory set to  55.879 GiB by Python driver.

Scratch directory: /ddmfs1a/scratch/
   => Libint2 <=

    Primary   basis highest AM E, G, H:  5, 4, 3
    Auxiliary basis highest AM E, G, H:  6, 5, 4
    Onebody   basis highest AM E, G, H:  6, 5, 4
    Solid Harmonics ordering:            gaussian

*** tstart() called on ddmfs1
*** at Mon Jan 22 12:56:53 2024

   => Loading Basis Set <=

    Name: AUG-CC-PVTZ
    Role: ORBITAL
    Keyword: BASIS
    atoms 1                     entry LI         line    85 file /ddmfs1b/softs/psi4conda/share/psi4/basis/aug-cc-pvtz.gbs 
    atoms 2, 5, 8, 11           entry O          line   331 file /ddmfs1b/softs/psi4conda/share/psi4/basis/aug-cc-pvtz.gbs 
    atoms 3-4, 6-7, 9-10, 12-13 entry H          line    40 file /ddmfs1b/softs/psi4conda/share/psi4/basis/aug-cc-pvtz.gbs 


         ---------------------------------------------------------
                                   SCF
               by Justin Turney, Rob Parrish, Andy Simmonett
                          and Daniel G. A. Smith
                              RHF Reference
                       20 Threads,  57220 MiB Core
         ---------------------------------------------------------

  ==> Geometry <==

    Molecular point group: c1
    Full point group: C1

    Geometry (in Angstrom), charge = 1, multiplicity = 1:

       Center              X                  Y                   Z               Mass       
    ------------   -----------------  -----------------  -----------------  -----------------
         LI           0.000000000000     0.000000000000     0.000000000000     7.016003436600
         O            0.552963000000    -1.749645000000     0.131307000000    15.994914619570
         H            1.284114000000    -2.048599000000    -0.399136000000     1.007825032230
         H            0.552090000000    -2.127656000000     1.036364000000     1.007825032230
         O            1.541907000000     1.226823000000    -0.519578000000    15.994914619570
         H            1.551480000000     2.047459000000     0.018367000000     1.007825032230
         H            1.441348000000     1.555636000000    -1.465228000000     1.007825032230
         O           -0.063798000000     0.553262000000     1.985834000000    15.994914619570
         H            0.380477000000     1.157738000000     2.576072000000     1.007825032230
         H           -0.932985000000     0.385820000000     2.447181000000     1.007825032230
         O           -1.255138000000     0.486686000000    -1.137426000000    15.994914619570
         H           -1.106484000000     0.045005000000    -1.941916000000     1.007825032230
         H           -1.576557000000     1.362913000000    -1.297025000000     1.007825032230

  Running in c1 symmetry.

  Rotational constants: A =      0.09637  B =      0.08864  C =      0.07846 [cm^-1]
  Rotational constants: A =   2889.15668  B =   2657.47008  C =   2352.17047 [MHz]
  Nuclear repulsion =  165.065936631189487

  Charge       = 1
  Multiplicity = 1
  Electrons    = 42
  Nalpha       = 21
  Nbeta        = 21

  ==> Algorithm <==

  SCF Algorithm Type is DF.
  DIIS enabled.
  MOM disabled.
  Fractional occupation disabled.
  Guess Type is SAD.
  Energy threshold   = 1.00e-08
  Density threshold  = 1.00e-08
  Integral threshold = 1.00e-12

  ==> Primary Basis <==

  Basis Set: AUG-CC-PVTZ
    Blend: AUG-CC-PVTZ
    Number of shells: 142
    Number of basis functions: 414
    Number of Cartesian functions: 475
    Spherical Harmonics?: true
    Max angular momentum: 3

   => Loading Basis Set <=

    Name: (AUG-CC-PVTZ AUX)
    Role: JKFIT
    Keyword: DF_BASIS_SCF
    atoms 1                     entry LI         line    54 file /ddmfs1b/softs/psi4conda/share/psi4/basis/def2-universal-jkfit.gbs 
    atoms 2, 5, 8, 11           entry O          line   286 file /ddmfs1b/softs/psi4conda/share/psi4/basis/aug-cc-pvtz-jkfit.gbs 
    atoms 3-4, 6-7, 9-10, 12-13 entry H          line    70 file /ddmfs1b/softs/psi4conda/share/psi4/basis/aug-cc-pvtz-jkfit.gbs 

  ==> Integral Setup <==

  DFHelper Memory: AOs need 1.087 GiB; user supplied 41.910 GiB. 
  Using in-core AOs.

  ==> MemDFJK: Density-Fitted J/K Matrices <==

    J tasked:                   Yes
    K tasked:                   Yes
    wK tasked:                   No
    OpenMP threads:              20
    Memory [MiB]:             42915
    Algorithm:                 Core
    Schwarz Cutoff:           1E-12
    Mask sparsity (%):       4.1436
    Fitting Condition:        1E-10

   => Auxiliary Basis Set <=

  Basis Set: (AUG-CC-PVTZ AUX)
    Blend: AUG-CC-PVTZ-JKFIT + DEF2-UNIVERSAL-JKFIT
    Number of shells: 249
    Number of basis functions: 835
    Number of Cartesian functions: 1024
    Spherical Harmonics?: true
    Max angular momentum: 4

  Minimum eigenvalue in the overlap matrix is 1.3804830737E-05.
  Reciprocal condition number of the overlap matrix is 9.4910069568E-07.
    Using symmetric orthogonalization.

  ==> Pre-Iterations <==

  SCF Guess: Superposition of Atomic Densities via on-the-fly atomic UHF (no occupation information).

   -------------------------
    Irrep   Nso     Nmo    
   -------------------------
     A        414     414 
   -------------------------
    Total     414     414
   -------------------------

  ==> Iterations <==

                           Total Energy        Delta E     RMS |[F,P]|

   @DF-RHF iter SAD:  -309.58654305702998   -3.09587e+02   0.00000e+00 
   @DF-RHF iter   1:  -311.26902418839387   -1.68248e+00   2.31383e-03 DIIS/ADIIS
   @DF-RHF iter   2:  -311.49791623191510   -2.28892e-01   1.49931e-03 DIIS/ADIIS
   @DF-RHF iter   3:  -311.61667258673816   -1.18756e-01   1.14395e-04 DIIS/ADIIS
   @DF-RHF iter   4:  -311.61837607193542   -1.70349e-03   3.29067e-05 DIIS
   @DF-RHF iter   5:  -311.61849921552567   -1.23144e-04   1.11423e-05 DIIS
   @DF-RHF iter   6:  -311.61851295044335   -1.37349e-05   3.69474e-06 DIIS
   @DF-RHF iter   7:  -311.61851480404641   -1.85360e-06   6.74353e-07 DIIS
   @DF-RHF iter   8:  -311.61851490624866   -1.02202e-07   1.57715e-07 DIIS
   @DF-RHF iter   9:  -311.61851490954604   -3.29737e-09   6.47612e-08 DIIS
   @DF-RHF iter  10:  -311.61851490994508   -3.99041e-10   1.12026e-08 DIIS
   @DF-RHF iter  11:  -311.61851490996503   -1.99520e-11   3.21088e-09 DIIS
  Energy and wave function converged.


  ==> Post-Iterations <==

    Orbital Energies [Eh]
    ---------------------

    Doubly Occupied:                                                      

       1A    -20.753917     2A    -20.747917     3A    -20.746650  
       4A    -20.740925     5A     -2.522469     6A     -1.562235  
       7A     -1.529023     8A     -1.526111     9A     -1.514839  
      10A     -0.938469    11A     -0.910029    12A     -0.885923  
      13A     -0.873569    14A     -0.801790    15A     -0.786752  
      16A     -0.769661    17A     -0.763694    18A     -0.724863  
      19A     -0.698499    20A     -0.689452    21A     -0.682143  

    Virtual:                                                              

      22A     -0.101253    23A     -0.079877    24A     -0.075109  
      25A     -0.069501    26A     -0.048283    27A     -0.045349  
      28A     -0.043559    29A     -0.041810    30A     -0.040243  
      31A     -0.031443    32A     -0.029470    33A     -0.029171  
      34A     -0.023394    35A     -0.012101    36A     -0.003812  
      37A      0.001915    38A      0.024447    39A      0.024972  
      40A      0.036731    41A      0.041859    42A      0.044964  
      43A      0.050232    44A      0.053283    45A      0.055517  
      46A      0.057259    47A      0.063377    48A      0.064013  
      49A      0.070467    50A      0.075283    51A      0.089704  
      52A      0.093738    53A      0.099129    54A      0.109922  
      55A      0.114054    56A      0.124881    57A      0.127346  
      58A      0.135144    59A      0.150415    60A      0.157656  
      61A      0.170060    62A      0.178564    63A      0.189684  
      64A      0.197553    65A      0.204258    66A      0.208182  
      67A      0.217193    68A      0.226671    69A      0.232307  
      70A      0.237725    71A      0.244944    72A      0.253148  
      73A      0.256370    74A      0.260418    75A      0.264649  
      76A      0.271262    77A      0.276674    78A      0.281701  
      79A      0.289064    80A      0.292739    81A      0.300213  
      82A      0.305047    83A      0.311546    84A      0.316660  
      85A      0.322187    86A      0.327166    87A      0.330623  
      88A      0.342515    89A      0.345884    90A      0.350945  
      91A      0.357606    92A      0.362669    93A      0.368172  
      94A      0.372716    95A      0.375539    96A      0.382660  
      97A      0.387553    98A      0.394561    99A      0.403067  
     100A      0.410713   101A      0.417522   102A      0.423975  
     103A      0.431711   104A      0.440263   105A      0.458325  
     106A      0.475209   107A      0.510710   108A      0.536611  
     109A      0.544429   110A      0.582349   111A      0.585040  
     112A      0.586896   113A      0.602620   114A      0.610712  
     115A      0.619327   116A      0.621968   117A      0.633083  
     118A      0.639835   119A      0.655964   120A      0.671545  
     121A      0.676942   122A      0.698520   123A      0.704135  
     124A      0.706302   125A      0.723009   126A      0.737753  
     127A      0.744467   128A      0.750656   129A      0.757934  
     130A      0.773829   131A      0.775964   132A      0.786824  
     133A      0.788137   134A      0.792916   135A      0.805731  
     136A      0.813014   137A      0.816752   138A      0.829085  
     139A      0.836731   140A      0.844820   141A      0.848466  
     142A      0.860665   143A      0.873007   144A      0.881047  
     145A      0.891272   146A      0.904080   147A      0.905788  
     148A      0.912817   149A      0.918313   150A      0.925843  
     151A      0.935720   152A      0.946724   153A      0.951314  
     154A      0.955201   155A      0.967151   156A      0.972902  
     157A      0.980606   158A      0.984318   159A      0.993288  
     160A      0.997415   161A      1.015231   162A      1.023509  
     163A      1.031091   164A      1.037460   165A      1.040169  
     166A      1.046022   167A      1.062552   168A      1.080112  
     169A      1.099031   170A      1.101825   171A      1.108505  
     172A      1.130511   173A      1.132999   174A      1.145027  
     175A      1.156658   176A      1.170755   177A      1.176051  
     178A      1.195095   179A      1.206538   180A      1.215387  
     181A      1.222262   182A      1.233806   183A      1.263259  
     184A      1.286697   185A      1.292018   186A      1.309147  
     187A      1.317337   188A      1.348877   189A      1.360734  
     190A      1.381865   191A      1.403966   192A      1.409512  
     193A      1.431589   194A      1.452367   195A      1.484601  
     196A      1.502251   197A      1.523106   198A      1.533725  
     199A      1.541234   200A      1.548758   201A      1.568125  
     202A      1.580921   203A      1.621219   204A      1.626678  
     205A      1.634788   206A      1.649540   207A      1.665034  
     208A      1.677481   209A      1.692423   210A      1.706100  
     211A      1.712376   212A      1.724816   213A      1.751132  
     214A      1.775568   215A      1.782782   216A      1.821180  
     217A      1.845210   218A      1.857310   219A      1.880864  
     220A      1.887740   221A      1.916093   222A      1.941922  
     223A      1.953235   224A      1.968479   225A      2.019152  
     226A      2.045468   227A      2.066406   228A      2.085471  
     229A      2.115958   230A      2.184453   231A      2.206499  
     232A      2.224965   233A      2.235759   234A      2.250268  
     235A      2.266819   236A      2.278620   237A      2.289985  
     238A      2.326230   239A      2.360923   240A      2.365781  
     241A      2.384966   242A      2.398284   243A      2.415110  
     244A      2.417328   245A      2.433306   246A      2.454422  
     247A      2.488892   248A      2.503716   249A      2.513970  
     250A      2.528521   251A      2.566894   252A      2.587521  
     253A      2.592692   254A      2.612282   255A      2.612989  
     256A      2.630720   257A      2.635016   258A      2.653468  
     259A      2.675787   260A      2.680861   261A      2.698591  
     262A      2.707156   263A      2.726385   264A      2.731784  
     265A      2.755666   266A      2.781480   267A      2.802467  
     268A      2.812084   269A      2.823314   270A      2.833972  
     271A      2.851662   272A      2.895707   273A      2.900778  
     274A      2.929560   275A      2.985531   276A      3.058691  
     277A      3.092134   278A      3.615474   279A      3.677065  
     280A      3.706995   281A      3.709005   282A      3.761549  
     283A      3.784180   284A      3.804086   285A      3.888603  
     286A      3.918156   287A      3.956903   288A      3.975936  
     289A      4.003772   290A      4.060562   291A      4.078892  
     292A      4.092490   293A      4.101321   294A      4.131405  
     295A      4.146874   296A      4.175457   297A      4.182345  
     298A      4.196492   299A      4.224865   300A      4.230260  
     301A      4.260583   302A      4.271724   303A      4.283761  
     304A      4.319634   305A      4.340289   306A      4.364076  
     307A      4.370167   308A      4.380559   309A      4.398416  
     310A      4.431345   311A      4.443333   312A      4.460954  
     313A      4.469873   314A      4.475925   315A      4.487317  
     316A      4.508576   317A      4.521727   318A      4.536826  
     319A      4.569568   320A      4.585561   321A      4.598646  
     322A      4.622312   323A      4.669707   324A      4.683958  
     325A      4.688945   326A      4.697221   327A      4.739712  
     328A      4.757886   329A      4.784862   330A      4.937455  
     331A      4.955797   332A      4.973195   333A      4.981388  
     334A      5.017655   335A      5.028602   336A      5.087309  
     337A      5.109577   338A      5.147229   339A      5.157200  
     340A      5.172951   341A      5.190407   342A      5.228212  
     343A      5.259004   344A      5.282593   345A      5.313337  
     346A      5.326176   347A      5.395516   348A      5.421359  
     349A      5.472443   350A      5.535371   351A      5.617775  
     352A      5.705490   353A      5.796684   354A      5.810965  
     355A      6.101975   356A      6.124765   357A      6.201496  
     358A      6.226078   359A      6.456380   360A      6.490123  
     361A      6.497874   362A      6.515789   363A      6.635853  
     364A      6.645292   365A      6.695694   366A      6.727523  
     367A      6.767919   368A      6.808739   369A      6.834989  
     370A      6.870129   371A      6.983250   372A      6.997480  
     373A      7.047138   374A      7.080356   375A      7.109550  
     376A      7.119516   377A      7.139245   378A      7.142293  
     379A      7.160263   380A      7.166807   381A      7.176174  
     382A      7.200703   383A      7.224660   384A      7.233795  
     385A      7.251429   386A      7.257911   387A      7.275468  
     388A      7.288886   389A      7.297786   390A      7.323526  
     391A      7.333706   392A      7.364180   393A      7.391430  
     394A      7.396523   395A      7.465070   396A      7.501584  
     397A      7.558379   398A      7.662563   399A      7.705097  
     400A      7.715839   401A      7.732154   402A      7.787121  
     403A      7.825931   404A      7.843663   405A      7.869679  
     406A      7.891326   407A      8.588859   408A      8.640572  
     409A      8.654173   410A      8.815662   411A     15.137341  
     412A     15.555184   413A     16.077596   414A     17.009262  

    Final Occupation by Irrep:
              A 
    DOCC [    21 ]
    NA   [    21 ]
    NB   [    21 ]

  @DF-RHF Final Energy:  -311.61851490996503

   => Energetics <=

    Nuclear Repulsion Energy =            165.0659366311894871
    One-Electron Energy =                -751.0310399516979487
    Two-Electron Energy =                 274.3465884105434043
    Total Energy =                       -311.6185149099650289

Computation Completed


Properties will be evaluated at   0.000000,   0.000000,   0.000000 [a0]

Properties computed using the SCF density matrix


 Multipole Moments:

 ------------------------------------------------------------------------------------
     Multipole            Electronic (a.u.)      Nuclear  (a.u.)        Total (a.u.)
 ------------------------------------------------------------------------------------

 L = 1.  Multiply by 2.5417464519 to convert [e a0] to [Debye]
 Dipole X            :        -14.6187880           14.7416685            0.1228805
 Dipole Y            :        -11.3610860           12.3121780            0.9510920
 Dipole Z            :         -8.6996665            8.7981397            0.0984731
 Magnitude           :                                                    0.9640397

 ------------------------------------------------------------------------------------

*** tstop() called on ddmfs1 at Mon Jan 22 12:56:57 2024
Module time:
	user time   =      74.23 seconds =       1.24 minutes
	system time =       3.75 seconds =       0.06 minutes
	total time  =          4 seconds =       0.07 minutes
Total time:
	user time   =      74.23 seconds =       1.24 minutes
	system time =       3.75 seconds =       0.06 minutes
	total time  =          4 seconds =       0.07 minutes

*** tstart() called on ddmfs1
*** at Mon Jan 22 12:56:57 2024


  //>>>>>>>>>>>>>>>>>>>>>>>>>>>>>>>>>>>//
  //               DFMP2               //
  //<<<<<<<<<<<<<<<<<<<<<<<<<<<<<<<<<<<//

   => Loading Basis Set <=

    Name: (AUG-CC-PVTZ AUX)
    Role: RIFIT
    Keyword: DF_BASIS_MP2
    atoms 1                     entry LI         line    90 file /ddmfs1b/softs/psi4conda/share/psi4/basis/def2-qzvpp-ri.gbs 
    atoms 2, 5, 8, 11           entry O          line   264 file /ddmfs1b/softs/psi4conda/share/psi4/basis/aug-cc-pvtz-ri.gbs 
    atoms 3-4, 6-7, 9-10, 12-13 entry H          line    30 file /ddmfs1b/softs/psi4conda/share/psi4/basis/aug-cc-pvtz-ri.gbs 

	 --------------------------------------------------------
	                          DF-MP2                         
	      2nd-Order Density-Fitted Moller-Plesset Theory     
	              RMP2 Wavefunction,  20 Threads             
	                                                         
	        Rob Parrish, Justin Turney, Andy Simmonett,      
	           Ed Hohenstein, and C. David Sherrill          
	 --------------------------------------------------------

   => Auxiliary Basis Set <=

  Basis Set: (AUG-CC-PVTZ AUX)
    Blend: AUG-CC-PVTZ-RI + DEF2-QZVPP-RI
    Number of shells: 251
    Number of basis functions: 893
    Number of Cartesian functions: 1114
    Spherical Harmonics?: true
    Max angular momentum: 4

	 --------------------------------------------------------
	                 NBF =   414, NAUX =   893
	 --------------------------------------------------------
	   CLASS    FOCC     OCC    AOCC    AVIR     VIR    FVIR
	   PAIRS       0      21      21     393     393       0
	 --------------------------------------------------------

	-----------------------------------------------------------
	 ==================> DF-MP2 Energies <==================== 
	-----------------------------------------------------------
	 Reference Energy          =    -311.6185149099650289 [Eh]
	 Singles Energy            =      -0.0000000000000000 [Eh]
	 Same-Spin Energy          =      -0.2758854226852886 [Eh]
	 Opposite-Spin Energy      =      -0.8793590658774888 [Eh]
	 Correlation Energy        =      -1.1552444885627775 [Eh]
	 Total Energy              =    -312.7737593985278295 [Eh]
	-----------------------------------------------------------
	 ================> DF-SCS-MP2 Energies <================== 
	-----------------------------------------------------------
	 SCS Same-Spin Scale       =       0.3333333333333333 [-]
	 SCS Opposite-Spin Scale   =       1.2000000000000000 [-]
	 SCS Same-Spin Energy      =      -0.0919618075617629 [Eh]
	 SCS Opposite-Spin Energy  =      -1.0552308790529865 [Eh]
	 SCS Correlation Energy    =      -1.1471926866147495 [Eh]
	 SCS Total Energy          =    -312.7657075965797731 [Eh]
	-----------------------------------------------------------


*** tstop() called on ddmfs1 at Mon Jan 22 12:57:00 2024
Module time:
	user time   =      23.20 seconds =       0.39 minutes
	system time =       1.16 seconds =       0.02 minutes
	total time  =          3 seconds =       0.05 minutes
Total time:
	user time   =      97.45 seconds =       1.62 minutes
	system time =       4.91 seconds =       0.08 minutes
	total time  =          7 seconds =       0.12 minutes

    Psi4 stopped on: Monday, 22 January 2024 12:57PM
    Psi4 wall time for execution: 0:00:07.51

*** Psi4 exiting successfully. Buy a developer a beer!
