
    -----------------------------------------------------------------------
          Psi4: An Open-Source Ab Initio Electronic Structure Package
                               Psi4 1.8.2 release

                         Git: Rev {} zzzzzzz 


    D. G. A. Smith, L. A. Burns, A. C. Simmonett, R. M. Parrish,
    M. C. Schieber, R. Galvelis, P. Kraus, H. Kruse, R. Di Remigio,
    A. Alenaizan, A. M. James, S. Lehtola, J. P. Misiewicz, M. Scheurer,
    R. A. Shaw, J. B. Schriber, Y. Xie, Z. L. Glick, D. A. Sirianni,
    J. S. O'Brien, J. M. Waldrop, A. Kumar, E. G. Hohenstein,
    B. P. Pritchard, B. R. Brooks, H. F. Schaefer III, A. Yu. Sokolov,
    K. Patkowski, A. E. DePrince III, U. Bozkaya, R. A. King,
    F. A. Evangelista, J. M. Turney, T. D. Crawford, C. D. Sherrill,
    J. Chem. Phys. 152(18) 184108 (2020). https://doi.org/10.1063/5.0006002

                            Additional Code Authors
    E. T. Seidl, C. L. Janssen, E. F. Valeev, M. L. Leininger,
    J. F. Gonthier, R. M. Richard, H. R. McAlexander, M. Saitow, X. Wang,
    P. Verma, M. H. Lechner, A. Jiang, S. Behnle, A. G. Heide,
    M. F. Herbst, and D. L. Poole

             Previous Authors, Complete List of Code Contributors,
                       and Citations for Specific Modules
    https://github.com/psi4/psi4/blob/master/codemeta.json
    https://github.com/psi4/psi4/graphs/contributors
    http://psicode.org/psi4manual/master/introduction.html#citing-psifour

    -----------------------------------------------------------------------


    Psi4 started on: Monday, 22 January 2024 12:58PM

    Process ID: 52622
    Host:       ddmfs1
    PSIDATADIR: /ddmfs1b/softs/psi4conda/share/psi4
    Memory:     500.0 MiB
    Threads:    20
    
  ==> Input File <==

--------------------------------------------------------------------------
MEMORY 60 GB

molecule dimer {
0 1
Gh(Li)     0.000000     0.000000     0.000000
O         -0.807644    -1.260844     1.138757
H         -1.635519    -1.682311     1.327527
H         -0.286736    -1.509910     1.936379
Gh(O)      1.759330    -0.684963    -0.247588
Gh(H)      2.421120    -1.170058     0.269103
Gh(H)      2.085332    -0.643141    -1.168976
Gh(O)      0.088216     1.807821     0.564857
Gh(H)      0.651141     1.422611     1.287139
Gh(H)     -0.618624     2.368710     0.980290
Gh(O)     -1.057908    -0.426688    -1.597347
Gh(H)     -0.748099    -0.459222    -2.547429
Gh(H)     -1.560666    -1.268597    -1.484747

units ang
no_reorient
no_com
symmetry c1
}

set {
basis        aug-cc-pVTZ
scf_type     df
}

energy("mp2")
--------------------------------------------------------------------------

  Memory set to  55.879 GiB by Python driver.

Scratch directory: /ddmfs1a/scratch/
   => Libint2 <=

    Primary   basis highest AM E, G, H:  5, 4, 3
    Auxiliary basis highest AM E, G, H:  6, 5, 4
    Onebody   basis highest AM E, G, H:  6, 5, 4
    Solid Harmonics ordering:            gaussian

*** tstart() called on ddmfs1
*** at Mon Jan 22 12:58:33 2024

   => Loading Basis Set <=

    Name: AUG-CC-PVTZ
    Role: ORBITAL
    Keyword: BASIS
    atoms 1                     entry LI         line    85 file /ddmfs1b/softs/psi4conda/share/psi4/basis/aug-cc-pvtz.gbs 
    atoms 2, 5, 8, 11           entry O          line   331 file /ddmfs1b/softs/psi4conda/share/psi4/basis/aug-cc-pvtz.gbs 
    atoms 3-4, 6-7, 9-10, 12-13 entry H          line    40 file /ddmfs1b/softs/psi4conda/share/psi4/basis/aug-cc-pvtz.gbs 


         ---------------------------------------------------------
                                   SCF
               by Justin Turney, Rob Parrish, Andy Simmonett
                          and Daniel G. A. Smith
                              RHF Reference
                       20 Threads,  57220 MiB Core
         ---------------------------------------------------------

  ==> Geometry <==

    Molecular point group: c1
    Full point group: C1

    Geometry (in Angstrom), charge = 0, multiplicity = 1:

       Center              X                  Y                   Z               Mass       
    ------------   -----------------  -----------------  -----------------  -----------------
      Gh(LI)          0.000000000000     0.000000000000     0.000000000000     7.016003436600
         O           -0.807644000000    -1.260844000000     1.138757000000    15.994914619570
         H           -1.635519000000    -1.682311000000     1.327527000000     1.007825032230
         H           -0.286736000000    -1.509910000000     1.936379000000     1.007825032230
      Gh(O)           1.759330000000    -0.684963000000    -0.247588000000    15.994914619570
      Gh(H)           2.421120000000    -1.170058000000     0.269103000000     1.007825032230
      Gh(H)           2.085332000000    -0.643141000000    -1.168976000000     1.007825032230
      Gh(O)           0.088216000000     1.807821000000     0.564857000000    15.994914619570
      Gh(H)           0.651141000000     1.422611000000     1.287139000000     1.007825032230
      Gh(H)          -0.618624000000     2.368710000000     0.980290000000     1.007825032230
      Gh(O)          -1.057908000000    -0.426688000000    -1.597347000000    15.994914619570
      Gh(H)          -0.748099000000    -0.459222000000    -2.547429000000     1.007825032230
      Gh(H)          -1.560666000000    -1.268597000000    -1.484747000000     1.007825032230

  Running in c1 symmetry.

  Rotational constants: A =      0.09793  B =      0.08657  C =      0.08258 [cm^-1]
  Rotational constants: A =   2936.01475  B =   2595.28347  C =   2475.55670 [MHz]
  Nuclear repulsion =    9.120280659653869

  Charge       = 0
  Multiplicity = 1
  Electrons    = 10
  Nalpha       = 5
  Nbeta        = 5

  ==> Algorithm <==

  SCF Algorithm Type is DF.
  DIIS enabled.
  MOM disabled.
  Fractional occupation disabled.
  Guess Type is SAD.
  Energy threshold   = 1.00e-08
  Density threshold  = 1.00e-08
  Integral threshold = 1.00e-12

  ==> Primary Basis <==

  Basis Set: AUG-CC-PVTZ
    Blend: AUG-CC-PVTZ
    Number of shells: 142
    Number of basis functions: 414
    Number of Cartesian functions: 475
    Spherical Harmonics?: true
    Max angular momentum: 3

   => Loading Basis Set <=

    Name: (AUG-CC-PVTZ AUX)
    Role: JKFIT
    Keyword: DF_BASIS_SCF
    atoms 1                     entry LI         line    54 file /ddmfs1b/softs/psi4conda/share/psi4/basis/def2-universal-jkfit.gbs 
    atoms 2, 5, 8, 11           entry O          line   286 file /ddmfs1b/softs/psi4conda/share/psi4/basis/aug-cc-pvtz-jkfit.gbs 
    atoms 3-4, 6-7, 9-10, 12-13 entry H          line    70 file /ddmfs1b/softs/psi4conda/share/psi4/basis/aug-cc-pvtz-jkfit.gbs 

  ==> Integral Setup <==

  DFHelper Memory: AOs need 1.087 GiB; user supplied 41.910 GiB. 
  Using in-core AOs.

  ==> MemDFJK: Density-Fitted J/K Matrices <==

    J tasked:                   Yes
    K tasked:                   Yes
    wK tasked:                   No
    OpenMP threads:              20
    Memory [MiB]:             42915
    Algorithm:                 Core
    Schwarz Cutoff:           1E-12
    Mask sparsity (%):       4.2113
    Fitting Condition:        1E-10

   => Auxiliary Basis Set <=

  Basis Set: (AUG-CC-PVTZ AUX)
    Blend: AUG-CC-PVTZ-JKFIT + DEF2-UNIVERSAL-JKFIT
    Number of shells: 249
    Number of basis functions: 835
    Number of Cartesian functions: 1024
    Spherical Harmonics?: true
    Max angular momentum: 4

  Minimum eigenvalue in the overlap matrix is 1.3775301244E-05.
  Reciprocal condition number of the overlap matrix is 9.4651992168E-07.
    Using symmetric orthogonalization.

  ==> Pre-Iterations <==

  SCF Guess: Superposition of Atomic Densities via on-the-fly atomic UHF (no occupation information).

   -------------------------
    Irrep   Nso     Nmo    
   -------------------------
     A        414     414 
   -------------------------
    Total     414     414
   -------------------------

  ==> Iterations <==

                           Total Energy        Delta E     RMS |[F,P]|

   @DF-RHF iter SAD:   -75.47110320631373   -7.54711e+01   0.00000e+00 
   @DF-RHF iter   1:   -75.97361643669068   -5.02513e-01   1.13155e-03 DIIS/ADIIS
   @DF-RHF iter   2:   -76.02609127326440   -5.24748e-02   7.80288e-04 DIIS/ADIIS
   @DF-RHF iter   3:   -76.05840976921492   -3.23185e-02   5.30298e-05 DIIS
   @DF-RHF iter   4:   -76.05880821495032   -3.98446e-04   1.29479e-05 DIIS
   @DF-RHF iter   5:   -76.05883458036425   -2.63654e-05   3.01043e-06 DIIS
   @DF-RHF iter   6:   -76.05883680824043   -2.22788e-06   6.54748e-07 DIIS
   @DF-RHF iter   7:   -76.05883692245736   -1.14217e-07   1.12528e-07 DIIS
   @DF-RHF iter   8:   -76.05883692538066   -2.92330e-09   1.89378e-08 DIIS
   @DF-RHF iter   9:   -76.05883692544518   -6.45173e-11   4.61419e-09 DIIS
  Energy and wave function converged.


  ==> Post-Iterations <==

    Orbital Energies [Eh]
    ---------------------

    Doubly Occupied:                                                      

       1A    -20.570057     2A     -1.351762     3A     -0.705716  
       4A     -0.590138     5A     -0.510650  

    Virtual:                                                              

       6A      0.008656     7A      0.017942     8A      0.018533  
       9A      0.019350    10A      0.043910    11A      0.053798  
      12A      0.058514    13A      0.059544    14A      0.061411  
      15A      0.064483    16A      0.067856    17A      0.067902  
      18A      0.070587    19A      0.084948    20A      0.090677  
      21A      0.107855    22A      0.147840    23A      0.148184  
      24A      0.151724    25A      0.156849    26A      0.159028  
      27A      0.161049    28A      0.163595    29A      0.169042  
      30A      0.175116    31A      0.178817    32A      0.183705  
      33A      0.186940    34A      0.191576    35A      0.214017  
      36A      0.217627    37A      0.220694    38A      0.233219  
      39A      0.237205    40A      0.250870    41A      0.256784  
      42A      0.273548    43A      0.301839    44A      0.311960  
      45A      0.315930    46A      0.324863    47A      0.329867  
      48A      0.334022    49A      0.342066    50A      0.355869  
      51A      0.361391    52A      0.365860    53A      0.369527  
      54A      0.376712    55A      0.378538    56A      0.381863  
      57A      0.389489    58A      0.391660    59A      0.401024  
      60A      0.406132    61A      0.407365    62A      0.412802  
      63A      0.422641    64A      0.426068    65A      0.433593  
      66A      0.434339    67A      0.443601    68A      0.450950  
      69A      0.452676    70A      0.458689    71A      0.462345  
      72A      0.463343    73A      0.483571    74A      0.496583  
      75A      0.502772    76A      0.505242    77A      0.509648  
      78A      0.514582    79A      0.521170    80A      0.535569  
      81A      0.546370    82A      0.554730    83A      0.564955  
      84A      0.575877    85A      0.583423    86A      0.591999  
      87A      0.610464    88A      0.625909    89A      0.634065  
      90A      0.636635    91A      0.660915    92A      0.716640  
      93A      0.762677    94A      0.767391    95A      0.771683  
      96A      0.795717    97A      0.799805    98A      0.805030  
      99A      0.816064   100A      0.821028   101A      0.830298  
     102A      0.841470   103A      0.848211   104A      0.859887  
     105A      0.867710   106A      0.870334   107A      0.877517  
     108A      0.881319   109A      0.893185   110A      0.895777  
     111A      0.907211   112A      0.914270   113A      0.925118  
     114A      0.935838   115A      0.942782   116A      0.956073  
     117A      0.964652   118A      0.977475   119A      0.982810  
     120A      0.989647   121A      1.004992   122A      1.008087  
     123A      1.014556   124A      1.031247   125A      1.035109  
     126A      1.037899   127A      1.049525   128A      1.055821  
     129A      1.073299   130A      1.073930   131A      1.089481  
     132A      1.095030   133A      1.096770   134A      1.099042  
     135A      1.112924   136A      1.120297   137A      1.135669  
     138A      1.137671   139A      1.145712   140A      1.150119  
     141A      1.154763   142A      1.166150   143A      1.180139  
     144A      1.188571   145A      1.193635   146A      1.200066  
     147A      1.206536   148A      1.226140   149A      1.240668  
     150A      1.248571   151A      1.257313   152A      1.270064  
     153A      1.280230   154A      1.296571   155A      1.309133  
     156A      1.321872   157A      1.333593   158A      1.340466  
     159A      1.356987   160A      1.365551   161A      1.378407  
     162A      1.384855   163A      1.405210   164A      1.423020  
     165A      1.441086   166A      1.455376   167A      1.458872  
     168A      1.478868   169A      1.503678   170A      1.508529  
     171A      1.520109   172A      1.531905   173A      1.534793  
     174A      1.579889   175A      1.586157   176A      1.594502  
     177A      1.619061   178A      1.626482   179A      1.658904  
     180A      1.671836   181A      1.689066   182A      1.712372  
     183A      1.729353   184A      1.761882   185A      1.778137  
     186A      1.800280   187A      1.808503   188A      1.817418  
     189A      1.867572   190A      1.874431   191A      1.892819  
     192A      1.910206   193A      1.917740   194A      1.933790  
     195A      1.937285   196A      1.964042   197A      1.978154  
     198A      1.985869   199A      1.999668   200A      2.015011  
     201A      2.019526   202A      2.030415   203A      2.057400  
     204A      2.083902   205A      2.092210   206A      2.109170  
     207A      2.126209   208A      2.147516   209A      2.168221  
     210A      2.260130   211A      2.325237   212A      2.390973  
     213A      2.410092   214A      2.419292   215A      2.441958  
     216A      2.486329   217A      2.535294   218A      2.547970  
     219A      2.565298   220A      2.577595   221A      2.611788  
     222A      2.635374   223A      2.651924   224A      2.665847  
     225A      2.670693   226A      2.680643   227A      2.700919  
     228A      2.721649   229A      2.728360   230A      2.767513  
     231A      2.785508   232A      2.796319   233A      2.810529  
     234A      2.816286   235A      2.840426   236A      2.846324  
     237A      2.889064   238A      2.905953   239A      2.911435  
     240A      2.929806   241A      2.944272   242A      2.980349  
     243A      3.008146   244A      3.024105   245A      3.042124  
     246A      3.134039   247A      3.144538   248A      3.184336  
     249A      3.193260   250A      3.207202   251A      3.234799  
     252A      3.251485   253A      3.271751   254A      3.286003  
     255A      3.306702   256A      3.311527   257A      3.333355  
     258A      3.341070   259A      3.352410   260A      3.379102  
     261A      3.399375   262A      3.418846   263A      3.449293  
     264A      3.489954   265A      3.507305   266A      3.512950  
     267A      3.571049   268A      3.595982   269A      3.727934  
     270A      3.753872   271A      3.796307   272A      3.809653  
     273A      3.878881   274A      3.898082   275A      3.928226  
     276A      4.075761   277A      4.134294   278A      4.304735  
     279A      4.343123   280A      4.367240   281A      4.395399  
     282A      4.429558   283A      4.442568   284A      4.456056  
     285A      4.564797   286A      4.568972   287A      4.591904  
     288A      4.611181   289A      4.628134   290A      4.639637  
     291A      4.642444   292A      4.654270   293A      4.659959  
     294A      4.692626   295A      4.715638   296A      4.738535  
     297A      4.794776   298A      4.809306   299A      4.823833  
     300A      4.836591   301A      4.874814   302A      4.893385  
     303A      4.942582   304A      4.964624   305A      4.991324  
     306A      5.058970   307A      5.077245   308A      5.091430  
     309A      5.095913   310A      5.125925   311A      5.134376  
     312A      5.166220   313A      5.209021   314A      5.224811  
     315A      5.236954   316A      5.256769   317A      5.284034  
     318A      5.344267   319A      5.384090   320A      5.403328  
     321A      5.457324   322A      5.467032   323A      5.500764  
     324A      5.542206   325A      5.567105   326A      5.615532  
     327A      5.626219   328A      5.661027   329A      5.685520  
     330A      5.712466   331A      5.796232   332A      5.891721  
     333A      5.933932   334A      5.943071   335A      6.021924  
     336A      6.248779   337A      6.322781   338A      6.359108  
     339A      6.405123   340A      6.443109   341A      6.466445  
     342A      6.478632   343A      6.626275   344A      6.656654  
     345A      6.760383   346A      6.841840   347A      6.876195  
     348A      6.984282   349A      6.992175   350A      7.091666  
     351A      7.119363   352A      7.196159   353A      7.324593  
     354A      7.360658   355A      7.412373   356A      7.467327  
     357A      7.564605   358A      7.728327   359A      7.758288  
     360A      7.814691   361A      7.843898   362A      7.851902  
     363A      7.894843   364A      7.927273   365A      7.993714  
     366A      8.054449   367A      8.119918   368A      8.147640  
     369A      8.173887   370A      8.199396   371A      8.254764  
     372A      8.280788   373A      8.299470   374A      8.312637  
     375A      8.340575   376A      8.647541   377A      8.713018  
     378A      8.757713   379A      8.778494   380A      8.784399  
     381A      8.836803   382A      8.924183   383A      9.901695  
     384A      9.936967   385A      9.953499   386A     10.013350  
     387A     10.030704   388A     10.047706   389A     10.074978  
     390A     10.082292   391A     10.120859   392A     10.233671  
     393A     10.284156   394A     10.304272   395A     11.025614  
     396A     11.082238   397A     11.176326   398A     11.837064  
     399A     11.857343   400A     11.919318   401A     11.957299  
     402A     12.070099   403A     12.239281   404A     13.048028  
     405A     13.474878   406A     13.515799   407A     13.617781  
     408A     13.958114   409A     14.035328   410A     14.060339  
     411A     16.046176   412A     64.149979   413A     64.477431  
     414A     65.018396  

    Final Occupation by Irrep:
              A 
    DOCC [     5 ]
    NA   [     5 ]
    NB   [     5 ]

  @DF-RHF Final Energy:   -76.05883692544518

   => Energetics <=

    Nuclear Repulsion Energy =              9.1202806596538686
    One-Electron Energy =                -122.9015869377069521
    Two-Electron Energy =                  37.7224693526079022
    Total Energy =                        -76.0588369254451777

Computation Completed


Properties will be evaluated at   0.000000,   0.000000,   0.000000 [a0]

Properties computed using the SCF density matrix


 Multipole Moments:

 ------------------------------------------------------------------------------------
     Multipole            Electronic (a.u.)      Nuclear  (a.u.)        Total (a.u.)
 ------------------------------------------------------------------------------------

 L = 1.  Multiply by 2.5417464519 to convert [e a0] to [Debye]
 Dipole X            :         15.6350733          -15.8423432           -0.2072699
 Dipole Y            :         24.6540218          -25.0936222           -0.4396004
 Dipole Z            :        -22.7408216           23.3833993            0.6425777
 Magnitude           :                                                    0.8056770

 ------------------------------------------------------------------------------------

*** tstop() called on ddmfs1 at Mon Jan 22 12:58:37 2024
Module time:
	user time   =      53.17 seconds =       0.89 minutes
	system time =       2.60 seconds =       0.04 minutes
	total time  =          4 seconds =       0.07 minutes
Total time:
	user time   =      53.17 seconds =       0.89 minutes
	system time =       2.60 seconds =       0.04 minutes
	total time  =          4 seconds =       0.07 minutes

*** tstart() called on ddmfs1
*** at Mon Jan 22 12:58:37 2024


  //>>>>>>>>>>>>>>>>>>>>>>>>>>>>>>>>>>>//
  //               DFMP2               //
  //<<<<<<<<<<<<<<<<<<<<<<<<<<<<<<<<<<<//

   => Loading Basis Set <=

    Name: (AUG-CC-PVTZ AUX)
    Role: RIFIT
    Keyword: DF_BASIS_MP2
    atoms 1                     entry LI         line    90 file /ddmfs1b/softs/psi4conda/share/psi4/basis/def2-qzvpp-ri.gbs 
    atoms 2, 5, 8, 11           entry O          line   264 file /ddmfs1b/softs/psi4conda/share/psi4/basis/aug-cc-pvtz-ri.gbs 
    atoms 3-4, 6-7, 9-10, 12-13 entry H          line    30 file /ddmfs1b/softs/psi4conda/share/psi4/basis/aug-cc-pvtz-ri.gbs 

	 --------------------------------------------------------
	                          DF-MP2                         
	      2nd-Order Density-Fitted Moller-Plesset Theory     
	              RMP2 Wavefunction,  20 Threads             
	                                                         
	        Rob Parrish, Justin Turney, Andy Simmonett,      
	           Ed Hohenstein, and C. David Sherrill          
	 --------------------------------------------------------

   => Auxiliary Basis Set <=

  Basis Set: (AUG-CC-PVTZ AUX)
    Blend: AUG-CC-PVTZ-RI + DEF2-QZVPP-RI
    Number of shells: 251
    Number of basis functions: 893
    Number of Cartesian functions: 1114
    Spherical Harmonics?: true
    Max angular momentum: 4

	 --------------------------------------------------------
	                 NBF =   414, NAUX =   893
	 --------------------------------------------------------
	   CLASS    FOCC     OCC    AOCC    AVIR     VIR    FVIR
	   PAIRS       0       5       5     409     409       0
	 --------------------------------------------------------

	-----------------------------------------------------------
	 ==================> DF-MP2 Energies <==================== 
	-----------------------------------------------------------
	 Reference Energy          =     -76.0588369254451777 [Eh]
	 Singles Energy            =      -0.0000000000000000 [Eh]
	 Same-Spin Energy          =      -0.0686685751853747 [Eh]
	 Opposite-Spin Energy      =      -0.2166841507191943 [Eh]
	 Correlation Energy        =      -0.2853527259045689 [Eh]
	 Total Energy              =     -76.3441896513497511 [Eh]
	-----------------------------------------------------------
	 ================> DF-SCS-MP2 Energies <================== 
	-----------------------------------------------------------
	 SCS Same-Spin Scale       =       0.3333333333333333 [-]
	 SCS Opposite-Spin Scale   =       1.2000000000000000 [-]
	 SCS Same-Spin Energy      =      -0.0228895250617916 [Eh]
	 SCS Opposite-Spin Energy  =      -0.2600209808630331 [Eh]
	 SCS Correlation Energy    =      -0.2829105059248247 [Eh]
	 SCS Total Energy          =     -76.3417474313699955 [Eh]
	-----------------------------------------------------------


*** tstop() called on ddmfs1 at Mon Jan 22 12:58:39 2024
Module time:
	user time   =      17.01 seconds =       0.28 minutes
	system time =       0.84 seconds =       0.01 minutes
	total time  =          2 seconds =       0.03 minutes
Total time:
	user time   =      70.20 seconds =       1.17 minutes
	system time =       3.44 seconds =       0.06 minutes
	total time  =          6 seconds =       0.10 minutes

    Psi4 stopped on: Monday, 22 January 2024 12:58PM
    Psi4 wall time for execution: 0:00:06.01

*** Psi4 exiting successfully. Buy a developer a beer!
