
    -----------------------------------------------------------------------
          Psi4: An Open-Source Ab Initio Electronic Structure Package
                               Psi4 1.8.2 release

                         Git: Rev {} zzzzzzz 


    D. G. A. Smith, L. A. Burns, A. C. Simmonett, R. M. Parrish,
    M. C. Schieber, R. Galvelis, P. Kraus, H. Kruse, R. Di Remigio,
    A. Alenaizan, A. M. James, S. Lehtola, J. P. Misiewicz, M. Scheurer,
    R. A. Shaw, J. B. Schriber, Y. Xie, Z. L. Glick, D. A. Sirianni,
    J. S. O'Brien, J. M. Waldrop, A. Kumar, E. G. Hohenstein,
    B. P. Pritchard, B. R. Brooks, H. F. Schaefer III, A. Yu. Sokolov,
    K. Patkowski, A. E. DePrince III, U. Bozkaya, R. A. King,
    F. A. Evangelista, J. M. Turney, T. D. Crawford, C. D. Sherrill,
    J. Chem. Phys. 152(18) 184108 (2020). https://doi.org/10.1063/5.0006002

                            Additional Code Authors
    E. T. Seidl, C. L. Janssen, E. F. Valeev, M. L. Leininger,
    J. F. Gonthier, R. M. Richard, H. R. McAlexander, M. Saitow, X. Wang,
    P. Verma, M. H. Lechner, A. Jiang, S. Behnle, A. G. Heide,
    M. F. Herbst, and D. L. Poole

             Previous Authors, Complete List of Code Contributors,
                       and Citations for Specific Modules
    https://github.com/psi4/psi4/blob/master/codemeta.json
    https://github.com/psi4/psi4/graphs/contributors
    http://psicode.org/psi4manual/master/introduction.html#citing-psifour

    -----------------------------------------------------------------------


    Psi4 started on: Monday, 22 January 2024 01:18PM

    Process ID: 56632
    Host:       ddmfs1
    PSIDATADIR: /ddmfs1b/softs/psi4conda/share/psi4
    Memory:     500.0 MiB
    Threads:    20
    
  ==> Input File <==

--------------------------------------------------------------------------
MEMORY 60 GB

molecule dimer {
1 1
Li         0.000000     0.000000     0.000000
Gh(O)     -0.877901    -0.669804    -1.764505
Gh(H)     -0.604585    -0.141250    -2.476090
Gh(H)     -0.318802    -1.470888    -1.866124
Gh(O)     -0.675625    -0.903094     1.504513
Gh(H)     -1.561938    -0.688831     1.846484
Gh(H)     -0.636237    -1.802238     1.249660
Gh(O)     -0.291915     1.880346     0.276855
Gh(H)     -0.395520     2.489150    -0.423060
Gh(H)     -0.773999     2.031365     1.070741
Gh(O)      1.738779    -0.892995    -0.171427
Gh(H)      1.936336    -1.888660    -0.006936
Gh(H)      2.351816    -0.434925     0.435878

units ang
no_reorient
no_com
symmetry c1
}

set {
basis        aug-cc-pVTZ
scf_type     df
}

energy("mp2")
--------------------------------------------------------------------------

  Memory set to  55.879 GiB by Python driver.

Scratch directory: /ddmfs1a/scratch/
   => Libint2 <=

    Primary   basis highest AM E, G, H:  5, 4, 3
    Auxiliary basis highest AM E, G, H:  6, 5, 4
    Onebody   basis highest AM E, G, H:  6, 5, 4
    Solid Harmonics ordering:            gaussian

*** tstart() called on ddmfs1
*** at Mon Jan 22 13:18:08 2024

   => Loading Basis Set <=

    Name: AUG-CC-PVTZ
    Role: ORBITAL
    Keyword: BASIS
    atoms 1                     entry LI         line    85 file /ddmfs1b/softs/psi4conda/share/psi4/basis/aug-cc-pvtz.gbs 
    atoms 2, 5, 8, 11           entry O          line   331 file /ddmfs1b/softs/psi4conda/share/psi4/basis/aug-cc-pvtz.gbs 
    atoms 3-4, 6-7, 9-10, 12-13 entry H          line    40 file /ddmfs1b/softs/psi4conda/share/psi4/basis/aug-cc-pvtz.gbs 


         ---------------------------------------------------------
                                   SCF
               by Justin Turney, Rob Parrish, Andy Simmonett
                          and Daniel G. A. Smith
                              RHF Reference
                       20 Threads,  57220 MiB Core
         ---------------------------------------------------------

  ==> Geometry <==

    Molecular point group: c1
    Full point group: C1

    Geometry (in Angstrom), charge = 1, multiplicity = 1:

       Center              X                  Y                   Z               Mass       
    ------------   -----------------  -----------------  -----------------  -----------------
         LI           0.000000000000     0.000000000000     0.000000000000     7.016003436600
      Gh(O)          -0.877901000000    -0.669804000000    -1.764505000000    15.994914619570
      Gh(H)          -0.604585000000    -0.141250000000    -2.476090000000     1.007825032230
      Gh(H)          -0.318802000000    -1.470888000000    -1.866124000000     1.007825032230
      Gh(O)          -0.675625000000    -0.903094000000     1.504513000000    15.994914619570
      Gh(H)          -1.561938000000    -0.688831000000     1.846484000000     1.007825032230
      Gh(H)          -0.636237000000    -1.802238000000     1.249660000000     1.007825032230
      Gh(O)          -0.291915000000     1.880346000000     0.276855000000    15.994914619570
      Gh(H)          -0.395520000000     2.489150000000    -0.423060000000     1.007825032230
      Gh(H)          -0.773999000000     2.031365000000     1.070741000000     1.007825032230
      Gh(O)           1.738779000000    -0.892995000000    -0.171427000000    15.994914619570
      Gh(H)           1.936336000000    -1.888660000000    -0.006936000000     1.007825032230
      Gh(H)           2.351816000000    -0.434925000000     0.435878000000     1.007825032230

  Running in c1 symmetry.

  Rotational constants: A =      0.09677  B =      0.08672  C =      0.07519 [cm^-1]
  Rotational constants: A =   2901.02327  B =   2599.67809  C =   2254.23367 [MHz]
  Nuclear repulsion =    0.000000000000000

  Charge       = 1
  Multiplicity = 1
  Electrons    = 2
  Nalpha       = 1
  Nbeta        = 1

  ==> Algorithm <==

  SCF Algorithm Type is DF.
  DIIS enabled.
  MOM disabled.
  Fractional occupation disabled.
  Guess Type is SAD.
  Energy threshold   = 1.00e-08
  Density threshold  = 1.00e-08
  Integral threshold = 1.00e-12

  ==> Primary Basis <==

  Basis Set: AUG-CC-PVTZ
    Blend: AUG-CC-PVTZ
    Number of shells: 142
    Number of basis functions: 414
    Number of Cartesian functions: 475
    Spherical Harmonics?: true
    Max angular momentum: 3

   => Loading Basis Set <=

    Name: (AUG-CC-PVTZ AUX)
    Role: JKFIT
    Keyword: DF_BASIS_SCF
    atoms 1                     entry LI         line    54 file /ddmfs1b/softs/psi4conda/share/psi4/basis/def2-universal-jkfit.gbs 
    atoms 2, 5, 8, 11           entry O          line   286 file /ddmfs1b/softs/psi4conda/share/psi4/basis/aug-cc-pvtz-jkfit.gbs 
    atoms 3-4, 6-7, 9-10, 12-13 entry H          line    70 file /ddmfs1b/softs/psi4conda/share/psi4/basis/aug-cc-pvtz-jkfit.gbs 

  ==> Integral Setup <==

  DFHelper Memory: AOs need 1.085 GiB; user supplied 41.910 GiB. 
  Using in-core AOs.

  ==> MemDFJK: Density-Fitted J/K Matrices <==

    J tasked:                   Yes
    K tasked:                   Yes
    wK tasked:                   No
    OpenMP threads:              20
    Memory [MiB]:             42915
    Algorithm:                 Core
    Schwarz Cutoff:           1E-12
    Mask sparsity (%):       4.3210
    Fitting Condition:        1E-10

   => Auxiliary Basis Set <=

  Basis Set: (AUG-CC-PVTZ AUX)
    Blend: AUG-CC-PVTZ-JKFIT + DEF2-UNIVERSAL-JKFIT
    Number of shells: 249
    Number of basis functions: 835
    Number of Cartesian functions: 1024
    Spherical Harmonics?: true
    Max angular momentum: 4

  Minimum eigenvalue in the overlap matrix is 1.5600200075E-05.
  Reciprocal condition number of the overlap matrix is 1.0647466169E-06.
    Using symmetric orthogonalization.

  ==> Pre-Iterations <==

  SCF Guess: Superposition of Atomic Densities via on-the-fly atomic UHF (no occupation information).

   -------------------------
    Irrep   Nso     Nmo    
   -------------------------
     A        414     414 
   -------------------------
    Total     414     414
   -------------------------

  ==> Iterations <==

                           Total Energy        Delta E     RMS |[F,P]|

   @DF-RHF iter SAD:    -7.31417661343812   -7.31418e+00   0.00000e+00 
   @DF-RHF iter   1:    -7.23638293115055    7.77937e-02   5.48781e-06 DIIS
   @DF-RHF iter   2:    -7.23638485475222   -1.92360e-06   6.70256e-07 DIIS
   @DF-RHF iter   3:    -7.23638488633364   -3.15814e-08   3.47888e-08 DIIS
   @DF-RHF iter   4:    -7.23638488639572   -6.20775e-11   2.27876e-10 DIIS
  Energy and wave function converged.


  ==> Post-Iterations <==

    Orbital Energies [Eh]
    ---------------------

    Doubly Occupied:                                                      

       1A     -2.792353  

    Virtual:                                                              

       2A     -0.196302     3A     -0.128604     4A     -0.128601  
       5A     -0.128600     6A     -0.073775     7A     -0.056392  
       8A     -0.056391     9A     -0.056387    10A     -0.050947  
      11A     -0.050919    12A     -0.050822    13A     -0.050263  
      14A     -0.045330    15A     -0.027125    16A     -0.010135  
      17A     -0.010008    18A     -0.008820    19A     -0.008365  
      20A     -0.003687    21A      0.007696    22A      0.012843  
      23A      0.015748    24A      0.018873    25A      0.022991  
      26A      0.028753    27A      0.037890    28A      0.038512  
      29A      0.041124    30A      0.053911    31A      0.062421  
      32A      0.073385    33A      0.087555    34A      0.088792  
      35A      0.092717    36A      0.093951    37A      0.102349  
      38A      0.115182    39A      0.134419    40A      0.138253  
      41A      0.142435    42A      0.149224    43A      0.157181  
      44A      0.163783    45A      0.166104    46A      0.169772  
      47A      0.173875    48A      0.180486    49A      0.183288  
      50A      0.189032    51A      0.206449    52A      0.209505  
      53A      0.212626    54A      0.218697    55A      0.225932  
      56A      0.231286    57A      0.251183    58A      0.255020  
      59A      0.259811    60A      0.269908    61A      0.271389  
      62A      0.278508    63A      0.280920    64A      0.286785  
      65A      0.290710    66A      0.296627    67A      0.299706  
      68A      0.303140    69A      0.312482    70A      0.318001  
      71A      0.323652    72A      0.330288    73A      0.348908  
      74A      0.360176    75A      0.365190    76A      0.369891  
      77A      0.373291    78A      0.377839    79A      0.382528  
      80A      0.385379    81A      0.395311    82A      0.405604  
      83A      0.418874    84A      0.423897    85A      0.433338  
      86A      0.438505    87A      0.443618    88A      0.461392  
      89A      0.480167    90A      0.521800    91A      0.535678  
      92A      0.556991    93A      0.558697    94A      0.565459  
      95A      0.582593    96A      0.594372    97A      0.612742  
      98A      0.620650    99A      0.627830   100A      0.635041  
     101A      0.639776   102A      0.657105   103A      0.666173  
     104A      0.674410   105A      0.685230   106A      0.689108  
     107A      0.696846   108A      0.704758   109A      0.711649  
     110A      0.722350   111A      0.735097   112A      0.744016  
     113A      0.749457   114A      0.754874   115A      0.771367  
     116A      0.778599   117A      0.785784   118A      0.806633  
     119A      0.810496   120A      0.814591   121A      0.827703  
     122A      0.839406   123A      0.846234   124A      0.849516  
     125A      0.854911   126A      0.862667   127A      0.871539  
     128A      0.883427   129A      0.888365   130A      0.896992  
     131A      0.905102   132A      0.908874   133A      0.915883  
     134A      0.923768   135A      0.940781   136A      0.948613  
     137A      0.962307   138A      0.964385   139A      0.979820  
     140A      0.986632   141A      0.998604   142A      1.005182  
     143A      1.010641   144A      1.018211   145A      1.021531  
     146A      1.029936   147A      1.045233   148A      1.068826  
     149A      1.077399   150A      1.099892   151A      1.108947  
     152A      1.114869   153A      1.125278   154A      1.132635  
     155A      1.141042   156A      1.148770   157A      1.156635  
     158A      1.167665   159A      1.179725   160A      1.195208  
     161A      1.204415   162A      1.215058   163A      1.222289  
     164A      1.255951   165A      1.263280   166A      1.282633  
     167A      1.298787   168A      1.303435   169A      1.312913  
     170A      1.324180   171A      1.327429   172A      1.344444  
     173A      1.354760   174A      1.370195   175A      1.386596  
     176A      1.402631   177A      1.424096   178A      1.452498  
     179A      1.475192   180A      1.491583   181A      1.555697  
     182A      1.590168   183A      1.599183   184A      1.632016  
     185A      1.645797   186A      1.662843   187A      1.664211  
     188A      1.675895   189A      1.681425   190A      1.703233  
     191A      1.713352   192A      1.718021   193A      1.745496  
     194A      1.754119   195A      1.769595   196A      1.786682  
     197A      1.801686   198A      1.813462   199A      1.817857  
     200A      1.833175   201A      1.854746   202A      1.866200  
     203A      1.873666   204A      1.883541   205A      1.901086  
     206A      1.921642   207A      1.931363   208A      1.952875  
     209A      1.966003   210A      2.181152   211A      2.218696  
     212A      2.260749   213A      2.284031   214A      2.286417  
     215A      2.309251   216A      2.318226   217A      2.334475  
     218A      2.349840   219A      2.367575   220A      2.390607  
     221A      2.395952   222A      2.410714   223A      2.423228  
     224A      2.448136   225A      2.450174   226A      2.466959  
     227A      2.490349   228A      2.527301   229A      2.544048  
     230A      2.571619   231A      2.596867   232A      2.626162  
     233A      2.651862   234A      2.669181   235A      2.697815  
     236A      2.714138   237A      2.729310   238A      2.749149  
     239A      2.771678   240A      2.824400   241A      2.835146  
     242A      2.847464   243A      2.865591   244A      2.900996  
     245A      2.949781   246A      2.982000   247A      2.999465  
     248A      3.006065   249A      3.023037   250A      3.040667  
     251A      3.050019   252A      3.078731   253A      3.082386  
     254A      3.107773   255A      3.118816   256A      3.131326  
     257A      3.150438   258A      3.162571   259A      3.171023  
     260A      3.180075   261A      3.203225   262A      3.239113  
     263A      3.260289   264A      3.320027   265A      3.336220  
     266A      3.411915   267A      3.449456   268A      3.484723  
     269A      3.514810   270A      3.541257   271A      3.557114  
     272A      3.598789   273A      3.635781   274A      4.137812  
     275A      4.208826   276A      4.235212   277A      4.267433  
     278A      4.269747   279A      4.332062   280A      4.371661  
     281A      4.389121   282A      4.403836   283A      4.420556  
     284A      4.439176   285A      4.444352   286A      4.486871  
     287A      4.513002   288A      4.522264   289A      4.548457  
     290A      4.574653   291A      4.588682   292A      4.604064  
     293A      4.637692   294A      4.653838   295A      4.681204  
     296A      4.694693   297A      4.747373   298A      4.802747  
     299A      4.816874   300A      4.824561   301A      4.843577  
     302A      4.875927   303A      4.892330   304A      4.911502  
     305A      4.915689   306A      4.939550   307A      4.976283  
     308A      4.992221   309A      5.002590   310A      5.023957  
     311A      5.078305   312A      5.097596   313A      5.115211  
     314A      5.128956   315A      5.228014   316A      5.323417  
     317A      5.364893   318A      5.389660   319A      5.415790  
     320A      5.423234   321A      5.467299   322A      5.477792  
     323A      5.501510   324A      5.591572   325A      5.619194  
     326A      5.646864   327A      5.693807   328A      5.707111  
     329A      5.730790   330A      5.818737   331A      6.056654  
     332A      6.097303   333A      6.146380   334A      6.165311  
     335A      6.186787   336A      6.199516   337A      6.220525  
     338A      6.261790   339A      6.353303   340A      6.463193  
     341A      6.667869   342A      6.734103   343A      6.866555  
     344A      6.946648   345A      6.957436   346A      7.025311  
     347A      7.489720   348A      7.500454   349A      7.511144  
     350A      7.540276   351A      7.554534   352A      7.608715  
     353A      7.633870   354A      7.697893   355A      7.825447  
     356A      7.876213   357A      7.913679   358A      7.926061  
     359A      7.979626   360A      8.007567   361A      8.018108  
     362A      8.051789   363A      8.063074   364A      8.137359  
     365A      8.162247   366A      8.246042   367A      8.333832  
     368A      8.474746   369A      8.598723   370A      8.607625  
     371A      8.628812   372A      8.691842   373A      8.702982  
     374A      8.904803   375A      9.619588   376A      9.630097  
     377A      9.673368   378A      9.686884   379A      9.738418  
     380A      9.753061   381A      9.754794   382A      9.782659  
     383A      9.794689   384A      9.810310   385A      9.829290  
     386A      9.857472   387A      9.928811   388A      9.955480  
     389A      9.986230   390A     10.007076   391A     10.718429  
     392A     10.949715   393A     10.976090   394A     11.008302  
     395A     11.532097   396A     11.591661   397A     11.601200  
     398A     11.619639   399A     11.778979   400A     12.174499  
     401A     12.232939   402A     12.319739   403A     13.186089  
     404A     13.458254   405A     13.469036   406A     13.641292  
     407A     13.679975   408A     13.710183   409A     13.763030  
     410A     13.782559   411A     63.575846   412A     66.028824  
     413A     66.184790   414A     66.979211  

    Final Occupation by Irrep:
              A 
    DOCC [     1 ]
    NA   [     1 ]
    NB   [     1 ]

  @DF-RHF Final Energy:    -7.23638488639572

   => Energetics <=

    Nuclear Repulsion Energy =              0.0000000000000000
    One-Electron Energy =                  -8.8880646653035082
    Two-Electron Energy =                   1.6516797789077875
    Total Energy =                         -7.2363848863957205

Computation Completed


Properties will be evaluated at   0.000000,   0.000000,   0.000000 [a0]

Properties computed using the SCF density matrix


 Multipole Moments:

 ------------------------------------------------------------------------------------
     Multipole            Electronic (a.u.)      Nuclear  (a.u.)        Total (a.u.)
 ------------------------------------------------------------------------------------

 L = 1.  Multiply by 2.5417464519 to convert [e a0] to [Debye]
 Dipole X            :          0.0000017            0.0000000            0.0000017
 Dipole Y            :          0.0000008            0.0000000            0.0000008
 Dipole Z            :         -0.0000044            0.0000000           -0.0000044
 Magnitude           :                                                    0.0000048

 ------------------------------------------------------------------------------------

*** tstop() called on ddmfs1 at Mon Jan 22 13:18:11 2024
Module time:
	user time   =      40.59 seconds =       0.68 minutes
	system time =       2.21 seconds =       0.04 minutes
	total time  =          3 seconds =       0.05 minutes
Total time:
	user time   =      40.59 seconds =       0.68 minutes
	system time =       2.21 seconds =       0.04 minutes
	total time  =          3 seconds =       0.05 minutes

*** tstart() called on ddmfs1
*** at Mon Jan 22 13:18:11 2024


  //>>>>>>>>>>>>>>>>>>>>>>>>>>>>>>>>>>>//
  //               DFMP2               //
  //<<<<<<<<<<<<<<<<<<<<<<<<<<<<<<<<<<<//

   => Loading Basis Set <=

    Name: (AUG-CC-PVTZ AUX)
    Role: RIFIT
    Keyword: DF_BASIS_MP2
    atoms 1                     entry LI         line    90 file /ddmfs1b/softs/psi4conda/share/psi4/basis/def2-qzvpp-ri.gbs 
    atoms 2, 5, 8, 11           entry O          line   264 file /ddmfs1b/softs/psi4conda/share/psi4/basis/aug-cc-pvtz-ri.gbs 
    atoms 3-4, 6-7, 9-10, 12-13 entry H          line    30 file /ddmfs1b/softs/psi4conda/share/psi4/basis/aug-cc-pvtz-ri.gbs 

	 --------------------------------------------------------
	                          DF-MP2                         
	      2nd-Order Density-Fitted Moller-Plesset Theory     
	              RMP2 Wavefunction,  20 Threads             
	                                                         
	        Rob Parrish, Justin Turney, Andy Simmonett,      
	           Ed Hohenstein, and C. David Sherrill          
	 --------------------------------------------------------

   => Auxiliary Basis Set <=

  Basis Set: (AUG-CC-PVTZ AUX)
    Blend: AUG-CC-PVTZ-RI + DEF2-QZVPP-RI
    Number of shells: 251
    Number of basis functions: 893
    Number of Cartesian functions: 1114
    Spherical Harmonics?: true
    Max angular momentum: 4

	 --------------------------------------------------------
	                 NBF =   414, NAUX =   893
	 --------------------------------------------------------
	   CLASS    FOCC     OCC    AOCC    AVIR     VIR    FVIR
	   PAIRS       0       1       1     413     413       0
	 --------------------------------------------------------

	-----------------------------------------------------------
	 ==================> DF-MP2 Energies <==================== 
	-----------------------------------------------------------
	 Reference Energy          =      -7.2363848863957214 [Eh]
	 Singles Energy            =      -0.0000000000000000 [Eh]
	 Same-Spin Energy          =       0.0000000000000000 [Eh]
	 Opposite-Spin Energy      =      -0.0170635904448333 [Eh]
	 Correlation Energy        =      -0.0170635904448333 [Eh]
	 Total Energy              =      -7.2534484768405552 [Eh]
	-----------------------------------------------------------
	 ================> DF-SCS-MP2 Energies <================== 
	-----------------------------------------------------------
	 SCS Same-Spin Scale       =       0.3333333333333333 [-]
	 SCS Opposite-Spin Scale   =       1.2000000000000000 [-]
	 SCS Same-Spin Energy      =       0.0000000000000000 [Eh]
	 SCS Opposite-Spin Energy  =      -0.0204763085338000 [Eh]
	 SCS Correlation Energy    =      -0.0204763085338000 [Eh]
	 SCS Total Energy          =      -7.2568611949295212 [Eh]
	-----------------------------------------------------------


*** tstop() called on ddmfs1 at Mon Jan 22 13:18:14 2024
Module time:
	user time   =      15.61 seconds =       0.26 minutes
	system time =       0.84 seconds =       0.01 minutes
	total time  =          3 seconds =       0.05 minutes
Total time:
	user time   =      56.22 seconds =       0.94 minutes
	system time =       3.05 seconds =       0.05 minutes
	total time  =          6 seconds =       0.10 minutes

    Psi4 stopped on: Monday, 22 January 2024 01:18PM
    Psi4 wall time for execution: 0:00:05.38

*** Psi4 exiting successfully. Buy a developer a beer!
