
    -----------------------------------------------------------------------
          Psi4: An Open-Source Ab Initio Electronic Structure Package
                               Psi4 1.8.2 release

                         Git: Rev {} zzzzzzz 


    D. G. A. Smith, L. A. Burns, A. C. Simmonett, R. M. Parrish,
    M. C. Schieber, R. Galvelis, P. Kraus, H. Kruse, R. Di Remigio,
    A. Alenaizan, A. M. James, S. Lehtola, J. P. Misiewicz, M. Scheurer,
    R. A. Shaw, J. B. Schriber, Y. Xie, Z. L. Glick, D. A. Sirianni,
    J. S. O'Brien, J. M. Waldrop, A. Kumar, E. G. Hohenstein,
    B. P. Pritchard, B. R. Brooks, H. F. Schaefer III, A. Yu. Sokolov,
    K. Patkowski, A. E. DePrince III, U. Bozkaya, R. A. King,
    F. A. Evangelista, J. M. Turney, T. D. Crawford, C. D. Sherrill,
    J. Chem. Phys. 152(18) 184108 (2020). https://doi.org/10.1063/5.0006002

                            Additional Code Authors
    E. T. Seidl, C. L. Janssen, E. F. Valeev, M. L. Leininger,
    J. F. Gonthier, R. M. Richard, H. R. McAlexander, M. Saitow, X. Wang,
    P. Verma, M. H. Lechner, A. Jiang, S. Behnle, A. G. Heide,
    M. F. Herbst, and D. L. Poole

             Previous Authors, Complete List of Code Contributors,
                       and Citations for Specific Modules
    https://github.com/psi4/psi4/blob/master/codemeta.json
    https://github.com/psi4/psi4/graphs/contributors
    http://psicode.org/psi4manual/master/introduction.html#citing-psifour

    -----------------------------------------------------------------------


    Psi4 started on: Monday, 22 January 2024 12:50PM

    Process ID: 50958
    Host:       ddmfs1
    PSIDATADIR: /ddmfs1b/softs/psi4conda/share/psi4
    Memory:     500.0 MiB
    Threads:    20
    
  ==> Input File <==

--------------------------------------------------------------------------
MEMORY 60 GB

molecule dimer {
1 1
Li         0.000000     0.000000     0.000000
Gh(O)      0.308611     1.799941     0.055027
Gh(H)      1.189178     2.084602    -0.029819
Gh(H)     -0.214343     2.315908    -0.579745
Gh(O)     -1.239702    -0.176525     1.570107
Gh(H)     -1.160882    -1.124504     1.682038
Gh(H)     -1.287511     0.291488     2.423735
Gh(O)     -1.080482    -0.705916    -1.358061
Gh(H)     -1.739894    -0.042264    -1.524104
Gh(H)     -1.505441    -1.545786    -1.482370
Gh(O)      1.386436    -1.321672    -0.001936
Gh(H)      1.809813    -1.499437     0.850115
Gh(H)      2.170025    -1.008615    -0.549659

units ang
no_reorient
no_com
symmetry c1
}

set {
basis        aug-cc-pVTZ
scf_type     df
}

energy("mp2")
--------------------------------------------------------------------------

  Memory set to  55.879 GiB by Python driver.

Scratch directory: /ddmfs1a/scratch/
   => Libint2 <=

    Primary   basis highest AM E, G, H:  5, 4, 3
    Auxiliary basis highest AM E, G, H:  6, 5, 4
    Onebody   basis highest AM E, G, H:  6, 5, 4
    Solid Harmonics ordering:            gaussian

*** tstart() called on ddmfs1
*** at Mon Jan 22 12:50:14 2024

   => Loading Basis Set <=

    Name: AUG-CC-PVTZ
    Role: ORBITAL
    Keyword: BASIS
    atoms 1                     entry LI         line    85 file /ddmfs1b/softs/psi4conda/share/psi4/basis/aug-cc-pvtz.gbs 
    atoms 2, 5, 8, 11           entry O          line   331 file /ddmfs1b/softs/psi4conda/share/psi4/basis/aug-cc-pvtz.gbs 
    atoms 3-4, 6-7, 9-10, 12-13 entry H          line    40 file /ddmfs1b/softs/psi4conda/share/psi4/basis/aug-cc-pvtz.gbs 


         ---------------------------------------------------------
                                   SCF
               by Justin Turney, Rob Parrish, Andy Simmonett
                          and Daniel G. A. Smith
                              RHF Reference
                       20 Threads,  57220 MiB Core
         ---------------------------------------------------------

  ==> Geometry <==

    Molecular point group: c1
    Full point group: C1

    Geometry (in Angstrom), charge = 1, multiplicity = 1:

       Center              X                  Y                   Z               Mass       
    ------------   -----------------  -----------------  -----------------  -----------------
         LI           0.000000000000     0.000000000000     0.000000000000     7.016003436600
      Gh(O)           0.308611000000     1.799941000000     0.055027000000    15.994914619570
      Gh(H)           1.189178000000     2.084602000000    -0.029819000000     1.007825032230
      Gh(H)          -0.214343000000     2.315908000000    -0.579745000000     1.007825032230
      Gh(O)          -1.239702000000    -0.176525000000     1.570107000000    15.994914619570
      Gh(H)          -1.160882000000    -1.124504000000     1.682038000000     1.007825032230
      Gh(H)          -1.287511000000     0.291488000000     2.423735000000     1.007825032230
      Gh(O)          -1.080482000000    -0.705916000000    -1.358061000000    15.994914619570
      Gh(H)          -1.739894000000    -0.042264000000    -1.524104000000     1.007825032230
      Gh(H)          -1.505441000000    -1.545786000000    -1.482370000000     1.007825032230
      Gh(O)           1.386436000000    -1.321672000000    -0.001936000000    15.994914619570
      Gh(H)           1.809813000000    -1.499437000000     0.850115000000     1.007825032230
      Gh(H)           2.170025000000    -1.008615000000    -0.549659000000     1.007825032230

  Running in c1 symmetry.

  Rotational constants: A =      0.09945  B =      0.08887  C =      0.08219 [cm^-1]
  Rotational constants: A =   2981.30971  B =   2664.23458  C =   2463.86172 [MHz]
  Nuclear repulsion =    0.000000000000000

  Charge       = 1
  Multiplicity = 1
  Electrons    = 2
  Nalpha       = 1
  Nbeta        = 1

  ==> Algorithm <==

  SCF Algorithm Type is DF.
  DIIS enabled.
  MOM disabled.
  Fractional occupation disabled.
  Guess Type is SAD.
  Energy threshold   = 1.00e-08
  Density threshold  = 1.00e-08
  Integral threshold = 1.00e-12

  ==> Primary Basis <==

  Basis Set: AUG-CC-PVTZ
    Blend: AUG-CC-PVTZ
    Number of shells: 142
    Number of basis functions: 414
    Number of Cartesian functions: 475
    Spherical Harmonics?: true
    Max angular momentum: 3

   => Loading Basis Set <=

    Name: (AUG-CC-PVTZ AUX)
    Role: JKFIT
    Keyword: DF_BASIS_SCF
    atoms 1                     entry LI         line    54 file /ddmfs1b/softs/psi4conda/share/psi4/basis/def2-universal-jkfit.gbs 
    atoms 2, 5, 8, 11           entry O          line   286 file /ddmfs1b/softs/psi4conda/share/psi4/basis/aug-cc-pvtz-jkfit.gbs 
    atoms 3-4, 6-7, 9-10, 12-13 entry H          line    70 file /ddmfs1b/softs/psi4conda/share/psi4/basis/aug-cc-pvtz-jkfit.gbs 

  ==> Integral Setup <==

  DFHelper Memory: AOs need 1.091 GiB; user supplied 41.910 GiB. 
  Using in-core AOs.

  ==> MemDFJK: Density-Fitted J/K Matrices <==

    J tasked:                   Yes
    K tasked:                   Yes
    wK tasked:                   No
    OpenMP threads:              20
    Memory [MiB]:             42915
    Algorithm:                 Core
    Schwarz Cutoff:           1E-12
    Mask sparsity (%):       3.8017
    Fitting Condition:        1E-10

   => Auxiliary Basis Set <=

  Basis Set: (AUG-CC-PVTZ AUX)
    Blend: AUG-CC-PVTZ-JKFIT + DEF2-UNIVERSAL-JKFIT
    Number of shells: 249
    Number of basis functions: 835
    Number of Cartesian functions: 1024
    Spherical Harmonics?: true
    Max angular momentum: 4

  Minimum eigenvalue in the overlap matrix is 1.5969255498E-05.
  Reciprocal condition number of the overlap matrix is 1.0875236062E-06.
    Using symmetric orthogonalization.

  ==> Pre-Iterations <==

  SCF Guess: Superposition of Atomic Densities via on-the-fly atomic UHF (no occupation information).

   -------------------------
    Irrep   Nso     Nmo    
   -------------------------
     A        414     414 
   -------------------------
    Total     414     414
   -------------------------

  ==> Iterations <==

                           Total Energy        Delta E     RMS |[F,P]|

   @DF-RHF iter SAD:    -7.31416717525592   -7.31417e+00   0.00000e+00 
   @DF-RHF iter   1:    -7.23638297962366    7.77842e-02   5.49186e-06 DIIS
   @DF-RHF iter   2:    -7.23638490684399   -1.92722e-06   6.73020e-07 DIIS
   @DF-RHF iter   3:    -7.23638493860178   -3.17578e-08   3.51824e-08 DIIS
   @DF-RHF iter   4:    -7.23638493866483   -6.30571e-11   2.31908e-10 DIIS
  Energy and wave function converged.


  ==> Post-Iterations <==

    Orbital Energies [Eh]
    ---------------------

    Doubly Occupied:                                                      

       1A     -2.792352  

    Virtual:                                                              

       2A     -0.196302     3A     -0.128602     4A     -0.128602  
       5A     -0.128601     6A     -0.073773     7A     -0.056392  
       8A     -0.056391     9A     -0.056389    10A     -0.051130  
      11A     -0.050941    12A     -0.050294    13A     -0.049859  
      14A     -0.046413    15A     -0.027108    16A     -0.009840  
      17A     -0.009060    18A     -0.008689    19A     -0.007199  
      20A     -0.005852    21A      0.007527    22A      0.013993  
      23A      0.014964    24A      0.016233    25A      0.020071  
      26A      0.024756    27A      0.039302    28A      0.040983  
      29A      0.041674    30A      0.051513    31A      0.063175  
      32A      0.077146    33A      0.082884    34A      0.089550  
      35A      0.094610    36A      0.098592    37A      0.105140  
      38A      0.117993    39A      0.136770    40A      0.138695  
      41A      0.143495    42A      0.149834    43A      0.156956  
      44A      0.162424    45A      0.163622    46A      0.171834  
      47A      0.179720    48A      0.180999    49A      0.186612  
      50A      0.190056    51A      0.199485    52A      0.211054  
      53A      0.218167    54A      0.220356    55A      0.224723  
      56A      0.235407    57A      0.254828    58A      0.257331  
      59A      0.259142    60A      0.262317    61A      0.270345  
      62A      0.278223    63A      0.285466    64A      0.293847  
      65A      0.295848    66A      0.296641    67A      0.299503  
      68A      0.307398    69A      0.311242    70A      0.318363  
      71A      0.322781    72A      0.333850    73A      0.349553  
      74A      0.353983    75A      0.367190    76A      0.367833  
      77A      0.372931    78A      0.378561    79A      0.381971  
      80A      0.385145    81A      0.390849    82A      0.397681  
      83A      0.411283    84A      0.423582    85A      0.434795  
      86A      0.443938    87A      0.454287    88A      0.465266  
      89A      0.494131    90A      0.530871    91A      0.545329  
      92A      0.561686    93A      0.568773    94A      0.579947  
      95A      0.583833    96A      0.591552    97A      0.602747  
      98A      0.613050    99A      0.627910   100A      0.641323  
     101A      0.648182   102A      0.655337   103A      0.659439  
     104A      0.670933   105A      0.685994   106A      0.701805  
     107A      0.711254   108A      0.716262   109A      0.724297  
     110A      0.739492   111A      0.742303   112A      0.750830  
     113A      0.753675   114A      0.762770   115A      0.771502  
     116A      0.780790   117A      0.790803   118A      0.792137  
     119A      0.811083   120A      0.832574   121A      0.835165  
     122A      0.844263   123A      0.846672   124A      0.848443  
     125A      0.858632   126A      0.870138   127A      0.877519  
     128A      0.891904   129A      0.902781   130A      0.908165  
     131A      0.915286   132A      0.916253   133A      0.931799  
     134A      0.947504   135A      0.949723   136A      0.959614  
     137A      0.966379   138A      0.969402   139A      0.981506  
     140A      0.985613   141A      0.997179   142A      1.013853  
     143A      1.021823   144A      1.028014   145A      1.036831  
     146A      1.047580   147A      1.058787   148A      1.067359  
     149A      1.079395   150A      1.095564   151A      1.099159  
     152A      1.108107   153A      1.117529   154A      1.129878  
     155A      1.138333   156A      1.148444   157A      1.162681  
     158A      1.173982   159A      1.181356   160A      1.195588  
     161A      1.205418   162A      1.219162   163A      1.234407  
     164A      1.249187   165A      1.255806   166A      1.273575  
     167A      1.278161   168A      1.297507   169A      1.312083  
     170A      1.329858   171A      1.342257   172A      1.361853  
     173A      1.375019   174A      1.381317   175A      1.389119  
     176A      1.401747   177A      1.412551   178A      1.469781  
     179A      1.527770   180A      1.536490   181A      1.555960  
     182A      1.574321   183A      1.595156   184A      1.619547  
     185A      1.644699   186A      1.648891   187A      1.665286  
     188A      1.675194   189A      1.684734   190A      1.698502  
     191A      1.702846   192A      1.719319   193A      1.742127  
     194A      1.758660   195A      1.769870   196A      1.789998  
     197A      1.800746   198A      1.806907   199A      1.841972  
     200A      1.861326   201A      1.865506   202A      1.885286  
     203A      1.894945   204A      1.896927   205A      1.918822  
     206A      1.928714   207A      1.940082   208A      1.953896  
     209A      1.978658   210A      2.179808   211A      2.206503  
     212A      2.248007   213A      2.250946   214A      2.289098  
     215A      2.293666   216A      2.319998   217A      2.345840  
     218A      2.357452   219A      2.361913   220A      2.371514  
     221A      2.388832   222A      2.414454   223A      2.430816  
     224A      2.448442   225A      2.465510   226A      2.476119  
     227A      2.495990   228A      2.517734   229A      2.551538  
     230A      2.566475   231A      2.597270   232A      2.627096  
     233A      2.643548   234A      2.657716   235A      2.680108  
     236A      2.725689   237A      2.750496   238A      2.770492  
     239A      2.794699   240A      2.827301   241A      2.836097  
     242A      2.860441   243A      2.873726   244A      2.909852  
     245A      2.927887   246A      2.973798   247A      3.007776  
     248A      3.025411   249A      3.035820   250A      3.055772  
     251A      3.069602   252A      3.080142   253A      3.096500  
     254A      3.124924   255A      3.136419   256A      3.145569  
     257A      3.155864   258A      3.167420   259A      3.179626  
     260A      3.196155   261A      3.229351   262A      3.237957  
     263A      3.258314   264A      3.312397   265A      3.357203  
     266A      3.416488   267A      3.462283   268A      3.475355  
     269A      3.520650   270A      3.530022   271A      3.579531  
     272A      3.588745   273A      3.606298   274A      4.161645  
     275A      4.210492   276A      4.224978   277A      4.262884  
     278A      4.271557   279A      4.353598   280A      4.370461  
     281A      4.383447   282A      4.411317   283A      4.418406  
     284A      4.442217   285A      4.478452   286A      4.496273  
     287A      4.518568   288A      4.556420   289A      4.570197  
     290A      4.580399   291A      4.602028   292A      4.617955  
     293A      4.628282   294A      4.664123   295A      4.683540  
     296A      4.690175   297A      4.719292   298A      4.785479  
     299A      4.823496   300A      4.833970   301A      4.861053  
     302A      4.869908   303A      4.888142   304A      4.905889  
     305A      4.929739   306A      4.938163   307A      4.958299  
     308A      4.981938   309A      5.027399   310A      5.066596  
     311A      5.070418   312A      5.104083   313A      5.121448  
     314A      5.147468   315A      5.292255   316A      5.331637  
     317A      5.367028   318A      5.380369   319A      5.414358  
     320A      5.418064   321A      5.458151   322A      5.483642  
     323A      5.518152   324A      5.553109   325A      5.610202  
     326A      5.634658   327A      5.678309   328A      5.721830  
     329A      5.761390   330A      5.803609   331A      6.041901  
     332A      6.120353   333A      6.134101   334A      6.170664  
     335A      6.196140   336A      6.233036   337A      6.296932  
     338A      6.325018   339A      6.353139   340A      6.588543  
     341A      6.644201   342A      6.704944   343A      6.777045  
     344A      6.892124   345A      6.934276   346A      7.010526  
     347A      7.502184   348A      7.508506   349A      7.527353  
     350A      7.554048   351A      7.606657   352A      7.615714  
     353A      7.677524   354A      7.691760   355A      7.851404  
     356A      7.872570   357A      7.895243   358A      7.906854  
     359A      7.924737   360A      8.020854   361A      8.032190  
     362A      8.034474   363A      8.061350   364A      8.095519  
     365A      8.114530   366A      8.155271   367A      8.375679  
     368A      8.539519   369A      8.548532   370A      8.627963  
     371A      8.643601   372A      8.668398   373A      8.673742  
     374A      8.709954   375A      9.578857   376A      9.667987  
     377A      9.682431   378A      9.698340   379A      9.725304  
     380A      9.749073   381A      9.765476   382A      9.772843  
     383A      9.784081   384A      9.805209   385A      9.814530  
     386A      9.830935   387A      9.952811   388A      9.982203  
     389A      9.991379   390A     10.022864   391A     10.828342  
     392A     10.892087   393A     11.014767   394A     11.065836  
     395A     11.560156   396A     11.622696   397A     11.645538  
     398A     11.731723   399A     11.789101   400A     12.040943  
     401A     12.239989   402A     12.264945   403A     13.251663  
     404A     13.333725   405A     13.452374   406A     13.533854  
     407A     13.669689   408A     13.710720   409A     13.756745  
     410A     13.786739   411A     64.269611   412A     65.291170  
     413A     66.188405   414A     66.429975  

    Final Occupation by Irrep:
              A 
    DOCC [     1 ]
    NA   [     1 ]
    NB   [     1 ]

  @DF-RHF Final Energy:    -7.23638493866483

   => Energetics <=

    Nuclear Repulsion Energy =              0.0000000000000000
    One-Electron Energy =                  -8.8880654354025115
    Two-Electron Energy =                   1.6516804967376795
    Total Energy =                         -7.2363849386648322

Computation Completed


Properties will be evaluated at   0.000000,   0.000000,   0.000000 [a0]

Properties computed using the SCF density matrix


 Multipole Moments:

 ------------------------------------------------------------------------------------
     Multipole            Electronic (a.u.)      Nuclear  (a.u.)        Total (a.u.)
 ------------------------------------------------------------------------------------

 L = 1.  Multiply by 2.5417464519 to convert [e a0] to [Debye]
 Dipole X            :          0.0000009            0.0000000            0.0000009
 Dipole Y            :         -0.0000012            0.0000000           -0.0000012
 Dipole Z            :          0.0000044            0.0000000            0.0000044
 Magnitude           :                                                    0.0000046

 ------------------------------------------------------------------------------------

*** tstop() called on ddmfs1 at Mon Jan 22 12:50:17 2024
Module time:
	user time   =      41.25 seconds =       0.69 minutes
	system time =       2.37 seconds =       0.04 minutes
	total time  =          3 seconds =       0.05 minutes
Total time:
	user time   =      41.25 seconds =       0.69 minutes
	system time =       2.37 seconds =       0.04 minutes
	total time  =          3 seconds =       0.05 minutes

*** tstart() called on ddmfs1
*** at Mon Jan 22 12:50:17 2024


  //>>>>>>>>>>>>>>>>>>>>>>>>>>>>>>>>>>>//
  //               DFMP2               //
  //<<<<<<<<<<<<<<<<<<<<<<<<<<<<<<<<<<<//

   => Loading Basis Set <=

    Name: (AUG-CC-PVTZ AUX)
    Role: RIFIT
    Keyword: DF_BASIS_MP2
    atoms 1                     entry LI         line    90 file /ddmfs1b/softs/psi4conda/share/psi4/basis/def2-qzvpp-ri.gbs 
    atoms 2, 5, 8, 11           entry O          line   264 file /ddmfs1b/softs/psi4conda/share/psi4/basis/aug-cc-pvtz-ri.gbs 
    atoms 3-4, 6-7, 9-10, 12-13 entry H          line    30 file /ddmfs1b/softs/psi4conda/share/psi4/basis/aug-cc-pvtz-ri.gbs 

	 --------------------------------------------------------
	                          DF-MP2                         
	      2nd-Order Density-Fitted Moller-Plesset Theory     
	              RMP2 Wavefunction,  20 Threads             
	                                                         
	        Rob Parrish, Justin Turney, Andy Simmonett,      
	           Ed Hohenstein, and C. David Sherrill          
	 --------------------------------------------------------

   => Auxiliary Basis Set <=

  Basis Set: (AUG-CC-PVTZ AUX)
    Blend: AUG-CC-PVTZ-RI + DEF2-QZVPP-RI
    Number of shells: 251
    Number of basis functions: 893
    Number of Cartesian functions: 1114
    Spherical Harmonics?: true
    Max angular momentum: 4

	 --------------------------------------------------------
	                 NBF =   414, NAUX =   893
	 --------------------------------------------------------
	   CLASS    FOCC     OCC    AOCC    AVIR     VIR    FVIR
	   PAIRS       0       1       1     413     413       0
	 --------------------------------------------------------

	-----------------------------------------------------------
	 ==================> DF-MP2 Energies <==================== 
	-----------------------------------------------------------
	 Reference Energy          =      -7.2363849386648322 [Eh]
	 Singles Energy            =      -0.0000000000000000 [Eh]
	 Same-Spin Energy          =       0.0000000000000000 [Eh]
	 Opposite-Spin Energy      =      -0.0174773124514636 [Eh]
	 Correlation Energy        =      -0.0174773124514636 [Eh]
	 Total Energy              =      -7.2538622511162956 [Eh]
	-----------------------------------------------------------
	 ================> DF-SCS-MP2 Energies <================== 
	-----------------------------------------------------------
	 SCS Same-Spin Scale       =       0.3333333333333333 [-]
	 SCS Opposite-Spin Scale   =       1.2000000000000000 [-]
	 SCS Same-Spin Energy      =       0.0000000000000000 [Eh]
	 SCS Opposite-Spin Energy  =      -0.0209727749417563 [Eh]
	 SCS Correlation Energy    =      -0.0209727749417563 [Eh]
	 SCS Total Energy          =      -7.2573577136065888 [Eh]
	-----------------------------------------------------------


*** tstop() called on ddmfs1 at Mon Jan 22 12:50:20 2024
Module time:
	user time   =      15.57 seconds =       0.26 minutes
	system time =       0.87 seconds =       0.01 minutes
	total time  =          3 seconds =       0.05 minutes
Total time:
	user time   =      56.84 seconds =       0.95 minutes
	system time =       3.24 seconds =       0.05 minutes
	total time  =          6 seconds =       0.10 minutes

    Psi4 stopped on: Monday, 22 January 2024 12:50PM
    Psi4 wall time for execution: 0:00:05.39

*** Psi4 exiting successfully. Buy a developer a beer!
