
    -----------------------------------------------------------------------
          Psi4: An Open-Source Ab Initio Electronic Structure Package
                               Psi4 1.8.2 release

                         Git: Rev {} zzzzzzz 


    D. G. A. Smith, L. A. Burns, A. C. Simmonett, R. M. Parrish,
    M. C. Schieber, R. Galvelis, P. Kraus, H. Kruse, R. Di Remigio,
    A. Alenaizan, A. M. James, S. Lehtola, J. P. Misiewicz, M. Scheurer,
    R. A. Shaw, J. B. Schriber, Y. Xie, Z. L. Glick, D. A. Sirianni,
    J. S. O'Brien, J. M. Waldrop, A. Kumar, E. G. Hohenstein,
    B. P. Pritchard, B. R. Brooks, H. F. Schaefer III, A. Yu. Sokolov,
    K. Patkowski, A. E. DePrince III, U. Bozkaya, R. A. King,
    F. A. Evangelista, J. M. Turney, T. D. Crawford, C. D. Sherrill,
    J. Chem. Phys. 152(18) 184108 (2020). https://doi.org/10.1063/5.0006002

                            Additional Code Authors
    E. T. Seidl, C. L. Janssen, E. F. Valeev, M. L. Leininger,
    J. F. Gonthier, R. M. Richard, H. R. McAlexander, M. Saitow, X. Wang,
    P. Verma, M. H. Lechner, A. Jiang, S. Behnle, A. G. Heide,
    M. F. Herbst, and D. L. Poole

             Previous Authors, Complete List of Code Contributors,
                       and Citations for Specific Modules
    https://github.com/psi4/psi4/blob/master/codemeta.json
    https://github.com/psi4/psi4/graphs/contributors
    http://psicode.org/psi4manual/master/introduction.html#citing-psifour

    -----------------------------------------------------------------------


    Psi4 started on: Monday, 22 January 2024 01:10PM

    Process ID: 55139
    Host:       ddmfs1
    PSIDATADIR: /ddmfs1b/softs/psi4conda/share/psi4
    Memory:     500.0 MiB
    Threads:    20
    
  ==> Input File <==

--------------------------------------------------------------------------
MEMORY 60 GB

molecule dimer {
0 1
Gh(Li)     0.000000     0.000000     0.000000
Gh(O)     -1.829508    -0.641529    -0.116596
Gh(H)     -2.245218    -1.401823     0.337083
Gh(H)     -2.405229     0.147066     0.040068
O          1.045908    -1.319112     0.956515
H          0.891268    -2.074872     0.424262
H          1.373886    -1.802633     1.730328
Gh(O)     -0.336450     1.237982     1.473212
Gh(H)     -0.080217     1.043728     2.387034
Gh(H)     -1.249922     1.540474     1.565383
Gh(O)      0.944052     0.330530    -1.628880
Gh(H)      1.016951    -0.286313    -2.447950
Gh(H)      1.828938     0.753977    -1.669468

units ang
no_reorient
no_com
symmetry c1
}

set {
basis        aug-cc-pVTZ
scf_type     df
}

energy("mp2")
--------------------------------------------------------------------------

  Memory set to  55.879 GiB by Python driver.

Scratch directory: /ddmfs1a/scratch/
   => Libint2 <=

    Primary   basis highest AM E, G, H:  5, 4, 3
    Auxiliary basis highest AM E, G, H:  6, 5, 4
    Onebody   basis highest AM E, G, H:  6, 5, 4
    Solid Harmonics ordering:            gaussian

*** tstart() called on ddmfs1
*** at Mon Jan 22 13:10:43 2024

   => Loading Basis Set <=

    Name: AUG-CC-PVTZ
    Role: ORBITAL
    Keyword: BASIS
    atoms 1                     entry LI         line    85 file /ddmfs1b/softs/psi4conda/share/psi4/basis/aug-cc-pvtz.gbs 
    atoms 2, 5, 8, 11           entry O          line   331 file /ddmfs1b/softs/psi4conda/share/psi4/basis/aug-cc-pvtz.gbs 
    atoms 3-4, 6-7, 9-10, 12-13 entry H          line    40 file /ddmfs1b/softs/psi4conda/share/psi4/basis/aug-cc-pvtz.gbs 


         ---------------------------------------------------------
                                   SCF
               by Justin Turney, Rob Parrish, Andy Simmonett
                          and Daniel G. A. Smith
                              RHF Reference
                       20 Threads,  57220 MiB Core
         ---------------------------------------------------------

  ==> Geometry <==

    Molecular point group: c1
    Full point group: C1

    Geometry (in Angstrom), charge = 0, multiplicity = 1:

       Center              X                  Y                   Z               Mass       
    ------------   -----------------  -----------------  -----------------  -----------------
      Gh(LI)          0.000000000000     0.000000000000     0.000000000000     7.016003436600
      Gh(O)          -1.829508000000    -0.641529000000    -0.116596000000    15.994914619570
      Gh(H)          -2.245218000000    -1.401823000000     0.337083000000     1.007825032230
      Gh(H)          -2.405229000000     0.147066000000     0.040068000000     1.007825032230
         O            1.045908000000    -1.319112000000     0.956515000000    15.994914619570
         H            0.891268000000    -2.074872000000     0.424262000000     1.007825032230
         H            1.373886000000    -1.802633000000     1.730328000000     1.007825032230
      Gh(O)          -0.336450000000     1.237982000000     1.473212000000    15.994914619570
      Gh(H)          -0.080217000000     1.043728000000     2.387034000000     1.007825032230
      Gh(H)          -1.249922000000     1.540474000000     1.565383000000     1.007825032230
      Gh(O)           0.944052000000     0.330530000000    -1.628880000000    15.994914619570
      Gh(H)           1.016951000000    -0.286313000000    -2.447950000000     1.007825032230
      Gh(H)           1.828938000000     0.753977000000    -1.669468000000     1.007825032230

  Running in c1 symmetry.

  Rotational constants: A =      0.10268  B =      0.08348  C =      0.07630 [cm^-1]
  Rotational constants: A =   3078.33432  B =   2502.81689  C =   2287.26686 [MHz]
  Nuclear repulsion =    9.256078943795526

  Charge       = 0
  Multiplicity = 1
  Electrons    = 10
  Nalpha       = 5
  Nbeta        = 5

  ==> Algorithm <==

  SCF Algorithm Type is DF.
  DIIS enabled.
  MOM disabled.
  Fractional occupation disabled.
  Guess Type is SAD.
  Energy threshold   = 1.00e-08
  Density threshold  = 1.00e-08
  Integral threshold = 1.00e-12

  ==> Primary Basis <==

  Basis Set: AUG-CC-PVTZ
    Blend: AUG-CC-PVTZ
    Number of shells: 142
    Number of basis functions: 414
    Number of Cartesian functions: 475
    Spherical Harmonics?: true
    Max angular momentum: 3

   => Loading Basis Set <=

    Name: (AUG-CC-PVTZ AUX)
    Role: JKFIT
    Keyword: DF_BASIS_SCF
    atoms 1                     entry LI         line    54 file /ddmfs1b/softs/psi4conda/share/psi4/basis/def2-universal-jkfit.gbs 
    atoms 2, 5, 8, 11           entry O          line   286 file /ddmfs1b/softs/psi4conda/share/psi4/basis/aug-cc-pvtz-jkfit.gbs 
    atoms 3-4, 6-7, 9-10, 12-13 entry H          line    70 file /ddmfs1b/softs/psi4conda/share/psi4/basis/aug-cc-pvtz-jkfit.gbs 

  ==> Integral Setup <==

  DFHelper Memory: AOs need 1.084 GiB; user supplied 41.910 GiB. 
  Using in-core AOs.

  ==> MemDFJK: Density-Fitted J/K Matrices <==

    J tasked:                   Yes
    K tasked:                   Yes
    wK tasked:                   No
    OpenMP threads:              20
    Memory [MiB]:             42915
    Algorithm:                 Core
    Schwarz Cutoff:           1E-12
    Mask sparsity (%):       4.4178
    Fitting Condition:        1E-10

   => Auxiliary Basis Set <=

  Basis Set: (AUG-CC-PVTZ AUX)
    Blend: AUG-CC-PVTZ-JKFIT + DEF2-UNIVERSAL-JKFIT
    Number of shells: 249
    Number of basis functions: 835
    Number of Cartesian functions: 1024
    Spherical Harmonics?: true
    Max angular momentum: 4

  Minimum eigenvalue in the overlap matrix is 1.7273679534E-05.
  Reciprocal condition number of the overlap matrix is 1.1941273085E-06.
    Using symmetric orthogonalization.

  ==> Pre-Iterations <==

  SCF Guess: Superposition of Atomic Densities via on-the-fly atomic UHF (no occupation information).

   -------------------------
    Irrep   Nso     Nmo    
   -------------------------
     A        414     414 
   -------------------------
    Total     414     414
   -------------------------

  ==> Iterations <==

                           Total Energy        Delta E     RMS |[F,P]|

   @DF-RHF iter SAD:   -75.49153616705730   -7.54915e+01   0.00000e+00 
   @DF-RHF iter   1:   -75.97264548454680   -4.81109e-01   1.13541e-03 DIIS/ADIIS
   @DF-RHF iter   2:   -76.02567865576393   -5.30332e-02   7.75649e-04 DIIS/ADIIS
   @DF-RHF iter   3:   -76.05746384605911   -3.17852e-02   5.22563e-05 DIIS
   @DF-RHF iter   4:   -76.05783858606542   -3.74740e-04   1.24898e-05 DIIS
   @DF-RHF iter   5:   -76.05786252184051   -2.39358e-05   2.93077e-06 DIIS
   @DF-RHF iter   6:   -76.05786456058968   -2.03875e-06   6.28063e-07 DIIS
   @DF-RHF iter   7:   -76.05786466145702   -1.00867e-07   1.03597e-07 DIIS
   @DF-RHF iter   8:   -76.05786466382835   -2.37134e-09   1.68458e-08 DIIS
   @DF-RHF iter   9:   -76.05786466387400   -4.56453e-11   3.63513e-09 DIIS
  Energy and wave function converged.


  ==> Post-Iterations <==

    Orbital Energies [Eh]
    ---------------------

    Doubly Occupied:                                                      

       1A    -20.569638     2A     -1.362123     3A     -0.702599  
       4A     -0.602103     5A     -0.513001  

    Virtual:                                                              

       6A      0.008389     7A      0.017712     8A      0.018664  
       9A      0.019526    10A      0.043345    11A      0.053059  
      12A      0.058791    13A      0.059685    14A      0.062099  
      15A      0.065290    16A      0.066954    17A      0.068054  
      18A      0.072435    19A      0.086933    20A      0.089892  
      21A      0.104027    22A      0.139858    23A      0.150795  
      24A      0.151510    25A      0.154374    26A      0.158090  
      27A      0.159202    28A      0.164090    29A      0.168966  
      30A      0.170781    31A      0.180075    32A      0.187457  
      33A      0.189169    34A      0.195818    35A      0.211162  
      36A      0.213230    37A      0.219495    38A      0.230883  
      39A      0.247434    40A      0.256778    41A      0.260143  
      42A      0.264198    43A      0.296943    44A      0.312221  
      45A      0.313789    46A      0.322038    47A      0.326084  
      48A      0.335290    49A      0.345321    50A      0.352822  
      51A      0.363877    52A      0.364284    53A      0.367485  
      54A      0.374474    55A      0.377669    56A      0.381350  
      57A      0.388954    58A      0.391901    59A      0.397379  
      60A      0.405335    61A      0.408889    62A      0.415105  
      63A      0.420877    64A      0.428276    65A      0.431903  
      66A      0.437441    67A      0.438756    68A      0.444199  
      69A      0.449709    70A      0.456459    71A      0.471351  
      72A      0.478340    73A      0.479624    74A      0.484734  
      75A      0.492716    76A      0.500148    77A      0.507855  
      78A      0.516738    79A      0.526605    80A      0.531437  
      81A      0.540594    82A      0.542961    83A      0.558441  
      84A      0.564564    85A      0.585962    86A      0.594787  
      87A      0.599896    88A      0.612151    89A      0.631267  
      90A      0.640137    91A      0.665979    92A      0.706552  
      93A      0.733262    94A      0.762617    95A      0.779301  
      96A      0.787208    97A      0.796764    98A      0.803704  
      99A      0.819090   100A      0.826477   101A      0.836018  
     102A      0.841063   103A      0.842277   104A      0.851968  
     105A      0.858851   106A      0.868178   107A      0.872587  
     108A      0.883655   109A      0.885766   110A      0.892574  
     111A      0.903733   112A      0.918204   113A      0.931923  
     114A      0.941246   115A      0.943471   116A      0.959118  
     117A      0.960826   118A      0.978541   119A      0.988752  
     120A      0.992697   121A      1.004562   122A      1.009994  
     123A      1.012549   124A      1.023403   125A      1.031284  
     126A      1.034939   127A      1.044077   128A      1.049557  
     129A      1.062341   130A      1.064086   131A      1.071911  
     132A      1.088081   133A      1.097916   134A      1.106253  
     135A      1.116487   136A      1.124414   137A      1.129569  
     138A      1.137191   139A      1.140759   140A      1.148327  
     141A      1.163067   142A      1.170450   143A      1.177381  
     144A      1.189492   145A      1.193357   146A      1.200923  
     147A      1.213576   148A      1.222749   149A      1.239318  
     150A      1.243826   151A      1.259027   152A      1.266048  
     153A      1.275292   154A      1.301422   155A      1.304795  
     156A      1.321142   157A      1.329295   158A      1.332219  
     159A      1.358910   160A      1.363109   161A      1.370777  
     162A      1.384325   163A      1.397031   164A      1.426315  
     165A      1.435368   166A      1.448321   167A      1.457846  
     168A      1.480611   169A      1.493744   170A      1.505679  
     171A      1.514156   172A      1.526063   173A      1.552736  
     174A      1.564406   175A      1.578543   176A      1.603329  
     177A      1.616056   178A      1.620616   179A      1.642178  
     180A      1.669260   181A      1.674664   182A      1.698101  
     183A      1.725176   184A      1.738915   185A      1.777898  
     186A      1.786302   187A      1.787177   188A      1.827730  
     189A      1.853595   190A      1.868621   191A      1.899719  
     192A      1.915079   193A      1.918183   194A      1.927956  
     195A      1.937337   196A      1.953542   197A      1.976490  
     198A      1.986606   199A      1.992985   200A      2.019519  
     201A      2.039573   202A      2.056983   203A      2.067912  
     204A      2.075963   205A      2.092524   206A      2.122994  
     207A      2.143583   208A      2.148284   209A      2.187691  
     210A      2.230891   211A      2.334346   212A      2.348836  
     213A      2.410034   214A      2.427677   215A      2.450008  
     216A      2.480085   217A      2.500835   218A      2.538604  
     219A      2.551395   220A      2.568903   221A      2.596674  
     222A      2.610356   223A      2.629295   224A      2.639774  
     225A      2.660289   226A      2.676238   227A      2.684281  
     228A      2.706847   229A      2.718891   230A      2.735060  
     231A      2.758691   232A      2.776014   233A      2.797603  
     234A      2.802393   235A      2.832937   236A      2.849512  
     237A      2.883423   238A      2.898896   239A      2.899525  
     240A      2.912506   241A      2.928024   242A      2.958764  
     243A      2.980801   244A      3.016253   245A      3.032398  
     246A      3.053701   247A      3.078601   248A      3.152187  
     249A      3.157728   250A      3.210334   251A      3.220691  
     252A      3.249719   253A      3.268115   254A      3.283232  
     255A      3.286758   256A      3.310895   257A      3.325959  
     258A      3.335961   259A      3.350375   260A      3.371380  
     261A      3.385795   262A      3.419470   263A      3.435027  
     264A      3.454852   265A      3.493258   266A      3.508424  
     267A      3.556328   268A      3.592666   269A      3.715033  
     270A      3.746626   271A      3.791163   272A      3.808968  
     273A      3.836302   274A      3.893750   275A      3.900626  
     276A      4.009506   277A      4.169922   278A      4.211813  
     279A      4.366975   280A      4.377687   281A      4.421904  
     282A      4.453235   283A      4.462542   284A      4.489144  
     285A      4.533607   286A      4.577655   287A      4.590546  
     288A      4.615618   289A      4.622342   290A      4.633847  
     291A      4.645183   292A      4.650834   293A      4.677989  
     294A      4.686923   295A      4.706245   296A      4.740513  
     297A      4.777303   298A      4.791112   299A      4.802089  
     300A      4.842365   301A      4.870932   302A      4.882890  
     303A      4.893330   304A      4.943725   305A      4.987645  
     306A      5.029819   307A      5.040638   308A      5.077357  
     309A      5.084418   310A      5.110392   311A      5.124392  
     312A      5.139467   313A      5.187518   314A      5.218708  
     315A      5.238239   316A      5.303491   317A      5.314559  
     318A      5.338606   319A      5.369786   320A      5.397978  
     321A      5.475368   322A      5.478200   323A      5.522984  
     324A      5.541924   325A      5.590316   326A      5.620808  
     327A      5.643365   328A      5.679299   329A      5.714768  
     330A      5.743549   331A      5.759443   332A      5.849197  
     333A      5.893743   334A      5.952794   335A      6.007590  
     336A      6.278162   337A      6.315887   338A      6.380578  
     339A      6.416391   340A      6.449160   341A      6.470303  
     342A      6.514100   343A      6.535827   344A      6.646750  
     345A      6.708810   346A      6.753938   347A      6.852867  
     348A      6.977530   349A      7.051751   350A      7.112899  
     351A      7.148760   352A      7.243538   353A      7.253302  
     354A      7.382725   355A      7.450393   356A      7.461477  
     357A      7.577031   358A      7.747500   359A      7.775506  
     360A      7.809723   361A      7.840246   362A      7.846416  
     363A      7.895326   364A      7.935769   365A      7.988194  
     366A      8.051869   367A      8.104714   368A      8.124916  
     369A      8.138356   370A      8.178713   371A      8.210668  
     372A      8.254425   373A      8.269647   374A      8.338478  
     375A      8.401210   376A      8.554571   377A      8.706970  
     378A      8.746108   379A      8.770935   380A      8.788121  
     381A      8.903172   382A      9.013768   383A      9.907557  
     384A      9.952824   385A      9.973531   386A     10.005664  
     387A     10.037341   388A     10.045682   389A     10.062552  
     390A     10.088615   391A     10.129875   392A     10.251550  
     393A     10.297804   394A     10.314106   395A     11.023845  
     396A     11.096769   397A     11.252638   398A     11.788262  
     399A     11.845118   400A     11.960204   401A     12.005673  
     402A     12.100456   403A     12.250773   404A     12.919202  
     405A     13.483451   406A     13.496902   407A     13.631272  
     408A     13.971249   409A     14.041694   410A     14.052089  
     411A     16.495772   412A     63.634381   413A     64.571552  
     414A     65.423418  

    Final Occupation by Irrep:
              A 
    DOCC [     5 ]
    NA   [     5 ]
    NB   [     5 ]

  @DF-RHF Final Energy:   -76.05786466387400

   => Energetics <=

    Nuclear Repulsion Energy =              9.2560789437955258
    One-Electron Energy =                -123.1289563891743484
    Two-Electron Energy =                  37.8150127815048265
    Total Energy =                        -76.0578646638739997

Computation Completed


Properties will be evaluated at   0.000000,   0.000000,   0.000000 [a0]

Properties computed using the SCF density matrix


 Multipole Moments:

 ------------------------------------------------------------------------------------
     Multipole            Electronic (a.u.)      Nuclear  (a.u.)        Total (a.u.)
 ------------------------------------------------------------------------------------

 L = 1.  Multiply by 2.5417464519 to convert [e a0] to [Debye]
 Dipole X            :        -19.9816582           20.0923581            0.1106999
 Dipole Y            :         26.4609109          -27.2695058           -0.8085949
 Dipole Z            :        -18.3809091           18.5319961            0.1510870
 Magnitude           :                                                    0.8300045

 ------------------------------------------------------------------------------------

*** tstop() called on ddmfs1 at Mon Jan 22 13:10:46 2024
Module time:
	user time   =      53.82 seconds =       0.90 minutes
	system time =       2.70 seconds =       0.05 minutes
	total time  =          3 seconds =       0.05 minutes
Total time:
	user time   =      53.82 seconds =       0.90 minutes
	system time =       2.70 seconds =       0.05 minutes
	total time  =          3 seconds =       0.05 minutes

*** tstart() called on ddmfs1
*** at Mon Jan 22 13:10:46 2024


  //>>>>>>>>>>>>>>>>>>>>>>>>>>>>>>>>>>>//
  //               DFMP2               //
  //<<<<<<<<<<<<<<<<<<<<<<<<<<<<<<<<<<<//

   => Loading Basis Set <=

    Name: (AUG-CC-PVTZ AUX)
    Role: RIFIT
    Keyword: DF_BASIS_MP2
    atoms 1                     entry LI         line    90 file /ddmfs1b/softs/psi4conda/share/psi4/basis/def2-qzvpp-ri.gbs 
    atoms 2, 5, 8, 11           entry O          line   264 file /ddmfs1b/softs/psi4conda/share/psi4/basis/aug-cc-pvtz-ri.gbs 
    atoms 3-4, 6-7, 9-10, 12-13 entry H          line    30 file /ddmfs1b/softs/psi4conda/share/psi4/basis/aug-cc-pvtz-ri.gbs 

	 --------------------------------------------------------
	                          DF-MP2                         
	      2nd-Order Density-Fitted Moller-Plesset Theory     
	              RMP2 Wavefunction,  20 Threads             
	                                                         
	        Rob Parrish, Justin Turney, Andy Simmonett,      
	           Ed Hohenstein, and C. David Sherrill          
	 --------------------------------------------------------

   => Auxiliary Basis Set <=

  Basis Set: (AUG-CC-PVTZ AUX)
    Blend: AUG-CC-PVTZ-RI + DEF2-QZVPP-RI
    Number of shells: 251
    Number of basis functions: 893
    Number of Cartesian functions: 1114
    Spherical Harmonics?: true
    Max angular momentum: 4

	 --------------------------------------------------------
	                 NBF =   414, NAUX =   893
	 --------------------------------------------------------
	   CLASS    FOCC     OCC    AOCC    AVIR     VIR    FVIR
	   PAIRS       0       5       5     409     409       0
	 --------------------------------------------------------

	-----------------------------------------------------------
	 ==================> DF-MP2 Energies <==================== 
	-----------------------------------------------------------
	 Reference Energy          =     -76.0578646638739997 [Eh]
	 Singles Energy            =      -0.0000000000000000 [Eh]
	 Same-Spin Energy          =      -0.0685938847802646 [Eh]
	 Opposite-Spin Energy      =      -0.2163054225688960 [Eh]
	 Correlation Energy        =      -0.2848993073491605 [Eh]
	 Total Energy              =     -76.3427639712231638 [Eh]
	-----------------------------------------------------------
	 ================> DF-SCS-MP2 Energies <================== 
	-----------------------------------------------------------
	 SCS Same-Spin Scale       =       0.3333333333333333 [-]
	 SCS Opposite-Spin Scale   =       1.2000000000000000 [-]
	 SCS Same-Spin Energy      =      -0.0228646282600882 [Eh]
	 SCS Opposite-Spin Energy  =      -0.2595665070826751 [Eh]
	 SCS Correlation Energy    =      -0.2824311353427633 [Eh]
	 SCS Total Energy          =     -76.3402957992167615 [Eh]
	-----------------------------------------------------------


*** tstop() called on ddmfs1 at Mon Jan 22 13:10:49 2024
Module time:
	user time   =      16.64 seconds =       0.28 minutes
	system time =       0.97 seconds =       0.02 minutes
	total time  =          3 seconds =       0.05 minutes
Total time:
	user time   =      70.47 seconds =       1.17 minutes
	system time =       3.67 seconds =       0.06 minutes
	total time  =          6 seconds =       0.10 minutes

    Psi4 stopped on: Monday, 22 January 2024 01:10PM
    Psi4 wall time for execution: 0:00:06.04

*** Psi4 exiting successfully. Buy a developer a beer!
