
    -----------------------------------------------------------------------
          Psi4: An Open-Source Ab Initio Electronic Structure Package
                               Psi4 1.8.2 release

                         Git: Rev {} zzzzzzz 


    D. G. A. Smith, L. A. Burns, A. C. Simmonett, R. M. Parrish,
    M. C. Schieber, R. Galvelis, P. Kraus, H. Kruse, R. Di Remigio,
    A. Alenaizan, A. M. James, S. Lehtola, J. P. Misiewicz, M. Scheurer,
    R. A. Shaw, J. B. Schriber, Y. Xie, Z. L. Glick, D. A. Sirianni,
    J. S. O'Brien, J. M. Waldrop, A. Kumar, E. G. Hohenstein,
    B. P. Pritchard, B. R. Brooks, H. F. Schaefer III, A. Yu. Sokolov,
    K. Patkowski, A. E. DePrince III, U. Bozkaya, R. A. King,
    F. A. Evangelista, J. M. Turney, T. D. Crawford, C. D. Sherrill,
    J. Chem. Phys. 152(18) 184108 (2020). https://doi.org/10.1063/5.0006002

                            Additional Code Authors
    E. T. Seidl, C. L. Janssen, E. F. Valeev, M. L. Leininger,
    J. F. Gonthier, R. M. Richard, H. R. McAlexander, M. Saitow, X. Wang,
    P. Verma, M. H. Lechner, A. Jiang, S. Behnle, A. G. Heide,
    M. F. Herbst, and D. L. Poole

             Previous Authors, Complete List of Code Contributors,
                       and Citations for Specific Modules
    https://github.com/psi4/psi4/blob/master/codemeta.json
    https://github.com/psi4/psi4/graphs/contributors
    http://psicode.org/psi4manual/master/introduction.html#citing-psifour

    -----------------------------------------------------------------------


    Psi4 started on: Monday, 22 January 2024 01:11PM

    Process ID: 55357
    Host:       ddmfs1
    PSIDATADIR: /ddmfs1b/softs/psi4conda/share/psi4
    Memory:     500.0 MiB
    Threads:    20
    
  ==> Input File <==

--------------------------------------------------------------------------
MEMORY 60 GB

molecule dimer {
0 1
Gh(Li)     0.000000     0.000000     0.000000
O         -1.959429     0.551722    -0.115906
H         -2.501903     1.114878     0.470899
H         -2.703678     0.065273    -0.568937
Gh(O)      0.234542    -1.408943     1.091451
Gh(H)     -0.520325    -2.028104     0.922529
Gh(H)      0.330550    -1.475194     2.088232
Gh(O)      0.911987     1.610117     0.968941
Gh(H)      1.448281     1.554265     1.803833
Gh(H)      1.223738     2.292862     0.375246
Gh(O)      0.842688     0.233769    -1.798413
Gh(H)      0.637542    -0.124408    -2.680969
Gh(H)      1.557305     0.923962    -1.781956

units ang
no_reorient
no_com
symmetry c1
}

set {
basis        aug-cc-pVTZ
scf_type     df
}

energy("mp2")
--------------------------------------------------------------------------

  Memory set to  55.879 GiB by Python driver.

Scratch directory: /ddmfs1a/scratch/
   => Libint2 <=

    Primary   basis highest AM E, G, H:  5, 4, 3
    Auxiliary basis highest AM E, G, H:  6, 5, 4
    Onebody   basis highest AM E, G, H:  6, 5, 4
    Solid Harmonics ordering:            gaussian

*** tstart() called on ddmfs1
*** at Mon Jan 22 13:11:40 2024

   => Loading Basis Set <=

    Name: AUG-CC-PVTZ
    Role: ORBITAL
    Keyword: BASIS
    atoms 1                     entry LI         line    85 file /ddmfs1b/softs/psi4conda/share/psi4/basis/aug-cc-pvtz.gbs 
    atoms 2, 5, 8, 11           entry O          line   331 file /ddmfs1b/softs/psi4conda/share/psi4/basis/aug-cc-pvtz.gbs 
    atoms 3-4, 6-7, 9-10, 12-13 entry H          line    40 file /ddmfs1b/softs/psi4conda/share/psi4/basis/aug-cc-pvtz.gbs 


         ---------------------------------------------------------
                                   SCF
               by Justin Turney, Rob Parrish, Andy Simmonett
                          and Daniel G. A. Smith
                              RHF Reference
                       20 Threads,  57220 MiB Core
         ---------------------------------------------------------

  ==> Geometry <==

    Molecular point group: c1
    Full point group: C1

    Geometry (in Angstrom), charge = 0, multiplicity = 1:

       Center              X                  Y                   Z               Mass       
    ------------   -----------------  -----------------  -----------------  -----------------
      Gh(LI)          0.000000000000     0.000000000000     0.000000000000     7.016003436600
         O           -1.959429000000     0.551722000000    -0.115906000000    15.994914619570
         H           -2.501903000000     1.114878000000     0.470899000000     1.007825032230
         H           -2.703678000000     0.065273000000    -0.568937000000     1.007825032230
      Gh(O)           0.234542000000    -1.408943000000     1.091451000000    15.994914619570
      Gh(H)          -0.520325000000    -2.028104000000     0.922529000000     1.007825032230
      Gh(H)           0.330550000000    -1.475194000000     2.088232000000     1.007825032230
      Gh(O)           0.911987000000     1.610117000000     0.968941000000    15.994914619570
      Gh(H)           1.448281000000     1.554265000000     1.803833000000     1.007825032230
      Gh(H)           1.223738000000     2.292862000000     0.375246000000     1.007825032230
      Gh(O)           0.842688000000     0.233769000000    -1.798413000000    15.994914619570
      Gh(H)           0.637542000000    -0.124408000000    -2.680969000000     1.007825032230
      Gh(H)           1.557305000000     0.923962000000    -1.781956000000     1.007825032230

  Running in c1 symmetry.

  Rotational constants: A =      0.08808  B =      0.08228  C =      0.07648 [cm^-1]
  Rotational constants: A =   2640.65841  B =   2466.77154  C =   2292.81227 [MHz]
  Nuclear repulsion =    8.927536655324998

  Charge       = 0
  Multiplicity = 1
  Electrons    = 10
  Nalpha       = 5
  Nbeta        = 5

  ==> Algorithm <==

  SCF Algorithm Type is DF.
  DIIS enabled.
  MOM disabled.
  Fractional occupation disabled.
  Guess Type is SAD.
  Energy threshold   = 1.00e-08
  Density threshold  = 1.00e-08
  Integral threshold = 1.00e-12

  ==> Primary Basis <==

  Basis Set: AUG-CC-PVTZ
    Blend: AUG-CC-PVTZ
    Number of shells: 142
    Number of basis functions: 414
    Number of Cartesian functions: 475
    Spherical Harmonics?: true
    Max angular momentum: 3

   => Loading Basis Set <=

    Name: (AUG-CC-PVTZ AUX)
    Role: JKFIT
    Keyword: DF_BASIS_SCF
    atoms 1                     entry LI         line    54 file /ddmfs1b/softs/psi4conda/share/psi4/basis/def2-universal-jkfit.gbs 
    atoms 2, 5, 8, 11           entry O          line   286 file /ddmfs1b/softs/psi4conda/share/psi4/basis/aug-cc-pvtz-jkfit.gbs 
    atoms 3-4, 6-7, 9-10, 12-13 entry H          line    70 file /ddmfs1b/softs/psi4conda/share/psi4/basis/aug-cc-pvtz-jkfit.gbs 

  ==> Integral Setup <==

  DFHelper Memory: AOs need 1.077 GiB; user supplied 41.910 GiB. 
  Using in-core AOs.

  ==> MemDFJK: Density-Fitted J/K Matrices <==

    J tasked:                   Yes
    K tasked:                   Yes
    wK tasked:                   No
    OpenMP threads:              20
    Memory [MiB]:             42915
    Algorithm:                 Core
    Schwarz Cutoff:           1E-12
    Mask sparsity (%):       5.1203
    Fitting Condition:        1E-10

   => Auxiliary Basis Set <=

  Basis Set: (AUG-CC-PVTZ AUX)
    Blend: AUG-CC-PVTZ-JKFIT + DEF2-UNIVERSAL-JKFIT
    Number of shells: 249
    Number of basis functions: 835
    Number of Cartesian functions: 1024
    Spherical Harmonics?: true
    Max angular momentum: 4

  Minimum eigenvalue in the overlap matrix is 1.6508407532E-05.
  Reciprocal condition number of the overlap matrix is 1.1859132075E-06.
    Using symmetric orthogonalization.

  ==> Pre-Iterations <==

  SCF Guess: Superposition of Atomic Densities via on-the-fly atomic UHF (no occupation information).

   -------------------------
    Irrep   Nso     Nmo    
   -------------------------
     A        414     414 
   -------------------------
    Total     414     414
   -------------------------

  ==> Iterations <==

                           Total Energy        Delta E     RMS |[F,P]|

   @DF-RHF iter SAD:   -75.44922400795718   -7.54492e+01   0.00000e+00 
   @DF-RHF iter   1:   -75.96912947953064   -5.19905e-01   1.12786e-03 ADIIS/DIIS
   @DF-RHF iter   2:   -76.02086871621363   -5.17392e-02   7.99574e-04 ADIIS/DIIS
   @DF-RHF iter   3:   -76.05522067380016   -3.43520e-02   5.42764e-05 DIIS
   @DF-RHF iter   4:   -76.05564491506264   -4.24241e-04   1.39145e-05 DIIS
   @DF-RHF iter   5:   -76.05567657949661   -3.16644e-05   3.31456e-06 DIIS
   @DF-RHF iter   6:   -76.05567934637645   -2.76688e-06   7.10358e-07 DIIS
   @DF-RHF iter   7:   -76.05567948094460   -1.34568e-07   1.14919e-07 DIIS
   @DF-RHF iter   8:   -76.05567948392168   -2.97707e-09   1.94911e-08 DIIS
   @DF-RHF iter   9:   -76.05567948398689   -6.52136e-11   4.55989e-09 DIIS
  Energy and wave function converged.


  ==> Post-Iterations <==

    Orbital Energies [Eh]
    ---------------------

    Doubly Occupied:                                                      

       1A    -20.575068     2A     -1.342869     3A     -0.688962  
       4A     -0.591545     5A     -0.509843  

    Virtual:                                                              

       6A      0.008860     7A      0.017961     8A      0.018516  
       9A      0.019484    10A      0.044469    11A      0.053230  
      12A      0.057642    13A      0.061284    14A      0.061747  
      15A      0.063690    16A      0.067843    17A      0.069047  
      18A      0.070756    19A      0.088102    20A      0.100589  
      21A      0.102035    22A      0.141707    23A      0.148076  
      24A      0.149382    25A      0.154972    26A      0.158091  
      27A      0.160829    28A      0.163078    29A      0.166988  
      30A      0.170857    31A      0.181905    32A      0.184402  
      33A      0.188905    34A      0.191186    35A      0.199718  
      36A      0.214985    37A      0.224290    38A      0.231846  
      39A      0.245551    40A      0.256136    41A      0.261261  
      42A      0.280637    43A      0.301728    44A      0.308567  
      45A      0.316254    46A      0.321393    47A      0.322377  
      48A      0.329027    49A      0.339668    50A      0.344017  
      51A      0.354047    52A      0.363666    53A      0.367564  
      54A      0.373927    55A      0.376607    56A      0.381838  
      57A      0.386723    58A      0.391455    59A      0.397734  
      60A      0.401709    61A      0.408174    62A      0.413628  
      63A      0.415699    64A      0.417706    65A      0.428508  
      66A      0.433998    67A      0.440848    68A      0.446859  
      69A      0.451627    70A      0.457782    71A      0.468025  
      72A      0.473067    73A      0.478620    74A      0.487207  
      75A      0.495956    76A      0.500006    77A      0.502883  
      78A      0.506961    79A      0.516210    80A      0.523298  
      81A      0.539975    82A      0.546791    83A      0.556815  
      84A      0.565156    85A      0.580392    86A      0.603429  
      87A      0.606836    88A      0.613294    89A      0.622603  
      90A      0.652442    91A      0.679098    92A      0.691617  
      93A      0.718617    94A      0.753665    95A      0.763851  
      96A      0.785123    97A      0.798865    98A      0.806805  
      99A      0.811083   100A      0.818595   101A      0.826904  
     102A      0.833638   103A      0.840093   104A      0.854808  
     105A      0.856097   106A      0.859358   107A      0.880850  
     108A      0.882658   109A      0.892356   110A      0.896530  
     111A      0.907426   112A      0.908748   113A      0.914359  
     114A      0.932294   115A      0.943200   116A      0.951753  
     117A      0.958828   118A      0.970169   119A      0.975396  
     120A      0.983701   121A      0.988607   122A      0.996909  
     123A      1.004779   124A      1.015349   125A      1.018264  
     126A      1.028985   127A      1.034719   128A      1.051144  
     129A      1.057105   130A      1.067029   131A      1.074667  
     132A      1.079400   133A      1.085490   134A      1.095826  
     135A      1.097109   136A      1.104037   137A      1.118065  
     138A      1.122838   139A      1.132342   140A      1.139708  
     141A      1.149222   142A      1.152137   143A      1.159207  
     144A      1.167011   145A      1.182367   146A      1.194470  
     147A      1.200730   148A      1.211638   149A      1.218253  
     150A      1.233440   151A      1.244410   152A      1.255254  
     153A      1.265449   154A      1.282623   155A      1.287670  
     156A      1.304688   157A      1.311885   158A      1.320012  
     159A      1.328312   160A      1.346204   161A      1.349526  
     162A      1.368583   163A      1.386160   164A      1.394805  
     165A      1.407904   166A      1.412395   167A      1.419467  
     168A      1.437684   169A      1.458115   170A      1.466108  
     171A      1.491857   172A      1.503837   173A      1.515689  
     174A      1.561101   175A      1.581401   176A      1.602027  
     177A      1.613508   178A      1.634800   179A      1.645070  
     180A      1.651609   181A      1.692052   182A      1.706964  
     183A      1.733735   184A      1.742749   185A      1.763200  
     186A      1.783112   187A      1.801068   188A      1.823674  
     189A      1.852230   190A      1.865564   191A      1.885391  
     192A      1.893476   193A      1.899870   194A      1.909336  
     195A      1.939468   196A      1.966228   197A      1.970629  
     198A      1.984511   199A      1.996084   200A      2.002667  
     201A      2.008528   202A      2.032089   203A      2.036841  
     204A      2.043194   205A      2.061875   206A      2.088449  
     207A      2.104202   208A      2.134226   209A      2.147423  
     210A      2.235577   211A      2.266171   212A      2.302234  
     213A      2.387280   214A      2.393679   215A      2.415583  
     216A      2.452760   217A      2.485550   218A      2.548431  
     219A      2.567295   220A      2.577174   221A      2.595650  
     222A      2.612921   223A      2.622817   224A      2.628456  
     225A      2.645233   226A      2.649433   227A      2.674382  
     228A      2.685359   229A      2.711224   230A      2.711801  
     231A      2.729447   232A      2.761724   233A      2.783269  
     234A      2.790251   235A      2.824651   236A      2.833715  
     237A      2.853879   238A      2.862779   239A      2.895730  
     240A      2.920118   241A      2.925642   242A      2.941168  
     243A      2.966891   244A      2.997764   245A      3.008974  
     246A      3.041957   247A      3.077797   248A      3.092630  
     249A      3.121466   250A      3.167925   251A      3.192668  
     252A      3.199953   253A      3.233982   254A      3.258312  
     255A      3.270336   256A      3.277285   257A      3.287563  
     258A      3.322865   259A      3.339825   260A      3.357920  
     261A      3.362928   262A      3.399539   263A      3.403949  
     264A      3.447611   265A      3.485718   266A      3.504224  
     267A      3.580735   268A      3.604529   269A      3.709461  
     270A      3.741390   271A      3.786900   272A      3.822654  
     273A      3.835373   274A      3.847501   275A      3.874548  
     276A      3.935501   277A      4.106469   278A      4.204357  
     279A      4.301482   280A      4.337951   281A      4.396277  
     282A      4.417508   283A      4.433204   284A      4.453450  
     285A      4.519054   286A      4.538656   287A      4.549016  
     288A      4.582617   289A      4.584917   290A      4.600178  
     291A      4.608000   292A      4.621891   293A      4.648026  
     294A      4.656403   295A      4.707360   296A      4.763463  
     297A      4.783473   298A      4.800770   299A      4.823677  
     300A      4.832776   301A      4.843628   302A      4.852942  
     303A      4.874065   304A      4.893866   305A      4.908722  
     306A      5.017003   307A      5.044467   308A      5.070886  
     309A      5.082163   310A      5.102920   311A      5.112033  
     312A      5.125859   313A      5.142226   314A      5.177681  
     315A      5.194049   316A      5.230428   317A      5.251990  
     318A      5.291583   319A      5.296618   320A      5.332397  
     321A      5.346427   322A      5.492801   323A      5.510462  
     324A      5.533372   325A      5.548677   326A      5.555570  
     327A      5.615340   328A      5.629878   329A      5.673165  
     330A      5.728689   331A      5.773260   332A      5.784820  
     333A      5.837707   334A      5.874664   335A      5.953761  
     336A      6.237877   337A      6.283412   338A      6.300162  
     339A      6.335869   340A      6.388649   341A      6.451631  
     342A      6.462989   343A      6.578840   344A      6.632064  
     345A      6.809869   346A      6.867109   347A      6.897828  
     348A      6.981156   349A      7.045626   350A      7.090301  
     351A      7.133924   352A      7.162746   353A      7.207850  
     354A      7.299936   355A      7.395658   356A      7.422548  
     357A      7.515891   358A      7.648679   359A      7.774522  
     360A      7.794333   361A      7.818293   362A      7.824789  
     363A      7.855544   364A      7.863608   365A      7.940576  
     366A      7.973905   367A      8.104684   368A      8.143549  
     369A      8.150101   370A      8.163007   371A      8.243052  
     372A      8.280971   373A      8.321168   374A      8.354907  
     375A      8.364570   376A      8.604020   377A      8.697396  
     378A      8.743692   379A      8.772891   380A      8.800129  
     381A      8.804926   382A      8.839578   383A      9.886051  
     384A      9.923242   385A      9.951643   386A      9.991399  
     387A     10.002913   388A     10.040806   389A     10.049726  
     390A     10.066505   391A     10.093471   392A     10.180088  
     393A     10.219697   394A     10.296679   395A     11.014348  
     396A     11.062878   397A     11.082463   398A     11.781389  
     399A     11.797634   400A     11.876484   401A     11.938494  
     402A     12.172316   403A     12.253634   404A     12.758537  
     405A     13.481591   406A     13.500616   407A     13.529704  
     408A     13.969353   409A     13.981227   410A     14.067888  
     411A     15.372156   412A     63.942440   413A     64.542060  
     414A     64.909206  

    Final Occupation by Irrep:
              A 
    DOCC [     5 ]
    NA   [     5 ]
    NB   [     5 ]

  @DF-RHF Final Energy:   -76.05567948398689

   => Energetics <=

    Nuclear Repulsion Energy =              8.9275366553249977
    One-Electron Energy =                -122.5498565626139253
    Two-Electron Energy =                  37.5666404233020330
    Total Energy =                        -76.0556794839868928

Computation Completed


Properties will be evaluated at   0.000000,   0.000000,   0.000000 [a0]

Properties computed using the SCF density matrix


 Multipole Moments:

 ------------------------------------------------------------------------------------
     Multipole            Electronic (a.u.)      Nuclear  (a.u.)        Total (a.u.)
 ------------------------------------------------------------------------------------

 L = 1.  Multiply by 2.5417464519 to convert [e a0] to [Debye]
 Dipole X            :         38.6352957          -39.4593958           -0.8241001
 Dipole Y            :        -10.5188361           10.5709900            0.0521539
 Dipole Z            :          2.0260404           -1.9375097            0.0885307
 Magnitude           :                                                    0.8304810

 ------------------------------------------------------------------------------------

*** tstop() called on ddmfs1 at Mon Jan 22 13:11:43 2024
Module time:
	user time   =      53.33 seconds =       0.89 minutes
	system time =       2.78 seconds =       0.05 minutes
	total time  =          3 seconds =       0.05 minutes
Total time:
	user time   =      53.33 seconds =       0.89 minutes
	system time =       2.78 seconds =       0.05 minutes
	total time  =          3 seconds =       0.05 minutes

*** tstart() called on ddmfs1
*** at Mon Jan 22 13:11:43 2024


  //>>>>>>>>>>>>>>>>>>>>>>>>>>>>>>>>>>>//
  //               DFMP2               //
  //<<<<<<<<<<<<<<<<<<<<<<<<<<<<<<<<<<<//

   => Loading Basis Set <=

    Name: (AUG-CC-PVTZ AUX)
    Role: RIFIT
    Keyword: DF_BASIS_MP2
    atoms 1                     entry LI         line    90 file /ddmfs1b/softs/psi4conda/share/psi4/basis/def2-qzvpp-ri.gbs 
    atoms 2, 5, 8, 11           entry O          line   264 file /ddmfs1b/softs/psi4conda/share/psi4/basis/aug-cc-pvtz-ri.gbs 
    atoms 3-4, 6-7, 9-10, 12-13 entry H          line    30 file /ddmfs1b/softs/psi4conda/share/psi4/basis/aug-cc-pvtz-ri.gbs 

	 --------------------------------------------------------
	                          DF-MP2                         
	      2nd-Order Density-Fitted Moller-Plesset Theory     
	              RMP2 Wavefunction,  20 Threads             
	                                                         
	        Rob Parrish, Justin Turney, Andy Simmonett,      
	           Ed Hohenstein, and C. David Sherrill          
	 --------------------------------------------------------

   => Auxiliary Basis Set <=

  Basis Set: (AUG-CC-PVTZ AUX)
    Blend: AUG-CC-PVTZ-RI + DEF2-QZVPP-RI
    Number of shells: 251
    Number of basis functions: 893
    Number of Cartesian functions: 1114
    Spherical Harmonics?: true
    Max angular momentum: 4

	 --------------------------------------------------------
	                 NBF =   414, NAUX =   893
	 --------------------------------------------------------
	   CLASS    FOCC     OCC    AOCC    AVIR     VIR    FVIR
	   PAIRS       0       5       5     409     409       0
	 --------------------------------------------------------

	-----------------------------------------------------------
	 ==================> DF-MP2 Energies <==================== 
	-----------------------------------------------------------
	 Reference Energy          =     -76.0556794839868928 [Eh]
	 Singles Energy            =      -0.0000000000000000 [Eh]
	 Same-Spin Energy          =      -0.0691356495023002 [Eh]
	 Opposite-Spin Energy      =      -0.2179928238124962 [Eh]
	 Correlation Energy        =      -0.2871284733147965 [Eh]
	 Total Energy              =     -76.3428079573016873 [Eh]
	-----------------------------------------------------------
	 ================> DF-SCS-MP2 Energies <================== 
	-----------------------------------------------------------
	 SCS Same-Spin Scale       =       0.3333333333333333 [-]
	 SCS Opposite-Spin Scale   =       1.2000000000000000 [-]
	 SCS Same-Spin Energy      =      -0.0230452165007667 [Eh]
	 SCS Opposite-Spin Energy  =      -0.2615913885749955 [Eh]
	 SCS Correlation Energy    =      -0.2846366050757622 [Eh]
	 SCS Total Energy          =     -76.3403160890626538 [Eh]
	-----------------------------------------------------------


*** tstop() called on ddmfs1 at Mon Jan 22 13:11:46 2024
Module time:
	user time   =      16.52 seconds =       0.28 minutes
	system time =       1.01 seconds =       0.02 minutes
	total time  =          3 seconds =       0.05 minutes
Total time:
	user time   =      69.87 seconds =       1.16 minutes
	system time =       3.79 seconds =       0.06 minutes
	total time  =          6 seconds =       0.10 minutes

    Psi4 stopped on: Monday, 22 January 2024 01:11PM
    Psi4 wall time for execution: 0:00:06.05

*** Psi4 exiting successfully. Buy a developer a beer!
