
    -----------------------------------------------------------------------
          Psi4: An Open-Source Ab Initio Electronic Structure Package
                               Psi4 1.8.2 release

                         Git: Rev {} zzzzzzz 


    D. G. A. Smith, L. A. Burns, A. C. Simmonett, R. M. Parrish,
    M. C. Schieber, R. Galvelis, P. Kraus, H. Kruse, R. Di Remigio,
    A. Alenaizan, A. M. James, S. Lehtola, J. P. Misiewicz, M. Scheurer,
    R. A. Shaw, J. B. Schriber, Y. Xie, Z. L. Glick, D. A. Sirianni,
    J. S. O'Brien, J. M. Waldrop, A. Kumar, E. G. Hohenstein,
    B. P. Pritchard, B. R. Brooks, H. F. Schaefer III, A. Yu. Sokolov,
    K. Patkowski, A. E. DePrince III, U. Bozkaya, R. A. King,
    F. A. Evangelista, J. M. Turney, T. D. Crawford, C. D. Sherrill,
    J. Chem. Phys. 152(18) 184108 (2020). https://doi.org/10.1063/5.0006002

                            Additional Code Authors
    E. T. Seidl, C. L. Janssen, E. F. Valeev, M. L. Leininger,
    J. F. Gonthier, R. M. Richard, H. R. McAlexander, M. Saitow, X. Wang,
    P. Verma, M. H. Lechner, A. Jiang, S. Behnle, A. G. Heide,
    M. F. Herbst, and D. L. Poole

             Previous Authors, Complete List of Code Contributors,
                       and Citations for Specific Modules
    https://github.com/psi4/psi4/blob/master/codemeta.json
    https://github.com/psi4/psi4/graphs/contributors
    http://psicode.org/psi4manual/master/introduction.html#citing-psifour

    -----------------------------------------------------------------------


    Psi4 started on: Monday, 22 January 2024 01:39PM

    Process ID: 60847
    Host:       ddmfs1
    PSIDATADIR: /ddmfs1b/softs/psi4conda/share/psi4
    Memory:     500.0 MiB
    Threads:    20
    
  ==> Input File <==

--------------------------------------------------------------------------
MEMORY 60 GB

molecule dimer {
0 1
Gh(Li)     0.000000     0.000000     0.000000
Gh(O)      1.852804     0.610325     0.422366
Gh(H)      2.273260     1.457225     0.600686
Gh(H)      2.485926     0.051439    -0.025591
O         -1.159180     1.378186     0.408450
H         -1.049995     1.647269     1.320449
H         -1.096509     2.226849    -0.094508
Gh(O)     -0.329423    -1.475069     1.145804
Gh(H)     -0.434844    -2.362818     0.770701
Gh(H)     -1.017858    -1.314900     1.802054
Gh(O)      0.503397    -1.152424    -1.784085
Gh(H)      0.322310    -0.760718    -2.631013
Gh(H)      1.362436    -1.632825    -1.984484

units ang
no_reorient
no_com
symmetry c1
}

set {
basis        aug-cc-pVTZ
scf_type     df
}

energy("mp2")
--------------------------------------------------------------------------

  Memory set to  55.879 GiB by Python driver.

Scratch directory: /ddmfs1a/scratch/
   => Libint2 <=

    Primary   basis highest AM E, G, H:  5, 4, 3
    Auxiliary basis highest AM E, G, H:  6, 5, 4
    Onebody   basis highest AM E, G, H:  6, 5, 4
    Solid Harmonics ordering:            gaussian

*** tstart() called on ddmfs1
*** at Mon Jan 22 13:39:48 2024

   => Loading Basis Set <=

    Name: AUG-CC-PVTZ
    Role: ORBITAL
    Keyword: BASIS
    atoms 1                     entry LI         line    85 file /ddmfs1b/softs/psi4conda/share/psi4/basis/aug-cc-pvtz.gbs 
    atoms 2, 5, 8, 11           entry O          line   331 file /ddmfs1b/softs/psi4conda/share/psi4/basis/aug-cc-pvtz.gbs 
    atoms 3-4, 6-7, 9-10, 12-13 entry H          line    40 file /ddmfs1b/softs/psi4conda/share/psi4/basis/aug-cc-pvtz.gbs 


         ---------------------------------------------------------
                                   SCF
               by Justin Turney, Rob Parrish, Andy Simmonett
                          and Daniel G. A. Smith
                              RHF Reference
                       20 Threads,  57220 MiB Core
         ---------------------------------------------------------

  ==> Geometry <==

    Molecular point group: c1
    Full point group: C1

    Geometry (in Angstrom), charge = 0, multiplicity = 1:

       Center              X                  Y                   Z               Mass       
    ------------   -----------------  -----------------  -----------------  -----------------
      Gh(LI)          0.000000000000     0.000000000000     0.000000000000     7.016003436600
      Gh(O)           1.852804000000     0.610325000000     0.422366000000    15.994914619570
      Gh(H)           2.273260000000     1.457225000000     0.600686000000     1.007825032230
      Gh(H)           2.485926000000     0.051439000000    -0.025591000000     1.007825032230
         O           -1.159180000000     1.378186000000     0.408450000000    15.994914619570
         H           -1.049995000000     1.647269000000     1.320449000000     1.007825032230
         H           -1.096509000000     2.226849000000    -0.094508000000     1.007825032230
      Gh(O)          -0.329423000000    -1.475069000000     1.145804000000    15.994914619570
      Gh(H)          -0.434844000000    -2.362818000000     0.770701000000     1.007825032230
      Gh(H)          -1.017858000000    -1.314900000000     1.802054000000     1.007825032230
      Gh(O)           0.503397000000    -1.152424000000    -1.784085000000    15.994914619570
      Gh(H)           0.322310000000    -0.760718000000    -2.631013000000     1.007825032230
      Gh(H)           1.362436000000    -1.632825000000    -1.984484000000     1.007825032230

  Running in c1 symmetry.

  Rotational constants: A =      0.10069  B =      0.07998  C =      0.07183 [cm^-1]
  Rotational constants: A =   3018.67160  B =   2397.79705  C =   2153.40812 [MHz]
  Nuclear repulsion =    9.051710920798858

  Charge       = 0
  Multiplicity = 1
  Electrons    = 10
  Nalpha       = 5
  Nbeta        = 5

  ==> Algorithm <==

  SCF Algorithm Type is DF.
  DIIS enabled.
  MOM disabled.
  Fractional occupation disabled.
  Guess Type is SAD.
  Energy threshold   = 1.00e-08
  Density threshold  = 1.00e-08
  Integral threshold = 1.00e-12

  ==> Primary Basis <==

  Basis Set: AUG-CC-PVTZ
    Blend: AUG-CC-PVTZ
    Number of shells: 142
    Number of basis functions: 414
    Number of Cartesian functions: 475
    Spherical Harmonics?: true
    Max angular momentum: 3

   => Loading Basis Set <=

    Name: (AUG-CC-PVTZ AUX)
    Role: JKFIT
    Keyword: DF_BASIS_SCF
    atoms 1                     entry LI         line    54 file /ddmfs1b/softs/psi4conda/share/psi4/basis/def2-universal-jkfit.gbs 
    atoms 2, 5, 8, 11           entry O          line   286 file /ddmfs1b/softs/psi4conda/share/psi4/basis/aug-cc-pvtz-jkfit.gbs 
    atoms 3-4, 6-7, 9-10, 12-13 entry H          line    70 file /ddmfs1b/softs/psi4conda/share/psi4/basis/aug-cc-pvtz-jkfit.gbs 

  ==> Integral Setup <==

  DFHelper Memory: AOs need 1.082 GiB; user supplied 41.910 GiB. 
  Using in-core AOs.

  ==> MemDFJK: Density-Fitted J/K Matrices <==

    J tasked:                   Yes
    K tasked:                   Yes
    wK tasked:                   No
    OpenMP threads:              20
    Memory [MiB]:             42915
    Algorithm:                 Core
    Schwarz Cutoff:           1E-12
    Mask sparsity (%):       4.6197
    Fitting Condition:        1E-10

   => Auxiliary Basis Set <=

  Basis Set: (AUG-CC-PVTZ AUX)
    Blend: AUG-CC-PVTZ-JKFIT + DEF2-UNIVERSAL-JKFIT
    Number of shells: 249
    Number of basis functions: 835
    Number of Cartesian functions: 1024
    Spherical Harmonics?: true
    Max angular momentum: 4

  Minimum eigenvalue in the overlap matrix is 1.9895805387E-05.
  Reciprocal condition number of the overlap matrix is 1.4013696394E-06.
    Using symmetric orthogonalization.

  ==> Pre-Iterations <==

  SCF Guess: Superposition of Atomic Densities via on-the-fly atomic UHF (no occupation information).

   -------------------------
    Irrep   Nso     Nmo    
   -------------------------
     A        414     414 
   -------------------------
    Total     414     414
   -------------------------

  ==> Iterations <==

                           Total Energy        Delta E     RMS |[F,P]|

   @DF-RHF iter SAD:   -75.46062123036216   -7.54606e+01   0.00000e+00 
   @DF-RHF iter   1:   -75.97363530824643   -5.13014e-01   1.12962e-03 ADIIS/DIIS
   @DF-RHF iter   2:   -76.02578401141254   -5.21487e-02   7.82340e-04 ADIIS/DIIS
   @DF-RHF iter   3:   -76.05834354280421   -3.25595e-02   5.33215e-05 DIIS
   @DF-RHF iter   4:   -76.05875355025229   -4.10007e-04   1.31675e-05 DIIS
   @DF-RHF iter   5:   -76.05878118755045   -2.76373e-05   3.04852e-06 DIIS
   @DF-RHF iter   6:   -76.05878351909192   -2.33154e-06   6.69588e-07 DIIS
   @DF-RHF iter   7:   -76.05878364156152   -1.22470e-07   1.18401e-07 DIIS
   @DF-RHF iter   8:   -76.05878364489206   -3.33054e-09   2.02096e-08 DIIS
   @DF-RHF iter   9:   -76.05878364496961   -7.75486e-11   5.12245e-09 DIIS
  Energy and wave function converged.


  ==> Post-Iterations <==

    Orbital Energies [Eh]
    ---------------------

    Doubly Occupied:                                                      

       1A    -20.570011     2A     -1.346381     3A     -0.707733  
       4A     -0.583408     5A     -0.509330  

    Virtual:                                                              

       6A      0.008485     7A      0.017776     8A      0.018127  
       9A      0.019862    10A      0.043536    11A      0.055722  
      12A      0.056590    13A      0.059415    14A      0.062407  
      15A      0.065424    16A      0.066846    17A      0.070473  
      18A      0.072032    19A      0.083163    20A      0.097135  
      21A      0.104810    22A      0.142488    23A      0.145133  
      24A      0.150374    25A      0.151316    26A      0.157571  
      27A      0.158678    28A      0.165013    29A      0.166712  
      30A      0.172857    31A      0.178202    32A      0.186433  
      33A      0.188655    34A      0.193451    35A      0.201870  
      36A      0.209505    37A      0.215098    38A      0.225691  
      39A      0.239590    40A      0.253045    41A      0.262134  
      42A      0.273508    43A      0.287704    44A      0.303110  
      45A      0.315605    46A      0.318053    47A      0.333369  
      48A      0.338045    49A      0.340399    50A      0.352300  
      51A      0.358617    52A      0.364155    53A      0.371480  
      54A      0.376567    55A      0.377330    56A      0.384119  
      57A      0.386908    58A      0.394274    59A      0.401177  
      60A      0.404082    61A      0.407882    62A      0.414216  
      63A      0.417009    64A      0.421703    65A      0.424629  
      66A      0.430037    67A      0.437384    68A      0.444609  
      69A      0.449030    70A      0.456092    71A      0.460822  
      72A      0.467398    73A      0.477977    74A      0.481300  
      75A      0.486914    76A      0.501334    77A      0.505375  
      78A      0.513331    79A      0.517309    80A      0.518864  
      81A      0.534073    82A      0.538911    83A      0.554903  
      84A      0.558885    85A      0.575344    86A      0.586938  
      87A      0.600095    88A      0.622896    89A      0.627489  
      90A      0.632616    91A      0.683528    92A      0.719764  
      93A      0.731470    94A      0.754119    95A      0.768418  
      96A      0.779585    97A      0.792076    98A      0.801618  
      99A      0.807207   100A      0.818918   101A      0.822569  
     102A      0.840260   103A      0.849694   104A      0.852034  
     105A      0.860901   106A      0.863689   107A      0.867687  
     108A      0.879854   109A      0.887550   110A      0.899335  
     111A      0.907932   112A      0.914220   113A      0.923495  
     114A      0.931207   115A      0.939536   116A      0.952051  
     117A      0.956327   118A      0.966073   119A      0.969907  
     120A      0.978728   121A      0.988812   122A      1.003846  
     123A      1.012623   124A      1.015348   125A      1.027166  
     126A      1.034983   127A      1.038289   128A      1.042608  
     129A      1.053493   130A      1.064255   131A      1.070541  
     132A      1.075979   133A      1.093828   134A      1.096587  
     135A      1.101307   136A      1.104548   137A      1.118770  
     138A      1.126039   139A      1.128790   140A      1.134122  
     141A      1.145535   142A      1.151549   143A      1.165841  
     144A      1.174378   145A      1.185298   146A      1.202236  
     147A      1.205299   148A      1.218892   149A      1.219503  
     150A      1.228407   151A      1.235232   152A      1.253807  
     153A      1.276709   154A      1.288014   155A      1.290145  
     156A      1.295956   157A      1.299779   158A      1.304653  
     159A      1.319237   160A      1.334523   161A      1.341145  
     162A      1.355798   163A      1.371298   164A      1.404956  
     165A      1.414778   166A      1.431569   167A      1.458115  
     168A      1.468949   169A      1.484075   170A      1.494004  
     171A      1.504607   172A      1.515646   173A      1.537132  
     174A      1.553422   175A      1.562269   176A      1.588647  
     177A      1.609872   178A      1.623435   179A      1.646471  
     180A      1.665406   181A      1.694648   182A      1.706592  
     183A      1.721907   184A      1.745243   185A      1.761221  
     186A      1.779563   187A      1.830010   188A      1.836328  
     189A      1.857475   190A      1.871610   191A      1.874841  
     192A      1.885172   193A      1.891638   194A      1.912814  
     195A      1.921711   196A      1.924167   197A      1.949298  
     198A      1.966865   199A      1.987946   200A      2.007426  
     201A      2.020648   202A      2.051351   203A      2.060824  
     204A      2.078970   205A      2.101881   206A      2.113138  
     207A      2.119935   208A      2.127643   209A      2.161834  
     210A      2.221077   211A      2.283588   212A      2.310969  
     213A      2.390140   214A      2.428332   215A      2.445321  
     216A      2.470333   217A      2.510309   218A      2.531618  
     219A      2.535061   220A      2.547596   221A      2.582415  
     222A      2.612931   223A      2.647602   224A      2.661083  
     225A      2.666338   226A      2.669096   227A      2.695602  
     228A      2.711023   229A      2.717237   230A      2.738236  
     231A      2.752680   232A      2.759741   233A      2.777956  
     234A      2.786240   235A      2.799814   236A      2.829865  
     237A      2.836607   238A      2.858997   239A      2.892871  
     240A      2.904595   241A      2.917668   242A      2.943957  
     243A      2.951534   244A      2.996868   245A      3.011371  
     246A      3.041419   247A      3.077055   248A      3.109208  
     249A      3.136400   250A      3.178751   251A      3.198366  
     252A      3.235225   253A      3.254010   254A      3.270285  
     255A      3.308585   256A      3.310720   257A      3.322642  
     258A      3.340183   259A      3.352974   260A      3.375556  
     261A      3.403776   262A      3.424963   263A      3.431816  
     264A      3.454956   265A      3.461939   266A      3.481534  
     267A      3.536025   268A      3.581381   269A      3.729091  
     270A      3.734894   271A      3.765296   272A      3.783516  
     273A      3.788206   274A      3.828749   275A      3.940067  
     276A      3.948112   277A      4.141141   278A      4.265552  
     279A      4.320399   280A      4.360217   281A      4.427619  
     282A      4.441152   283A      4.470127   284A      4.530250  
     285A      4.534053   286A      4.548625   287A      4.563743  
     288A      4.590936   289A      4.609067   290A      4.634639  
     291A      4.653549   292A      4.656985   293A      4.667744  
     294A      4.688306   295A      4.702263   296A      4.760687  
     297A      4.783058   298A      4.795295   299A      4.801866  
     300A      4.855503   301A      4.867887   302A      4.880145  
     303A      4.895112   304A      4.956417   305A      4.963865  
     306A      5.016261   307A      5.036925   308A      5.057484  
     309A      5.074151   310A      5.086007   311A      5.096629  
     312A      5.161763   313A      5.171904   314A      5.188176  
     315A      5.203914   316A      5.216957   317A      5.251715  
     318A      5.281915   319A      5.339196   320A      5.369019  
     321A      5.425578   322A      5.550253   323A      5.566172  
     324A      5.588443   325A      5.602407   326A      5.635676  
     327A      5.652928   328A      5.687533   329A      5.744760  
     330A      5.772702   331A      5.802376   332A      5.828629  
     333A      5.885313   334A      5.955393   335A      5.979492  
     336A      6.226818   337A      6.353574   338A      6.402103  
     339A      6.402248   340A      6.431951   341A      6.451550  
     342A      6.485437   343A      6.615295   344A      6.668328  
     345A      6.832533   346A      6.888935   347A      6.907217  
     348A      7.013970   349A      7.092814   350A      7.125289  
     351A      7.188630   352A      7.228204   353A      7.331234  
     354A      7.368250   355A      7.405658   356A      7.434798  
     357A      7.509646   358A      7.665796   359A      7.770877  
     360A      7.806933   361A      7.812053   362A      7.855148  
     363A      7.912183   364A      7.932946   365A      7.958360  
     366A      8.015406   367A      8.087370   368A      8.143155  
     369A      8.160321   370A      8.177246   371A      8.301537  
     372A      8.309951   373A      8.326080   374A      8.331031  
     375A      8.398159   376A      8.674444   377A      8.816422  
     378A      8.830618   379A      8.860013   380A      8.868908  
     381A      8.892286   382A      8.905541   383A      9.872162  
     384A      9.925600   385A      9.968074   386A      9.989698  
     387A     10.029845   388A     10.040570   389A     10.054409  
     390A     10.090216   391A     10.105595   392A     10.222196  
     393A     10.278464   394A     10.300519   395A     11.133918  
     396A     11.178719   397A     11.250612   398A     11.807954  
     399A     11.835661   400A     11.895915   401A     12.161041  
     402A     12.282416   403A     12.322306   404A     12.993013  
     405A     13.549363   406A     13.573264   407A     13.673726  
     408A     13.935887   409A     14.002865   410A     14.037341  
     411A     16.019874   412A     64.691585   413A     65.230211  
     414A     65.574814  

    Final Occupation by Irrep:
              A 
    DOCC [     5 ]
    NA   [     5 ]
    NB   [     5 ]

  @DF-RHF Final Energy:   -76.05878364496961

   => Energetics <=

    Nuclear Repulsion Energy =              9.0517109207988575
    One-Electron Energy =                -122.7872605219775295
    Two-Electron Energy =                  37.6767659562090813
    Total Energy =                        -76.0587836449695942

Computation Completed


Properties will be evaluated at   0.000000,   0.000000,   0.000000 [a0]

Properties computed using the SCF density matrix


 Multipole Moments:

 ------------------------------------------------------------------------------------
     Multipole            Electronic (a.u.)      Nuclear  (a.u.)        Total (a.u.)
 ------------------------------------------------------------------------------------

 L = 1.  Multiply by 2.5417464519 to convert [e a0] to [Debye]
 Dipole X            :         21.6934475          -21.5805665            0.1128809
 Dipole Y            :        -27.4239061           28.1561747            0.7322686
 Dipole Z            :         -8.2176941            8.4915618            0.2738677
 Magnitude           :                                                    0.7899133

 ------------------------------------------------------------------------------------

*** tstop() called on ddmfs1 at Mon Jan 22 13:39:51 2024
Module time:
	user time   =      53.65 seconds =       0.89 minutes
	system time =       2.66 seconds =       0.04 minutes
	total time  =          3 seconds =       0.05 minutes
Total time:
	user time   =      53.65 seconds =       0.89 minutes
	system time =       2.66 seconds =       0.04 minutes
	total time  =          3 seconds =       0.05 minutes

*** tstart() called on ddmfs1
*** at Mon Jan 22 13:39:51 2024


  //>>>>>>>>>>>>>>>>>>>>>>>>>>>>>>>>>>>//
  //               DFMP2               //
  //<<<<<<<<<<<<<<<<<<<<<<<<<<<<<<<<<<<//

   => Loading Basis Set <=

    Name: (AUG-CC-PVTZ AUX)
    Role: RIFIT
    Keyword: DF_BASIS_MP2
    atoms 1                     entry LI         line    90 file /ddmfs1b/softs/psi4conda/share/psi4/basis/def2-qzvpp-ri.gbs 
    atoms 2, 5, 8, 11           entry O          line   264 file /ddmfs1b/softs/psi4conda/share/psi4/basis/aug-cc-pvtz-ri.gbs 
    atoms 3-4, 6-7, 9-10, 12-13 entry H          line    30 file /ddmfs1b/softs/psi4conda/share/psi4/basis/aug-cc-pvtz-ri.gbs 

	 --------------------------------------------------------
	                          DF-MP2                         
	      2nd-Order Density-Fitted Moller-Plesset Theory     
	              RMP2 Wavefunction,  20 Threads             
	                                                         
	        Rob Parrish, Justin Turney, Andy Simmonett,      
	           Ed Hohenstein, and C. David Sherrill          
	 --------------------------------------------------------

   => Auxiliary Basis Set <=

  Basis Set: (AUG-CC-PVTZ AUX)
    Blend: AUG-CC-PVTZ-RI + DEF2-QZVPP-RI
    Number of shells: 251
    Number of basis functions: 893
    Number of Cartesian functions: 1114
    Spherical Harmonics?: true
    Max angular momentum: 4

	 --------------------------------------------------------
	                 NBF =   414, NAUX =   893
	 --------------------------------------------------------
	   CLASS    FOCC     OCC    AOCC    AVIR     VIR    FVIR
	   PAIRS       0       5       5     409     409       0
	 --------------------------------------------------------

	-----------------------------------------------------------
	 ==================> DF-MP2 Energies <==================== 
	-----------------------------------------------------------
	 Reference Energy          =     -76.0587836449696084 [Eh]
	 Singles Energy            =      -0.0000000000000000 [Eh]
	 Same-Spin Energy          =      -0.0687208741358084 [Eh]
	 Opposite-Spin Energy      =      -0.2169229398996949 [Eh]
	 Correlation Energy        =      -0.2856438140355034 [Eh]
	 Total Energy              =     -76.3444274590051180 [Eh]
	-----------------------------------------------------------
	 ================> DF-SCS-MP2 Energies <================== 
	-----------------------------------------------------------
	 SCS Same-Spin Scale       =       0.3333333333333333 [-]
	 SCS Opposite-Spin Scale   =       1.2000000000000000 [-]
	 SCS Same-Spin Energy      =      -0.0229069580452695 [Eh]
	 SCS Opposite-Spin Energy  =      -0.2603075278796339 [Eh]
	 SCS Correlation Energy    =      -0.2832144859249034 [Eh]
	 SCS Total Energy          =     -76.3419981308945097 [Eh]
	-----------------------------------------------------------


*** tstop() called on ddmfs1 at Mon Jan 22 13:39:54 2024
Module time:
	user time   =      16.48 seconds =       0.27 minutes
	system time =       0.94 seconds =       0.02 minutes
	total time  =          3 seconds =       0.05 minutes
Total time:
	user time   =      70.15 seconds =       1.17 minutes
	system time =       3.60 seconds =       0.06 minutes
	total time  =          6 seconds =       0.10 minutes

    Psi4 stopped on: Monday, 22 January 2024 01:39PM
    Psi4 wall time for execution: 0:00:06.09

*** Psi4 exiting successfully. Buy a developer a beer!
