
    -----------------------------------------------------------------------
          Psi4: An Open-Source Ab Initio Electronic Structure Package
                               Psi4 1.8.2 release

                         Git: Rev {} zzzzzzz 


    D. G. A. Smith, L. A. Burns, A. C. Simmonett, R. M. Parrish,
    M. C. Schieber, R. Galvelis, P. Kraus, H. Kruse, R. Di Remigio,
    A. Alenaizan, A. M. James, S. Lehtola, J. P. Misiewicz, M. Scheurer,
    R. A. Shaw, J. B. Schriber, Y. Xie, Z. L. Glick, D. A. Sirianni,
    J. S. O'Brien, J. M. Waldrop, A. Kumar, E. G. Hohenstein,
    B. P. Pritchard, B. R. Brooks, H. F. Schaefer III, A. Yu. Sokolov,
    K. Patkowski, A. E. DePrince III, U. Bozkaya, R. A. King,
    F. A. Evangelista, J. M. Turney, T. D. Crawford, C. D. Sherrill,
    J. Chem. Phys. 152(18) 184108 (2020). https://doi.org/10.1063/5.0006002

                            Additional Code Authors
    E. T. Seidl, C. L. Janssen, E. F. Valeev, M. L. Leininger,
    J. F. Gonthier, R. M. Richard, H. R. McAlexander, M. Saitow, X. Wang,
    P. Verma, M. H. Lechner, A. Jiang, S. Behnle, A. G. Heide,
    M. F. Herbst, and D. L. Poole

             Previous Authors, Complete List of Code Contributors,
                       and Citations for Specific Modules
    https://github.com/psi4/psi4/blob/master/codemeta.json
    https://github.com/psi4/psi4/graphs/contributors
    http://psicode.org/psi4manual/master/introduction.html#citing-psifour

    -----------------------------------------------------------------------


    Psi4 started on: Monday, 22 January 2024 03:52PM

    Process ID: 74677
    Host:       ddmfs1
    PSIDATADIR: /ddmfs1b/softs/psi4conda/share/psi4
    Memory:     500.0 MiB
    Threads:    20
    
  ==> Input File <==

--------------------------------------------------------------------------
MEMORY 60 GB

molecule dimer {
0 1
Gh(Na)     0.000000     0.000000     0.000000
Gh(O)     -0.763534     0.932846     2.231461
Gh(H)     -0.733128     1.900005     2.285331
Gh(H)     -0.178159     0.502091     2.866138
Gh(O)      0.452399     2.241951    -0.962680
Gh(H)      1.205593     2.615208    -0.515886
Gh(H)      0.800151     2.215705    -1.892096
Gh(O)      0.346113    -2.463872     0.347284
Gh(H)      0.268206    -3.107115    -0.361290
Gh(H)     -0.089641    -3.005871     1.016265
O          2.050775    -0.213605    -1.193701
H          2.004919    -1.173998    -1.292082
H          2.563798    -0.024846    -0.341802
Gh(O)     -1.677611    -0.559730    -1.506099
Gh(H)     -2.457862    -0.155870    -2.009591
Gh(H)     -1.026711    -0.660387    -2.183118

units ang
no_reorient
no_com
symmetry c1
}

set {
basis        aug-cc-pVTZ
scf_type     df
}

energy("mp2")
--------------------------------------------------------------------------

  Memory set to  55.879 GiB by Python driver.

Scratch directory: /ddmfs1a/scratch/
   => Libint2 <=

    Primary   basis highest AM E, G, H:  5, 4, 3
    Auxiliary basis highest AM E, G, H:  6, 5, 4
    Onebody   basis highest AM E, G, H:  6, 5, 4
    Solid Harmonics ordering:            gaussian

*** tstart() called on ddmfs1
*** at Mon Jan 22 15:52:40 2024

   => Loading Basis Set <=

    Name: AUG-CC-PVTZ
    Role: ORBITAL
    Keyword: BASIS
    atoms 1                            entry NA         line   469 file /ddmfs1b/softs/psi4conda/share/psi4/basis/aug-cc-pvtz.gbs 
    atoms 2, 5, 8, 11, 14              entry O          line   331 file /ddmfs1b/softs/psi4conda/share/psi4/basis/aug-cc-pvtz.gbs 
    atoms 3-4, 6-7, 9-10, 12-13, 15-16 entry H          line    40 file /ddmfs1b/softs/psi4conda/share/psi4/basis/aug-cc-pvtz.gbs 


         ---------------------------------------------------------
                                   SCF
               by Justin Turney, Rob Parrish, Andy Simmonett
                          and Daniel G. A. Smith
                              RHF Reference
                       20 Threads,  57220 MiB Core
         ---------------------------------------------------------

  ==> Geometry <==

    Molecular point group: c1
    Full point group: C1

    Geometry (in Angstrom), charge = 0, multiplicity = 1:

       Center              X                  Y                   Z               Mass       
    ------------   -----------------  -----------------  -----------------  -----------------
      Gh(NA)          0.000000000000     0.000000000000     0.000000000000    22.989769282000
      Gh(O)          -0.763534000000     0.932846000000     2.231461000000    15.994914619570
      Gh(H)          -0.733128000000     1.900005000000     2.285331000000     1.007825032230
      Gh(H)          -0.178159000000     0.502091000000     2.866138000000     1.007825032230
      Gh(O)           0.452399000000     2.241951000000    -0.962680000000    15.994914619570
      Gh(H)           1.205593000000     2.615208000000    -0.515886000000     1.007825032230
      Gh(H)           0.800151000000     2.215705000000    -1.892096000000     1.007825032230
      Gh(O)           0.346113000000    -2.463872000000     0.347284000000    15.994914619570
      Gh(H)           0.268206000000    -3.107115000000    -0.361290000000     1.007825032230
      Gh(H)          -0.089641000000    -3.005871000000     1.016265000000     1.007825032230
         O            2.050775000000    -0.213605000000    -1.193701000000    15.994914619570
         H            2.004919000000    -1.173998000000    -1.292082000000     1.007825032230
         H            2.563798000000    -0.024846000000    -0.341802000000     1.007825032230
      Gh(O)          -1.677611000000    -0.559730000000    -1.506099000000    15.994914619570
      Gh(H)          -2.457862000000    -0.155870000000    -2.009591000000     1.007825032230
      Gh(H)          -1.026711000000    -0.660387000000    -2.183118000000     1.007825032230

  Running in c1 symmetry.

  Rotational constants: A =      0.05082  B =      0.04643  C =      0.03861 [cm^-1]
  Rotational constants: A =   1523.60812  B =   1391.90464  C =   1157.46638 [MHz]
  Nuclear repulsion =    8.894802636252672

  Charge       = 0
  Multiplicity = 1
  Electrons    = 10
  Nalpha       = 5
  Nbeta        = 5

  ==> Algorithm <==

  SCF Algorithm Type is DF.
  DIIS enabled.
  MOM disabled.
  Fractional occupation disabled.
  Guess Type is SAD.
  Energy threshold   = 1.00e-08
  Density threshold  = 1.00e-08
  Integral threshold = 1.00e-12

  ==> Primary Basis <==

  Basis Set: AUG-CC-PVTZ
    Blend: AUG-CC-PVTZ
    Number of shells: 176
    Number of basis functions: 510
    Number of Cartesian functions: 584
    Spherical Harmonics?: true
    Max angular momentum: 3

   => Loading Basis Set <=

    Name: (AUG-CC-PVTZ AUX)
    Role: JKFIT
    Keyword: DF_BASIS_SCF
    atoms 1                            entry NA         line   498 file /ddmfs1b/softs/psi4conda/share/psi4/basis/def2-universal-jkfit.gbs 
    atoms 2, 5, 8, 11, 14              entry O          line   286 file /ddmfs1b/softs/psi4conda/share/psi4/basis/aug-cc-pvtz-jkfit.gbs 
    atoms 3-4, 6-7, 9-10, 12-13, 15-16 entry H          line    70 file /ddmfs1b/softs/psi4conda/share/psi4/basis/aug-cc-pvtz-jkfit.gbs 

  ==> Integral Setup <==

  DFHelper Memory: AOs need 2.029 GiB; user supplied 41.910 GiB. 
  Using in-core AOs.

  ==> MemDFJK: Density-Fitted J/K Matrices <==

    J tasked:                   Yes
    K tasked:                   Yes
    wK tasked:                   No
    OpenMP threads:              20
    Memory [MiB]:             42915
    Algorithm:                 Core
    Schwarz Cutoff:           1E-12
    Mask sparsity (%):       8.8374
    Fitting Condition:        1E-10

   => Auxiliary Basis Set <=

  Basis Set: (AUG-CC-PVTZ AUX)
    Blend: AUG-CC-PVTZ-JKFIT + DEF2-UNIVERSAL-JKFIT
    Number of shells: 324
    Number of basis functions: 1092
    Number of Cartesian functions: 1342
    Spherical Harmonics?: true
    Max angular momentum: 4

  Minimum eigenvalue in the overlap matrix is 3.9417663082E-05.
  Reciprocal condition number of the overlap matrix is 2.8464290153E-06.
    Using symmetric orthogonalization.

  ==> Pre-Iterations <==

  SCF Guess: Superposition of Atomic Densities via on-the-fly atomic UHF (no occupation information).

   -------------------------
    Irrep   Nso     Nmo    
   -------------------------
     A        510     510 
   -------------------------
    Total     510     510
   -------------------------

  ==> Iterations <==

                           Total Energy        Delta E     RMS |[F,P]|

   @DF-RHF iter SAD:   -75.43742545284451   -7.54374e+01   0.00000e+00 
   @DF-RHF iter   1:   -75.96999554005046   -5.32570e-01   9.15349e-04 DIIS/ADIIS
   @DF-RHF iter   2:   -76.02157050893713   -5.15750e-02   6.43909e-04 DIIS/ADIIS
   @DF-RHF iter   3:   -76.05527652850316   -3.37060e-02   4.40718e-05 DIIS
   @DF-RHF iter   4:   -76.05571816602597   -4.41638e-04   1.13057e-05 DIIS
   @DF-RHF iter   5:   -76.05575038000167   -3.22140e-05   2.65032e-06 DIIS
   @DF-RHF iter   6:   -76.05575318076248   -2.80076e-06   5.92649e-07 DIIS
   @DF-RHF iter   7:   -76.05575333283549   -1.52073e-07   1.07695e-07 DIIS
   @DF-RHF iter   8:   -76.05575333718735   -4.35186e-09   1.89281e-08 DIIS
   @DF-RHF iter   9:   -76.05575333729915   -1.11797e-10   5.06620e-09 DIIS
  Energy and wave function converged.


  ==> Post-Iterations <==

    Orbital Energies [Eh]
    ---------------------

    Doubly Occupied:                                                      

       1A    -20.571135     2A     -1.336190     3A     -0.705361  
       4A     -0.573403     5A     -0.506987  

    Virtual:                                                              

       6A      0.006849     7A      0.016107     8A      0.016258  
       9A      0.018579    10A      0.036111    11A      0.049914  
      12A      0.051884    13A      0.053501    14A      0.055460  
      15A      0.057237    16A      0.058523    17A      0.062769  
      18A      0.064872    19A      0.079748    20A      0.081857  
      21A      0.083777    22A      0.085579    23A      0.089638  
      24A      0.089948    25A      0.096579    26A      0.105984  
      27A      0.115410    28A      0.119558    29A      0.129044  
      30A      0.141325    31A      0.144277    32A      0.159243  
      33A      0.163211    34A      0.169662    35A      0.174886  
      36A      0.178648    37A      0.181986    38A      0.191271  
      39A      0.198753    40A      0.202842    41A      0.207946  
      42A      0.213768    43A      0.217191    44A      0.221509  
      45A      0.229840    46A      0.231943    47A      0.240461  
      48A      0.246434    49A      0.257332    50A      0.261227  
      51A      0.265123    52A      0.278124    53A      0.284325  
      54A      0.291694    55A      0.300988    56A      0.305393  
      57A      0.315339    58A      0.325227    59A      0.330547  
      60A      0.340420    61A      0.342619    62A      0.345726  
      63A      0.352777    64A      0.356902    65A      0.360264  
      66A      0.366433    67A      0.374700    68A      0.377998  
      69A      0.388691    70A      0.398749    71A      0.401264  
      72A      0.405358    73A      0.417434    74A      0.425782  
      75A      0.426541    76A      0.431466    77A      0.433754  
      78A      0.439839    79A      0.443461    80A      0.447542  
      81A      0.454102    82A      0.456443    83A      0.460738  
      84A      0.468359    85A      0.472037    86A      0.477068  
      87A      0.479693    88A      0.483306    89A      0.493438  
      90A      0.495361    91A      0.501646    92A      0.505791  
      93A      0.513218    94A      0.517851    95A      0.522824  
      96A      0.523874    97A      0.540643    98A      0.551049  
      99A      0.552623   100A      0.563626   101A      0.565505  
     102A      0.587381   103A      0.592858   104A      0.598914  
     105A      0.606523   106A      0.622045   107A      0.635626  
     108A      0.702665   109A      0.708646   110A      0.721928  
     111A      0.727279   112A      0.732030   113A      0.743547  
     114A      0.756864   115A      0.759869   116A      0.770334  
     117A      0.783018   118A      0.788278   119A      0.800515  
     120A      0.806434   121A      0.809392   122A      0.825321  
     123A      0.830940   124A      0.837589   125A      0.842840  
     126A      0.849445   127A      0.856480   128A      0.859308  
     129A      0.866372   130A      0.871386   131A      0.877268  
     132A      0.889114   133A      0.902412   134A      0.906581  
     135A      0.914918   136A      0.919533   137A      0.934173  
     138A      0.938652   139A      0.940195   140A      0.946077  
     141A      0.950084   142A      0.956029   143A      0.969238  
     144A      0.975616   145A      0.981687   146A      0.985619  
     147A      0.989390   148A      1.002768   149A      1.010447  
     150A      1.017638   151A      1.025266   152A      1.027739  
     153A      1.034271   154A      1.039407   155A      1.041079  
     156A      1.055389   157A      1.062980   158A      1.064124  
     159A      1.077694   160A      1.083763   161A      1.090495  
     162A      1.094758   163A      1.098290   164A      1.107407  
     165A      1.113381   166A      1.113807   167A      1.127494  
     168A      1.131307   169A      1.132934   170A      1.143105  
     171A      1.150606   172A      1.158193   173A      1.165022  
     174A      1.169898   175A      1.178767   176A      1.205351  
     177A      1.211276   178A      1.212840   179A      1.225803  
     180A      1.227306   181A      1.242891   182A      1.248358  
     183A      1.254612   184A      1.264582   185A      1.278699  
     186A      1.288300   187A      1.301322   188A      1.304718  
     189A      1.306413   190A      1.318396   191A      1.322847  
     192A      1.330975   193A      1.337527   194A      1.343344  
     195A      1.355310   196A      1.366477   197A      1.387782  
     198A      1.389369   199A      1.403906   200A      1.406917  
     201A      1.422681   202A      1.426470   203A      1.437413  
     204A      1.448292   205A      1.464907   206A      1.472939  
     207A      1.488399   208A      1.493093   209A      1.510634  
     210A      1.522331   211A      1.536965   212A      1.543276  
     213A      1.566507   214A      1.593988   215A      1.601394  
     216A      1.607822   217A      1.651678   218A      1.659784  
     219A      1.676298   220A      1.681885   221A      1.706938  
     222A      1.724425   223A      1.730979   224A      1.759479  
     225A      1.767720   226A      1.797248   227A      1.807329  
     228A      1.827016   229A      1.844061   230A      1.860584  
     231A      1.867926   232A      1.879595   233A      1.885034  
     234A      1.893766   235A      1.906995   236A      1.918178  
     237A      1.933125   238A      1.943390   239A      1.943983  
     240A      1.952119   241A      1.977247   242A      1.980178  
     243A      1.992390   244A      2.000195   245A      2.012638  
     246A      2.021519   247A      2.053547   248A      2.055542  
     249A      2.065290   250A      2.091769   251A      2.120955  
     252A      2.149770   253A      2.155968   254A      2.182060  
     255A      2.293831   256A      2.386021   257A      2.427837  
     258A      2.463995   259A      2.478929   260A      2.506745  
     261A      2.520375   262A      2.529119   263A      2.535170  
     264A      2.541199   265A      2.566245   266A      2.581590  
     267A      2.589506   268A      2.596985   269A      2.611251  
     270A      2.616789   271A      2.627425   272A      2.630656  
     273A      2.637777   274A      2.642878   275A      2.646564  
     276A      2.672196   277A      2.674101   278A      2.686553  
     279A      2.700575   280A      2.711545   281A      2.721265  
     282A      2.744044   283A      2.778159   284A      2.780184  
     285A      2.819634   286A      2.826428   287A      2.841704  
     288A      2.857912   289A      2.878034   290A      2.887473  
     291A      2.900361   292A      2.912739   293A      2.934781  
     294A      2.947278   295A      2.963853   296A      2.976027  
     297A      2.986603   298A      3.007863   299A      3.033714  
     300A      3.067795   301A      3.092451   302A      3.110413  
     303A      3.126523   304A      3.210944   305A      3.235802  
     306A      3.241952   307A      3.251748   308A      3.265112  
     309A      3.278768   310A      3.281091   311A      3.289198  
     312A      3.305474   313A      3.357940   314A      3.368048  
     315A      3.375041   316A      3.378885   317A      3.398473  
     318A      3.415679   319A      3.418972   320A      3.422266  
     321A      3.447000   322A      3.455677   323A      3.489862  
     324A      3.597895   325A      3.655605   326A      3.666402  
     327A      3.669052   328A      3.734373   329A      3.748310  
     330A      3.774160   331A      3.827153   332A      3.900843  
     333A      3.969268   334A      4.157231   335A      4.271777  
     336A      4.304542   337A      4.348041   338A      4.389246  
     339A      4.406802   340A      4.434621   341A      4.441121  
     342A      4.471915   343A      4.479886   344A      4.506092  
     345A      4.509586   346A      4.534253   347A      4.539491  
     348A      4.558783   349A      4.564921   350A      4.579563  
     351A      4.594073   352A      4.609192   353A      4.622395  
     354A      4.627720   355A      4.669072   356A      4.691296  
     357A      4.704439   358A      4.714842   359A      4.725463  
     360A      4.735563   361A      4.745145   362A      4.762309  
     363A      4.771385   364A      4.779882   365A      4.800933  
     366A      4.838588   367A      4.852015   368A      4.865550  
     369A      4.959211   370A      4.968803   371A      4.982120  
     372A      5.009628   373A      5.020982   374A      5.038576  
     375A      5.055976   376A      5.066072   377A      5.078607  
     378A      5.083889   379A      5.118486   380A      5.145776  
     381A      5.159148   382A      5.175287   383A      5.250080  
     384A      5.270651   385A      5.287382   386A      5.311733  
     387A      5.339921   388A      5.371602   389A      5.494188  
     390A      5.514856   391A      5.521849   392A      5.559818  
     393A      5.570630   394A      5.592164   395A      5.626371  
     396A      5.654859   397A      5.672497   398A      5.703255  
     399A      5.709143   400A      5.733554   401A      5.734985  
     402A      5.752222   403A      5.786669   404A      5.840628  
     405A      5.947414   406A      5.973662   407A      6.017342  
     408A      6.210393   409A      6.225869   410A      6.253170  
     411A      6.273587   412A      6.291334   413A      6.320519  
     414A      6.329350   415A      6.376161   416A      6.410807  
     417A      6.598948   418A      6.640435   419A      6.656613  
     420A      6.715588   421A      6.811294   422A      6.857499  
     423A      6.914570   424A      7.041752   425A      7.077708  
     426A      7.097920   427A      7.114466   428A      7.130758  
     429A      7.169827   430A      7.204644   431A      7.235272  
     432A      7.357778   433A      7.363982   434A      7.429940  
     435A      7.476078   436A      7.512142   437A      7.672307  
     438A      7.707928   439A      7.729313   440A      7.746434  
     441A      7.780009   442A      7.789230   443A      7.884178  
     444A      7.896077   445A      7.946306   446A      7.972460  
     447A      7.990952   448A      8.075245   449A      8.080042  
     450A      8.083658   451A      8.131199   452A      8.139685  
     453A      8.156581   454A      8.168721   455A      8.259225  
     456A      8.310347   457A      8.314697   458A      8.323595  
     459A      8.349505   460A      8.673251   461A      8.683246  
     462A      8.724395   463A      8.746751   464A      8.759065  
     465A      8.813178   466A      8.844772   467A      8.870782  
     468A      8.950421   469A      9.851958   470A      9.878244  
     471A      9.901638   472A      9.920370   473A      9.981031  
     474A     10.010643   475A     10.018232   476A     10.036443  
     477A     10.044843   478A     10.057429   479A     10.063013  
     480A     10.080310   481A     10.160538   482A     10.266606  
     483A     10.268027   484A     10.271858   485A     11.064115  
     486A     11.097446   487A     11.189066   488A     11.312694  
     489A     11.815564   490A     11.828759   491A     11.877145  
     492A     11.936260   493A     12.118135   494A     12.172033  
     495A     12.190148   496A     12.219467   497A     13.512794  
     498A     13.550789   499A     13.627464   500A     13.664026  
     501A     13.861340   502A     13.915329   503A     13.952273  
     504A     13.997403   505A     15.550749   506A     64.598117  
     507A     64.817757   508A     65.032197   509A     65.183990  
     510A     65.270470  

    Final Occupation by Irrep:
              A 
    DOCC [     5 ]
    NA   [     5 ]
    NB   [     5 ]

  @DF-RHF Final Energy:   -76.05575333729915

   => Energetics <=

    Nuclear Repulsion Energy =              8.8948026362526722
    One-Electron Energy =                -122.5149572900825774
    Two-Electron Energy =                  37.5644013165307342
    Total Energy =                        -76.0557533372991657

Computation Completed


Properties will be evaluated at   0.000000,   0.000000,   0.000000 [a0]

Properties computed using the SCF density matrix


 Multipole Moments:

 ------------------------------------------------------------------------------------
     Multipole            Electronic (a.u.)      Nuclear  (a.u.)        Total (a.u.)
 ------------------------------------------------------------------------------------

 L = 1.  Multiply by 2.5417464519 to convert [e a0] to [Debye]
 Dipole X            :        -39.3322441           39.6368486            0.3046046
 Dipole Y            :          4.9824856           -5.4947264           -0.5122408
 Dipole Z            :         21.6243578          -21.1337370            0.4906208
 Magnitude           :                                                    0.7719348

 ------------------------------------------------------------------------------------

*** tstop() called on ddmfs1 at Mon Jan 22 15:52:46 2024
Module time:
	user time   =      90.42 seconds =       1.51 minutes
	system time =       5.28 seconds =       0.09 minutes
	total time  =          6 seconds =       0.10 minutes
Total time:
	user time   =      90.42 seconds =       1.51 minutes
	system time =       5.28 seconds =       0.09 minutes
	total time  =          6 seconds =       0.10 minutes

*** tstart() called on ddmfs1
*** at Mon Jan 22 15:52:46 2024


  //>>>>>>>>>>>>>>>>>>>>>>>>>>>>>>>>>>>//
  //               DFMP2               //
  //<<<<<<<<<<<<<<<<<<<<<<<<<<<<<<<<<<<//

   => Loading Basis Set <=

    Name: (AUG-CC-PVTZ AUX)
    Role: RIFIT
    Keyword: DF_BASIS_MP2
    atoms 1                            entry NA         line   610 file /ddmfs1b/softs/psi4conda/share/psi4/basis/def2-qzvpp-ri.gbs 
    atoms 2, 5, 8, 11, 14              entry O          line   264 file /ddmfs1b/softs/psi4conda/share/psi4/basis/aug-cc-pvtz-ri.gbs 
    atoms 3-4, 6-7, 9-10, 12-13, 15-16 entry H          line    30 file /ddmfs1b/softs/psi4conda/share/psi4/basis/aug-cc-pvtz-ri.gbs 

	 --------------------------------------------------------
	                          DF-MP2                         
	      2nd-Order Density-Fitted Moller-Plesset Theory     
	              RMP2 Wavefunction,  20 Threads             
	                                                         
	        Rob Parrish, Justin Turney, Andy Simmonett,      
	           Ed Hohenstein, and C. David Sherrill          
	 --------------------------------------------------------

   => Auxiliary Basis Set <=

  Basis Set: (AUG-CC-PVTZ AUX)
    Blend: AUG-CC-PVTZ-RI + DEF2-QZVPP-RI
    Number of shells: 322
    Number of basis functions: 1156
    Number of Cartesian functions: 1444
    Spherical Harmonics?: true
    Max angular momentum: 4

	 --------------------------------------------------------
	                 NBF =   510, NAUX =  1156
	 --------------------------------------------------------
	   CLASS    FOCC     OCC    AOCC    AVIR     VIR    FVIR
	   PAIRS       0       5       5     505     505       0
	 --------------------------------------------------------

	-----------------------------------------------------------
	 ==================> DF-MP2 Energies <==================== 
	-----------------------------------------------------------
	 Reference Energy          =     -76.0557533372991514 [Eh]
	 Singles Energy            =      -0.0000000000000000 [Eh]
	 Same-Spin Energy          =      -0.0689387925469368 [Eh]
	 Opposite-Spin Energy      =      -0.2175964317659550 [Eh]
	 Correlation Energy        =      -0.2865352243128918 [Eh]
	 Total Energy              =     -76.3422885616120368 [Eh]
	-----------------------------------------------------------
	 ================> DF-SCS-MP2 Energies <================== 
	-----------------------------------------------------------
	 SCS Same-Spin Scale       =       0.3333333333333333 [-]
	 SCS Opposite-Spin Scale   =       1.2000000000000000 [-]
	 SCS Same-Spin Energy      =      -0.0229795975156456 [Eh]
	 SCS Opposite-Spin Energy  =      -0.2611157181191460 [Eh]
	 SCS Correlation Energy    =      -0.2840953156347916 [Eh]
	 SCS Total Energy          =     -76.3398486529339380 [Eh]
	-----------------------------------------------------------


*** tstop() called on ddmfs1 at Mon Jan 22 15:52:53 2024
Module time:
	user time   =      28.51 seconds =       0.48 minutes
	system time =       1.92 seconds =       0.03 minutes
	total time  =          7 seconds =       0.12 minutes
Total time:
	user time   =     118.95 seconds =       1.98 minutes
	system time =       7.20 seconds =       0.12 minutes
	total time  =         13 seconds =       0.22 minutes

    Psi4 stopped on: Monday, 22 January 2024 03:52PM
    Psi4 wall time for execution: 0:00:13.23

*** Psi4 exiting successfully. Buy a developer a beer!
