
    -----------------------------------------------------------------------
          Psi4: An Open-Source Ab Initio Electronic Structure Package
                               Psi4 1.8.2 release

                         Git: Rev {} zzzzzzz 


    D. G. A. Smith, L. A. Burns, A. C. Simmonett, R. M. Parrish,
    M. C. Schieber, R. Galvelis, P. Kraus, H. Kruse, R. Di Remigio,
    A. Alenaizan, A. M. James, S. Lehtola, J. P. Misiewicz, M. Scheurer,
    R. A. Shaw, J. B. Schriber, Y. Xie, Z. L. Glick, D. A. Sirianni,
    J. S. O'Brien, J. M. Waldrop, A. Kumar, E. G. Hohenstein,
    B. P. Pritchard, B. R. Brooks, H. F. Schaefer III, A. Yu. Sokolov,
    K. Patkowski, A. E. DePrince III, U. Bozkaya, R. A. King,
    F. A. Evangelista, J. M. Turney, T. D. Crawford, C. D. Sherrill,
    J. Chem. Phys. 152(18) 184108 (2020). https://doi.org/10.1063/5.0006002

                            Additional Code Authors
    E. T. Seidl, C. L. Janssen, E. F. Valeev, M. L. Leininger,
    J. F. Gonthier, R. M. Richard, H. R. McAlexander, M. Saitow, X. Wang,
    P. Verma, M. H. Lechner, A. Jiang, S. Behnle, A. G. Heide,
    M. F. Herbst, and D. L. Poole

             Previous Authors, Complete List of Code Contributors,
                       and Citations for Specific Modules
    https://github.com/psi4/psi4/blob/master/codemeta.json
    https://github.com/psi4/psi4/graphs/contributors
    http://psicode.org/psi4manual/master/introduction.html#citing-psifour

    -----------------------------------------------------------------------


    Psi4 started on: Monday, 22 January 2024 02:51PM

    Process ID: 69153
    Host:       ddmfs1
    PSIDATADIR: /ddmfs1b/softs/psi4conda/share/psi4
    Memory:     500.0 MiB
    Threads:    20
    
  ==> Input File <==

--------------------------------------------------------------------------
MEMORY 60 GB

molecule dimer {
0 1
Gh(Na)     0.000000     0.000000     0.000000
Gh(O)     -2.058645     0.434487     1.171922
Gh(H)     -2.658565     1.121252     0.841320
Gh(H)     -2.557630    -0.382890     0.953784
Gh(O)      1.051296     1.338895     2.009781
Gh(H)      2.035858     1.255881     2.040475
Gh(H)      0.850641     1.874788     2.758326
O         -0.639434    -1.764377    -1.349866
H         -1.458636    -1.683678    -1.767648
H         -0.058484    -1.996889    -2.070390
Gh(O)      1.802084     1.145751    -1.009113
Gh(H)      2.499224     1.024550    -1.661574
Gh(H)      1.730347     2.091370    -0.837185

units ang
no_reorient
no_com
symmetry c1
}

set {
basis        aug-cc-pVTZ
scf_type     df
}

energy("mp2")
--------------------------------------------------------------------------

  Memory set to  55.879 GiB by Python driver.

Scratch directory: /ddmfs1a/scratch/
   => Libint2 <=

    Primary   basis highest AM E, G, H:  5, 4, 3
    Auxiliary basis highest AM E, G, H:  6, 5, 4
    Onebody   basis highest AM E, G, H:  6, 5, 4
    Solid Harmonics ordering:            gaussian

*** tstart() called on ddmfs1
*** at Mon Jan 22 14:51:39 2024

   => Loading Basis Set <=

    Name: AUG-CC-PVTZ
    Role: ORBITAL
    Keyword: BASIS
    atoms 1                     entry NA         line   469 file /ddmfs1b/softs/psi4conda/share/psi4/basis/aug-cc-pvtz.gbs 
    atoms 2, 5, 8, 11           entry O          line   331 file /ddmfs1b/softs/psi4conda/share/psi4/basis/aug-cc-pvtz.gbs 
    atoms 3-4, 6-7, 9-10, 12-13 entry H          line    40 file /ddmfs1b/softs/psi4conda/share/psi4/basis/aug-cc-pvtz.gbs 


         ---------------------------------------------------------
                                   SCF
               by Justin Turney, Rob Parrish, Andy Simmonett
                          and Daniel G. A. Smith
                              RHF Reference
                       20 Threads,  57220 MiB Core
         ---------------------------------------------------------

  ==> Geometry <==

    Molecular point group: c1
    Full point group: C1

    Geometry (in Angstrom), charge = 0, multiplicity = 1:

       Center              X                  Y                   Z               Mass       
    ------------   -----------------  -----------------  -----------------  -----------------
      Gh(NA)          0.000000000000     0.000000000000     0.000000000000    22.989769282000
      Gh(O)          -2.058645000000     0.434487000000     1.171922000000    15.994914619570
      Gh(H)          -2.658565000000     1.121252000000     0.841320000000     1.007825032230
      Gh(H)          -2.557630000000    -0.382890000000     0.953784000000     1.007825032230
      Gh(O)           1.051296000000     1.338895000000     2.009781000000    15.994914619570
      Gh(H)           2.035858000000     1.255881000000     2.040475000000     1.007825032230
      Gh(H)           0.850641000000     1.874788000000     2.758326000000     1.007825032230
         O           -0.639434000000    -1.764377000000    -1.349866000000    15.994914619570
         H           -1.458636000000    -1.683678000000    -1.767648000000     1.007825032230
         H           -0.058484000000    -1.996889000000    -2.070390000000     1.007825032230
      Gh(O)           1.802084000000     1.145751000000    -1.009113000000    15.994914619570
      Gh(H)           2.499224000000     1.024550000000    -1.661574000000     1.007825032230
      Gh(H)           1.730347000000     2.091370000000    -0.837185000000     1.007825032230

  Running in c1 symmetry.

  Rotational constants: A =      0.08017  B =      0.06373  C =      0.03930 [cm^-1]
  Rotational constants: A =   2403.53766  B =   1910.64419  C =   1178.17706 [MHz]
  Nuclear repulsion =    9.382955398484942

  Charge       = 0
  Multiplicity = 1
  Electrons    = 10
  Nalpha       = 5
  Nbeta        = 5

  ==> Algorithm <==

  SCF Algorithm Type is DF.
  DIIS enabled.
  MOM disabled.
  Fractional occupation disabled.
  Guess Type is SAD.
  Energy threshold   = 1.00e-08
  Density threshold  = 1.00e-08
  Integral threshold = 1.00e-12

  ==> Primary Basis <==

  Basis Set: AUG-CC-PVTZ
    Blend: AUG-CC-PVTZ
    Number of shells: 144
    Number of basis functions: 418
    Number of Cartesian functions: 479
    Spherical Harmonics?: true
    Max angular momentum: 3

   => Loading Basis Set <=

    Name: (AUG-CC-PVTZ AUX)
    Role: JKFIT
    Keyword: DF_BASIS_SCF
    atoms 1                     entry NA         line   498 file /ddmfs1b/softs/psi4conda/share/psi4/basis/def2-universal-jkfit.gbs 
    atoms 2, 5, 8, 11           entry O          line   286 file /ddmfs1b/softs/psi4conda/share/psi4/basis/aug-cc-pvtz-jkfit.gbs 
    atoms 3-4, 6-7, 9-10, 12-13 entry H          line    70 file /ddmfs1b/softs/psi4conda/share/psi4/basis/aug-cc-pvtz-jkfit.gbs 

  ==> Integral Setup <==

  DFHelper Memory: AOs need 1.126 GiB; user supplied 41.910 GiB. 
  Using in-core AOs.

  ==> MemDFJK: Density-Fitted J/K Matrices <==

    J tasked:                   Yes
    K tasked:                   Yes
    wK tasked:                   No
    OpenMP threads:              20
    Memory [MiB]:             42915
    Algorithm:                 Core
    Schwarz Cutoff:           1E-12
    Mask sparsity (%):       9.2626
    Fitting Condition:        1E-10

   => Auxiliary Basis Set <=

  Basis Set: (AUG-CC-PVTZ AUX)
    Blend: AUG-CC-PVTZ-JKFIT + DEF2-UNIVERSAL-JKFIT
    Number of shells: 266
    Number of basis functions: 896
    Number of Cartesian functions: 1101
    Spherical Harmonics?: true
    Max angular momentum: 4

  Minimum eigenvalue in the overlap matrix is 5.4179333047E-05.
  Reciprocal condition number of the overlap matrix is 4.6286517983E-06.
    Using symmetric orthogonalization.

  ==> Pre-Iterations <==

  SCF Guess: Superposition of Atomic Densities via on-the-fly atomic UHF (no occupation information).

   -------------------------
    Irrep   Nso     Nmo    
   -------------------------
     A        418     418 
   -------------------------
    Total     418     418
   -------------------------

  ==> Iterations <==

                           Total Energy        Delta E     RMS |[F,P]|

   @DF-RHF iter SAD:   -75.50049499928474   -7.55005e+01   0.00000e+00 
   @DF-RHF iter   1:   -75.97643871016537   -4.75944e-01   1.12750e-03 DIIS/ADIIS
   @DF-RHF iter   2:   -76.02983246679887   -5.33938e-02   7.52112e-04 DIIS/ADIIS
   @DF-RHF iter   3:   -76.05998962809656   -3.01572e-02   5.09616e-05 DIIS
   @DF-RHF iter   4:   -76.06035325187872   -3.63624e-04   1.16381e-05 DIIS
   @DF-RHF iter   5:   -76.06037373478857   -2.04829e-05   2.60622e-06 DIIS
   @DF-RHF iter   6:   -76.06037536302328   -1.62823e-06   5.65915e-07 DIIS
   @DF-RHF iter   7:   -76.06037544827635   -8.52531e-08   1.03061e-07 DIIS
   @DF-RHF iter   8:   -76.06037545080198   -2.52564e-09   1.69563e-08 DIIS
   @DF-RHF iter   9:   -76.06037545085407   -5.20828e-11   3.98035e-09 DIIS
  Energy and wave function converged.


  ==> Post-Iterations <==

    Orbital Energies [Eh]
    ---------------------

    Doubly Occupied:                                                      

       1A    -20.564342     2A     -1.364937     3A     -0.724402  
       4A     -0.591909     5A     -0.512441  

    Virtual:                                                              

       6A      0.007939     7A      0.016268     8A      0.017169  
       9A      0.018802    10A      0.040426    11A      0.052113  
      12A      0.054481    13A      0.054738    14A      0.057755  
      15A      0.060858    16A      0.063156    17A      0.066369  
      18A      0.067675    19A      0.077472    20A      0.079513  
      21A      0.085020    22A      0.092682    23A      0.098868  
      24A      0.101284    25A      0.113821    26A      0.121221  
      27A      0.136388    28A      0.138845    29A      0.147487  
      30A      0.158206    31A      0.165803    32A      0.177428  
      33A      0.178112    34A      0.181111    35A      0.188418  
      36A      0.189722    37A      0.201352    38A      0.205512  
      39A      0.208726    40A      0.218740    41A      0.223034  
      42A      0.232980    43A      0.242113    44A      0.260147  
      45A      0.269410    46A      0.276499    47A      0.285284  
      48A      0.289239    49A      0.297916    50A      0.304636  
      51A      0.317612    52A      0.324181    53A      0.329911  
      54A      0.335578    55A      0.338974    56A      0.342315  
      57A      0.355401    58A      0.358720    59A      0.364829  
      60A      0.377483    61A      0.384574    62A      0.386963  
      63A      0.391725    64A      0.396769    65A      0.402734  
      66A      0.403691    67A      0.407489    68A      0.414052  
      69A      0.419921    70A      0.425480    71A      0.436267  
      72A      0.440529    73A      0.447451    74A      0.451287  
      75A      0.456614    76A      0.462829    77A      0.468274  
      78A      0.471633    79A      0.478808    80A      0.486620  
      81A      0.492330    82A      0.497973    83A      0.507459  
      84A      0.511527    85A      0.516464    86A      0.520008  
      87A      0.534271    88A      0.544843    89A      0.566375  
      90A      0.571182    91A      0.583381    92A      0.609083  
      93A      0.659814    94A      0.682724    95A      0.685514  
      96A      0.704111    97A      0.710594    98A      0.723154  
      99A      0.735556   100A      0.742713   101A      0.758598  
     102A      0.767343   103A      0.771433   104A      0.780750  
     105A      0.791059   106A      0.803281   107A      0.806217  
     108A      0.819081   109A      0.825899   110A      0.833831  
     111A      0.840145   112A      0.847169   113A      0.857082  
     114A      0.870022   115A      0.882315   116A      0.887765  
     117A      0.895979   118A      0.907109   119A      0.914854  
     120A      0.923154   121A      0.928352   122A      0.940422  
     123A      0.947846   124A      0.953082   125A      0.960138  
     126A      0.968716   127A      0.979957   128A      0.982631  
     129A      0.993152   130A      0.994162   131A      1.006417  
     132A      1.012443   133A      1.025668   134A      1.033938  
     135A      1.039285   136A      1.045083   137A      1.045468  
     138A      1.055143   139A      1.067354   140A      1.073761  
     141A      1.085257   142A      1.089376   143A      1.094627  
     144A      1.095679   145A      1.103231   146A      1.109038  
     147A      1.122502   148A      1.126830   149A      1.132728  
     150A      1.142141   151A      1.143332   152A      1.157306  
     153A      1.167043   154A      1.182670   155A      1.193962  
     156A      1.215314   157A      1.220475   158A      1.236017  
     159A      1.243028   160A      1.252255   161A      1.259431  
     162A      1.272768   163A      1.279395   164A      1.290386  
     165A      1.300167   166A      1.315928   167A      1.321296  
     168A      1.334114   169A      1.344573   170A      1.345599  
     171A      1.358289   172A      1.385633   173A      1.392143  
     174A      1.408813   175A      1.420479   176A      1.431480  
     177A      1.443531   178A      1.472380   179A      1.485181  
     180A      1.512507   181A      1.527155   182A      1.560725  
     183A      1.566305   184A      1.602173   185A      1.620744  
     186A      1.640193   187A      1.674978   188A      1.689229  
     189A      1.720552   190A      1.728265   191A      1.776771  
     192A      1.807780   193A      1.811684   194A      1.827400  
     195A      1.833854   196A      1.838141   197A      1.843756  
     198A      1.863094   199A      1.882300   200A      1.902109  
     201A      1.910005   202A      1.926297   203A      1.949356  
     204A      1.977384   205A      1.994869   206A      2.039735  
     207A      2.056426   208A      2.064997   209A      2.077291  
     210A      2.103466   211A      2.106817   212A      2.120905  
     213A      2.129929   214A      2.201899   215A      2.371999  
     216A      2.396745   217A      2.439272   218A      2.448448  
     219A      2.475512   220A      2.482603   221A      2.511924  
     222A      2.522064   223A      2.542079   224A      2.563926  
     225A      2.568071   226A      2.583414   227A      2.596663  
     228A      2.604272   229A      2.607980   230A      2.622390  
     231A      2.634265   232A      2.640918   233A      2.658195  
     234A      2.671154   235A      2.682243   236A      2.695809  
     237A      2.724291   238A      2.755425   239A      2.757191  
     240A      2.767846   241A      2.789951   242A      2.840194  
     243A      2.852788   244A      2.868686   245A      2.891423  
     246A      2.922600   247A      2.931855   248A      2.943954  
     249A      2.959083   250A      2.983073   251A      3.000609  
     252A      3.032806   253A      3.053800   254A      3.198188  
     255A      3.212204   256A      3.224771   257A      3.249246  
     258A      3.258654   259A      3.308652   260A      3.328555  
     261A      3.331475   262A      3.353136   263A      3.360560  
     264A      3.365955   265A      3.376784   266A      3.401722  
     267A      3.449089   268A      3.454939   269A      3.593017  
     270A      3.628259   271A      3.659600   272A      3.728028  
     273A      3.750759   274A      3.777965   275A      3.863624  
     276A      3.881313   277A      4.128266   278A      4.195302  
     279A      4.322281   280A      4.323096   281A      4.378390  
     282A      4.401867   283A      4.419662   284A      4.438293  
     285A      4.492368   286A      4.509241   287A      4.522718  
     288A      4.536091   289A      4.550183   290A      4.558126  
     291A      4.572661   292A      4.575576   293A      4.595580  
     294A      4.607051   295A      4.644131   296A      4.668504  
     297A      4.688793   298A      4.712481   299A      4.734663  
     300A      4.753184   301A      4.774948   302A      4.790737  
     303A      4.816070   304A      4.885614   305A      4.922893  
     306A      4.956659   307A      4.970572   308A      4.987361  
     309A      4.996499   310A      5.032081   311A      5.043863  
     312A      5.063503   313A      5.101690   314A      5.127960  
     315A      5.208742   316A      5.237973   317A      5.250259  
     318A      5.266272   319A      5.280455   320A      5.333195  
     321A      5.447838   322A      5.486844   323A      5.532202  
     324A      5.542743   325A      5.565372   326A      5.574319  
     327A      5.621600   328A      5.630750   329A      5.635496  
     330A      5.653508   331A      5.690658   332A      5.782516  
     333A      5.784218   334A      5.862917   335A      5.909748  
     336A      5.927826   337A      6.181493   338A      6.244506  
     339A      6.283955   340A      6.301690   341A      6.372095  
     342A      6.409227   343A      6.435133   344A      6.548561  
     345A      6.598346   346A      6.654563   347A      6.719470  
     348A      6.782485   349A      6.793042   350A      7.010075  
     351A      7.024200   352A      7.079389   353A      7.092964  
     354A      7.174856   355A      7.227261   356A      7.305322  
     357A      7.357447   358A      7.381839   359A      7.450307  
     360A      7.469910   361A      7.621033   362A      7.695205  
     363A      7.712774   364A      7.731196   365A      7.743063  
     366A      7.853446   367A      7.873424   368A      7.923284  
     369A      7.945331   370A      8.068104   371A      8.082908  
     372A      8.094547   373A      8.113291   374A      8.145315  
     375A      8.193458   376A      8.258931   377A      8.289213  
     378A      8.297803   379A      8.305935   380A      8.658985  
     381A      8.754002   382A      8.813013   383A      8.816929  
     384A      8.856999   385A      8.882066   386A      9.013192  
     387A      9.829742   388A      9.876393   389A      9.919897  
     390A      9.958971   391A      9.986991   392A     10.005499  
     393A     10.023180   394A     10.047484   395A     10.076272  
     396A     10.233142   397A     10.250607   398A     10.273155  
     399A     11.172877   400A     11.185893   401A     11.216200  
     402A     11.682413   403A     11.713346   404A     11.869509  
     405A     12.008877   406A     12.165231   407A     12.213498  
     408A     13.501319   409A     13.558280   410A     13.571405  
     411A     13.893072   412A     13.915791   413A     13.953166  
     414A     16.815120   415A     64.281634   416A     64.763747  
     417A     64.810407   418A     65.158105  

    Final Occupation by Irrep:
              A 
    DOCC [     5 ]
    NA   [     5 ]
    NB   [     5 ]

  @DF-RHF Final Energy:   -76.06037545085407

   => Energetics <=

    Nuclear Repulsion Energy =              9.3829553984849419
    One-Electron Energy =                -123.3705961218016824
    Two-Electron Energy =                  37.9272652724626624
    Total Energy =                        -76.0603754508540817

Computation Completed


Properties will be evaluated at   0.000000,   0.000000,   0.000000 [a0]

Properties computed using the SCF density matrix


 Multipole Moments:

 ------------------------------------------------------------------------------------
     Multipole            Electronic (a.u.)      Nuclear  (a.u.)        Total (a.u.)
 ------------------------------------------------------------------------------------

 L = 1.  Multiply by 2.5417464519 to convert [e a0] to [Debye]
 Dipole X            :         12.3687957          -12.5337824           -0.1649867
 Dipole Y            :         33.5280665          -33.6287781           -0.1007116
 Dipole Z            :         26.8992421          -27.6598570           -0.7606149
 Magnitude           :                                                    0.7847920

 ------------------------------------------------------------------------------------

*** tstop() called on ddmfs1 at Mon Jan 22 14:51:43 2024
Module time:
	user time   =      62.56 seconds =       1.04 minutes
	system time =       4.35 seconds =       0.07 minutes
	total time  =          4 seconds =       0.07 minutes
Total time:
	user time   =      62.56 seconds =       1.04 minutes
	system time =       4.35 seconds =       0.07 minutes
	total time  =          4 seconds =       0.07 minutes

*** tstart() called on ddmfs1
*** at Mon Jan 22 14:51:43 2024


  //>>>>>>>>>>>>>>>>>>>>>>>>>>>>>>>>>>>//
  //               DFMP2               //
  //<<<<<<<<<<<<<<<<<<<<<<<<<<<<<<<<<<<//

   => Loading Basis Set <=

    Name: (AUG-CC-PVTZ AUX)
    Role: RIFIT
    Keyword: DF_BASIS_MP2
    atoms 1                     entry NA         line   610 file /ddmfs1b/softs/psi4conda/share/psi4/basis/def2-qzvpp-ri.gbs 
    atoms 2, 5, 8, 11           entry O          line   264 file /ddmfs1b/softs/psi4conda/share/psi4/basis/aug-cc-pvtz-ri.gbs 
    atoms 3-4, 6-7, 9-10, 12-13 entry H          line    30 file /ddmfs1b/softs/psi4conda/share/psi4/basis/aug-cc-pvtz-ri.gbs 

	 --------------------------------------------------------
	                          DF-MP2                         
	      2nd-Order Density-Fitted Moller-Plesset Theory     
	              RMP2 Wavefunction,  20 Threads             
	                                                         
	        Rob Parrish, Justin Turney, Andy Simmonett,      
	           Ed Hohenstein, and C. David Sherrill          
	 --------------------------------------------------------

   => Auxiliary Basis Set <=

  Basis Set: (AUG-CC-PVTZ AUX)
    Blend: AUG-CC-PVTZ-RI + DEF2-QZVPP-RI
    Number of shells: 266
    Number of basis functions: 958
    Number of Cartesian functions: 1198
    Spherical Harmonics?: true
    Max angular momentum: 4

	 --------------------------------------------------------
	                 NBF =   418, NAUX =   958
	 --------------------------------------------------------
	   CLASS    FOCC     OCC    AOCC    AVIR     VIR    FVIR
	   PAIRS       0       5       5     413     413       0
	 --------------------------------------------------------

	-----------------------------------------------------------
	 ==================> DF-MP2 Energies <==================== 
	-----------------------------------------------------------
	 Reference Energy          =     -76.0603754508540675 [Eh]
	 Singles Energy            =      -0.0000000000000000 [Eh]
	 Same-Spin Energy          =      -0.0681103205452431 [Eh]
	 Opposite-Spin Energy      =      -0.2148490606573828 [Eh]
	 Correlation Energy        =      -0.2829593812026259 [Eh]
	 Total Energy              =     -76.3433348320566978 [Eh]
	-----------------------------------------------------------
	 ================> DF-SCS-MP2 Energies <================== 
	-----------------------------------------------------------
	 SCS Same-Spin Scale       =       0.3333333333333333 [-]
	 SCS Opposite-Spin Scale   =       1.2000000000000000 [-]
	 SCS Same-Spin Energy      =      -0.0227034401817477 [Eh]
	 SCS Opposite-Spin Energy  =      -0.2578188727888593 [Eh]
	 SCS Correlation Energy    =      -0.2805223129706070 [Eh]
	 SCS Total Energy          =     -76.3408977638246711 [Eh]
	-----------------------------------------------------------


*** tstop() called on ddmfs1 at Mon Jan 22 14:51:48 2024
Module time:
	user time   =      21.39 seconds =       0.36 minutes
	system time =       1.52 seconds =       0.03 minutes
	total time  =          5 seconds =       0.08 minutes
Total time:
	user time   =      83.97 seconds =       1.40 minutes
	system time =       5.87 seconds =       0.10 minutes
	total time  =          9 seconds =       0.15 minutes

    Psi4 stopped on: Monday, 22 January 2024 02:51PM
    Psi4 wall time for execution: 0:00:09.75

*** Psi4 exiting successfully. Buy a developer a beer!
