
    -----------------------------------------------------------------------
          Psi4: An Open-Source Ab Initio Electronic Structure Package
                               Psi4 1.8.2 release

                         Git: Rev {} zzzzzzz 


    D. G. A. Smith, L. A. Burns, A. C. Simmonett, R. M. Parrish,
    M. C. Schieber, R. Galvelis, P. Kraus, H. Kruse, R. Di Remigio,
    A. Alenaizan, A. M. James, S. Lehtola, J. P. Misiewicz, M. Scheurer,
    R. A. Shaw, J. B. Schriber, Y. Xie, Z. L. Glick, D. A. Sirianni,
    J. S. O'Brien, J. M. Waldrop, A. Kumar, E. G. Hohenstein,
    B. P. Pritchard, B. R. Brooks, H. F. Schaefer III, A. Yu. Sokolov,
    K. Patkowski, A. E. DePrince III, U. Bozkaya, R. A. King,
    F. A. Evangelista, J. M. Turney, T. D. Crawford, C. D. Sherrill,
    J. Chem. Phys. 152(18) 184108 (2020). https://doi.org/10.1063/5.0006002

                            Additional Code Authors
    E. T. Seidl, C. L. Janssen, E. F. Valeev, M. L. Leininger,
    J. F. Gonthier, R. M. Richard, H. R. McAlexander, M. Saitow, X. Wang,
    P. Verma, M. H. Lechner, A. Jiang, S. Behnle, A. G. Heide,
    M. F. Herbst, and D. L. Poole

             Previous Authors, Complete List of Code Contributors,
                       and Citations for Specific Modules
    https://github.com/psi4/psi4/blob/master/codemeta.json
    https://github.com/psi4/psi4/graphs/contributors
    http://psicode.org/psi4manual/master/introduction.html#citing-psifour

    -----------------------------------------------------------------------


    Psi4 started on: Monday, 22 January 2024 04:21PM

    Process ID: 77412
    Host:       ddmfs1
    PSIDATADIR: /ddmfs1b/softs/psi4conda/share/psi4
    Memory:     500.0 MiB
    Threads:    20
    
  ==> Input File <==

--------------------------------------------------------------------------
MEMORY 60 GB

molecule dimer {
1 1
Na         0.000000     0.000000     0.000000
Gh(O)      0.708023    -1.342751    -1.859325
Gh(H)      0.651312    -1.530173    -2.824257
Gh(H)      0.765287    -2.234127    -1.494177
Gh(O)      1.966844     1.359311     0.168930
Gh(H)      2.774677     1.014819     0.464956
Gh(H)      2.154278     2.048941    -0.513915
Gh(O)      1.251839    -1.361885     1.616700
Gh(H)      1.002389    -2.318327     1.850238
Gh(H)      2.110395    -1.505860     1.250054
Gh(O)     -1.064373     1.917554    -1.138065
Gh(H)     -1.512374     2.639764    -0.689674
Gh(H)     -1.757728     1.278248    -1.399230
Gh(O)     -2.229190    -0.753886     0.938174
Gh(H)     -2.626923    -1.541755     0.554601
Gh(H)     -2.610605     0.056120     0.627425

units ang
no_reorient
no_com
symmetry c1
}

set {
basis        aug-cc-pVTZ
scf_type     df
}

energy("mp2")
--------------------------------------------------------------------------

  Memory set to  55.879 GiB by Python driver.

Scratch directory: /ddmfs1a/scratch/
   => Libint2 <=

    Primary   basis highest AM E, G, H:  5, 4, 3
    Auxiliary basis highest AM E, G, H:  6, 5, 4
    Onebody   basis highest AM E, G, H:  6, 5, 4
    Solid Harmonics ordering:            gaussian

*** tstart() called on ddmfs1
*** at Mon Jan 22 16:21:17 2024

   => Loading Basis Set <=

    Name: AUG-CC-PVTZ
    Role: ORBITAL
    Keyword: BASIS
    atoms 1                            entry NA         line   469 file /ddmfs1b/softs/psi4conda/share/psi4/basis/aug-cc-pvtz.gbs 
    atoms 2, 5, 8, 11, 14              entry O          line   331 file /ddmfs1b/softs/psi4conda/share/psi4/basis/aug-cc-pvtz.gbs 
    atoms 3-4, 6-7, 9-10, 12-13, 15-16 entry H          line    40 file /ddmfs1b/softs/psi4conda/share/psi4/basis/aug-cc-pvtz.gbs 


         ---------------------------------------------------------
                                   SCF
               by Justin Turney, Rob Parrish, Andy Simmonett
                          and Daniel G. A. Smith
                              RHF Reference
                       20 Threads,  57220 MiB Core
         ---------------------------------------------------------

  ==> Geometry <==

    Molecular point group: c1
    Full point group: C1

    Geometry (in Angstrom), charge = 1, multiplicity = 1:

       Center              X                  Y                   Z               Mass       
    ------------   -----------------  -----------------  -----------------  -----------------
         NA           0.000000000000     0.000000000000     0.000000000000    22.989769282000
      Gh(O)           0.708023000000    -1.342751000000    -1.859325000000    15.994914619570
      Gh(H)           0.651312000000    -1.530173000000    -2.824257000000     1.007825032230
      Gh(H)           0.765287000000    -2.234127000000    -1.494177000000     1.007825032230
      Gh(O)           1.966844000000     1.359311000000     0.168930000000    15.994914619570
      Gh(H)           2.774677000000     1.014819000000     0.464956000000     1.007825032230
      Gh(H)           2.154278000000     2.048941000000    -0.513915000000     1.007825032230
      Gh(O)           1.251839000000    -1.361885000000     1.616700000000    15.994914619570
      Gh(H)           1.002389000000    -2.318327000000     1.850238000000     1.007825032230
      Gh(H)           2.110395000000    -1.505860000000     1.250054000000     1.007825032230
      Gh(O)          -1.064373000000     1.917554000000    -1.138065000000    15.994914619570
      Gh(H)          -1.512374000000     2.639764000000    -0.689674000000     1.007825032230
      Gh(H)          -1.757728000000     1.278248000000    -1.399230000000     1.007825032230
      Gh(O)          -2.229190000000    -0.753886000000     0.938174000000    15.994914619570
      Gh(H)          -2.626923000000    -1.541755000000     0.554601000000     1.007825032230
      Gh(H)          -2.610605000000     0.056120000000     0.627425000000     1.007825032230

  Running in c1 symmetry.

  Rotational constants: A =      0.05047  B =      0.04687  C =      0.03786 [cm^-1]
  Rotational constants: A =   1513.15122  B =   1405.09723  C =   1135.01484 [MHz]
  Nuclear repulsion =    0.000000000000000

  Charge       = 1
  Multiplicity = 1
  Electrons    = 10
  Nalpha       = 5
  Nbeta        = 5

  ==> Algorithm <==

  SCF Algorithm Type is DF.
  DIIS enabled.
  MOM disabled.
  Fractional occupation disabled.
  Guess Type is SAD.
  Energy threshold   = 1.00e-08
  Density threshold  = 1.00e-08
  Integral threshold = 1.00e-12

  ==> Primary Basis <==

  Basis Set: AUG-CC-PVTZ
    Blend: AUG-CC-PVTZ
    Number of shells: 176
    Number of basis functions: 510
    Number of Cartesian functions: 584
    Spherical Harmonics?: true
    Max angular momentum: 3

   => Loading Basis Set <=

    Name: (AUG-CC-PVTZ AUX)
    Role: JKFIT
    Keyword: DF_BASIS_SCF
    atoms 1                            entry NA         line   498 file /ddmfs1b/softs/psi4conda/share/psi4/basis/def2-universal-jkfit.gbs 
    atoms 2, 5, 8, 11, 14              entry O          line   286 file /ddmfs1b/softs/psi4conda/share/psi4/basis/aug-cc-pvtz-jkfit.gbs 
    atoms 3-4, 6-7, 9-10, 12-13, 15-16 entry H          line    70 file /ddmfs1b/softs/psi4conda/share/psi4/basis/aug-cc-pvtz-jkfit.gbs 

  ==> Integral Setup <==

  DFHelper Memory: AOs need 2.017 GiB; user supplied 41.910 GiB. 
  Using in-core AOs.

  ==> MemDFJK: Density-Fitted J/K Matrices <==

    J tasked:                   Yes
    K tasked:                   Yes
    wK tasked:                   No
    OpenMP threads:              20
    Memory [MiB]:             42915
    Algorithm:                 Core
    Schwarz Cutoff:           1E-12
    Mask sparsity (%):       9.4271
    Fitting Condition:        1E-10

   => Auxiliary Basis Set <=

  Basis Set: (AUG-CC-PVTZ AUX)
    Blend: AUG-CC-PVTZ-JKFIT + DEF2-UNIVERSAL-JKFIT
    Number of shells: 324
    Number of basis functions: 1092
    Number of Cartesian functions: 1342
    Spherical Harmonics?: true
    Max angular momentum: 4

  Minimum eigenvalue in the overlap matrix is 3.9041404489E-05.
  Reciprocal condition number of the overlap matrix is 2.9059722120E-06.
    Using symmetric orthogonalization.

  ==> Pre-Iterations <==

  SCF Guess: Superposition of Atomic Densities via on-the-fly atomic UHF (no occupation information).

   -------------------------
    Irrep   Nso     Nmo    
   -------------------------
     A        510     510 
   -------------------------
    Total     510     510
   -------------------------

  ==> Iterations <==

                           Total Energy        Delta E     RMS |[F,P]|

   @DF-RHF iter SAD:  -161.74573957240284   -1.61746e+02   0.00000e+00 
   @DF-RHF iter   1:  -161.67607133223530    6.96682e-02   1.24379e-05 DIIS
   @DF-RHF iter   2:  -161.67608971683384   -1.83846e-05   2.33526e-06 DIIS
   @DF-RHF iter   3:  -161.67609022224542   -5.05412e-07   1.18867e-07 DIIS
   @DF-RHF iter   4:  -161.67609022325684   -1.01141e-09   1.46925e-08 DIIS
   @DF-RHF iter   5:  -161.67609022327269   -1.58593e-11   5.64263e-10 DIIS
  Energy and wave function converged.


  ==> Post-Iterations <==

    Orbital Energies [Eh]
    ---------------------

    Doubly Occupied:                                                      

       1A    -40.760518     2A     -3.073831     3A     -1.797198  
       4A     -1.797164     5A     -1.797140  

    Virtual:                                                              

       6A     -0.181805     7A     -0.109438     8A     -0.109434  
       9A     -0.109431    10A     -0.070081    11A     -0.052564  
      12A     -0.052093    13A     -0.051586    14A     -0.051365  
      15A     -0.051140    16A     -0.049316    17A     -0.049210  
      18A     -0.049178    19A     -0.027164    20A     -0.014251  
      21A     -0.013859    22A     -0.011080    23A     -0.010384  
      24A     -0.008645    25A     -0.006520    26A     -0.005085  
      27A     -0.003777    28A     -0.002212    29A      0.006665  
      30A      0.008282    31A      0.021400    32A      0.022449  
      33A      0.026248    34A      0.029410    35A      0.034526  
      36A      0.042042    37A      0.043907    38A      0.059949  
      39A      0.069174    40A      0.073090    41A      0.075448  
      42A      0.077935    43A      0.082166    44A      0.091469  
      45A      0.093442    46A      0.097893    47A      0.100042  
      48A      0.105583    49A      0.105985    50A      0.118153  
      51A      0.123634    52A      0.124728    53A      0.128301  
      54A      0.132297    55A      0.148814    56A      0.154565  
      57A      0.169009    58A      0.176988    59A      0.186973  
      60A      0.192737    61A      0.195100    62A      0.197561  
      63A      0.201034    64A      0.206997    65A      0.215268  
      66A      0.223763    67A      0.230675    68A      0.235428  
      69A      0.237938    70A      0.240701    71A      0.250343  
      72A      0.258211    73A      0.261708    74A      0.264662  
      75A      0.265259    76A      0.274079    77A      0.278598  
      78A      0.282213    79A      0.289996    80A      0.296450  
      81A      0.300238    82A      0.302883    83A      0.310960  
      84A      0.313108    85A      0.315559    86A      0.316744  
      87A      0.326694    88A      0.334407    89A      0.339074  
      90A      0.341117    91A      0.347506    92A      0.355311  
      93A      0.357236    94A      0.363418    95A      0.366606  
      96A      0.375418    97A      0.384001    98A      0.384585  
      99A      0.397707   100A      0.403976   101A      0.406821  
     102A      0.412149   103A      0.417398   104A      0.433131  
     105A      0.445633   106A      0.450824   107A      0.460357  
     108A      0.468445   109A      0.474382   110A      0.482938  
     111A      0.500768   112A      0.524158   113A      0.539007  
     114A      0.549646   115A      0.555809   116A      0.568562  
     117A      0.569435   118A      0.578415   119A      0.590394  
     120A      0.600538   121A      0.608734   122A      0.616421  
     123A      0.630940   124A      0.650618   125A      0.655524  
     126A      0.663304   127A      0.666484   128A      0.670368  
     129A      0.680395   130A      0.687090   131A      0.693358  
     132A      0.702463   133A      0.710895   134A      0.718595  
     135A      0.728690   136A      0.731843   137A      0.740186  
     138A      0.750252   139A      0.760715   140A      0.768746  
     141A      0.774662   142A      0.779510   143A      0.784770  
     144A      0.797647   145A      0.802888   146A      0.811622  
     147A      0.815720   148A      0.819397   149A      0.825894  
     150A      0.837528   151A      0.840248   152A      0.851991  
     153A      0.859030   154A      0.861518   155A      0.869221  
     156A      0.873229   157A      0.879180   158A      0.886221  
     159A      0.895834   160A      0.898969   161A      0.907526  
     162A      0.913147   163A      0.916919   164A      0.929787  
     165A      0.933938   166A      0.936601   167A      0.944169  
     168A      0.947466   169A      0.960705   170A      0.964079  
     171A      0.975335   172A      0.986172   173A      0.989129  
     174A      1.003090   175A      1.008945   176A      1.017887  
     177A      1.031925   178A      1.038614   179A      1.043417  
     180A      1.053285   181A      1.055144   182A      1.064309  
     183A      1.067636   184A      1.077132   185A      1.097251  
     186A      1.103390   187A      1.110219   188A      1.112750  
     189A      1.116721   190A      1.130875   191A      1.136059  
     192A      1.148106   193A      1.160645   194A      1.164079  
     195A      1.171106   196A      1.175751   197A      1.194734  
     198A      1.206112   199A      1.212944   200A      1.221692  
     201A      1.227687   202A      1.244041   203A      1.258021  
     204A      1.263133   205A      1.268448   206A      1.275464  
     207A      1.281615   208A      1.295332   209A      1.303050  
     210A      1.316253   211A      1.334924   212A      1.366553  
     213A      1.378090   214A      1.390404   215A      1.423424  
     216A      1.454593   217A      1.459016   218A      1.473026  
     219A      1.482114   220A      1.493778   221A      1.507337  
     222A      1.528153   223A      1.532151   224A      1.560320  
     225A      1.636378   226A      1.640470   227A      1.649296  
     228A      1.664088   229A      1.671644   230A      1.681043  
     231A      1.695214   232A      1.699211   233A      1.707639  
     234A      1.723838   235A      1.735450   236A      1.737546  
     237A      1.739805   238A      1.748639   239A      1.759341  
     240A      1.771107   241A      1.777427   242A      1.786033  
     243A      1.792003   244A      1.794181   245A      1.835535  
     246A      1.841407   247A      1.848372   248A      1.855574  
     249A      1.886368   250A      1.903157   251A      1.923797  
     252A      1.939422   253A      1.980311   254A      1.995552  
     255A      2.197975   256A      2.224356   257A      2.249441  
     258A      2.256549   259A      2.276144   260A      2.284939  
     261A      2.300692   262A      2.306304   263A      2.336587  
     264A      2.353256   265A      2.374859   266A      2.381564  
     267A      2.385239   268A      2.390788   269A      2.400044  
     270A      2.411291   271A      2.414878   272A      2.424868  
     273A      2.438295   274A      2.450621   275A      2.457412  
     276A      2.470890   277A      2.482647   278A      2.486174  
     279A      2.497237   280A      2.523989   281A      2.535831  
     282A      2.555438   283A      2.573937   284A      2.590346  
     285A      2.597659   286A      2.618471   287A      2.659165  
     288A      2.671159   289A      2.689804   290A      2.708947  
     291A      2.726833   292A      2.738671   293A      2.767523  
     294A      2.788296   295A      2.800733   296A      2.813329  
     297A      2.823598   298A      2.859548   299A      2.873249  
     300A      2.978019   301A      3.014017   302A      3.023596  
     303A      3.034781   304A      3.043017   305A      3.049008  
     306A      3.062450   307A      3.070210   308A      3.087525  
     309A      3.095665   310A      3.109430   311A      3.134631  
     312A      3.139550   313A      3.150954   314A      3.162062  
     315A      3.171008   316A      3.178188   317A      3.188185  
     318A      3.194159   319A      3.200152   320A      3.217632  
     321A      3.231630   322A      3.242951   323A      3.260837  
     324A      3.280462   325A      3.343009   326A      3.408836  
     327A      3.425060   328A      3.456865   329A      3.477836  
     330A      3.501131   331A      3.531594   332A      3.560516  
     333A      3.571249   334A      3.582126   335A      3.622443  
     336A      4.221203   337A      4.233204   338A      4.239662  
     339A      4.244131   340A      4.276034   341A      4.312764  
     342A      4.336443   343A      4.347101   344A      4.363218  
     345A      4.390022   346A      4.391688   347A      4.404558  
     348A      4.423400   349A      4.436407   350A      4.450981  
     351A      4.452069   352A      4.473605   353A      4.501267  
     354A      4.520314   355A      4.522100   356A      4.546038  
     357A      4.552037   358A      4.578889   359A      4.581446  
     360A      4.610280   361A      4.623437   362A      4.640641  
     363A      4.650845   364A      4.661067   365A      4.667091  
     366A      4.792877   367A      4.803078   368A      4.804307  
     369A      4.820610   370A      4.834580   371A      4.861977  
     372A      4.874550   373A      4.888916   374A      4.893959  
     375A      4.910431   376A      4.927480   377A      4.934638  
     378A      4.946032   379A      4.964998   380A      4.997543  
     381A      5.014014   382A      5.035734   383A      5.055319  
     384A      5.120590   385A      5.143918   386A      5.315691  
     387A      5.328353   388A      5.349711   389A      5.357741  
     390A      5.367291   391A      5.390381   392A      5.407459  
     393A      5.420738   394A      5.439743   395A      5.452268  
     396A      5.459309   397A      5.521141   398A      5.540542  
     399A      5.566804   400A      5.611201   401A      5.631942  
     402A      5.670051   403A      5.701565   404A      5.709745  
     405A      5.768572   406A      5.981270   407A      6.009013  
     408A      6.057736   409A      6.076232   410A      6.115522  
     411A      6.141548   412A      6.169447   413A      6.194883  
     414A      6.209482   415A      6.247169   416A      6.369306  
     417A      6.452976   418A      6.514646   419A      6.593886  
     420A      6.716523   421A      6.841794   422A      6.870833  
     423A      6.877941   424A      6.942476   425A      6.993285  
     426A      7.481376   427A      7.504856   428A      7.507694  
     429A      7.530857   430A      7.541818   431A      7.590260  
     432A      7.616467   433A      7.655526   434A      7.669076  
     435A      7.675792   436A      7.838356   437A      7.853743  
     438A      7.888860   439A      7.909503   440A      7.919731  
     441A      7.936357   442A      7.986173   443A      8.012580  
     444A      8.054225   445A      8.069816   446A      8.076944  
     447A      8.095052   448A      8.099926   449A      8.120010  
     450A      8.183457   451A      8.468968   452A      8.486044  
     453A      8.560695   454A      8.600265   455A      8.609565  
     456A      8.624707   457A      8.630629   458A      8.636983  
     459A      8.721304   460A      8.732649   461A      9.626299  
     462A      9.631961   463A      9.643950   464A      9.679478  
     465A      9.722623   466A      9.760738   467A      9.773696  
     468A      9.782951   469A      9.793049   470A      9.800625  
     471A      9.814571   472A      9.830817   473A      9.843762  
     474A      9.853096   475A      9.884661   476A      9.968959  
     477A      9.999664   478A     10.012625   479A     10.043575  
     480A     10.054497   481A     10.845260   482A     10.942338  
     483A     10.947217   484A     10.958651   485A     10.969823  
     486A     11.506575   487A     11.612897   488A     11.639702  
     489A     11.668463   490A     11.704707   491A     11.843281  
     492A     11.906506   493A     11.928367   494A     12.103676  
     495A     12.185618   496A     13.304159   497A     13.355643  
     498A     13.380922   499A     13.419801   500A     13.427798  
     501A     13.665596   502A     13.694003   503A     13.730983  
     504A     13.747084   505A     13.771373   506A     64.346267  
     507A     64.372620   508A     64.807962   509A     65.610972  
     510A     65.708883  

    Final Occupation by Irrep:
              A 
    DOCC [     5 ]
    NA   [     5 ]
    NB   [     5 ]

  @DF-RHF Final Energy:  -161.67609022327269

   => Energetics <=

    Nuclear Repulsion Energy =              0.0000000000000000
    One-Electron Energy =                -224.9004795788891329
    Two-Electron Energy =                  63.2243893556164167
    Total Energy =                       -161.6760902232727233

Computation Completed


Properties will be evaluated at   0.000000,   0.000000,   0.000000 [a0]

Properties computed using the SCF density matrix


 Multipole Moments:

 ------------------------------------------------------------------------------------
     Multipole            Electronic (a.u.)      Nuclear  (a.u.)        Total (a.u.)
 ------------------------------------------------------------------------------------

 L = 1.  Multiply by 2.5417464519 to convert [e a0] to [Debye]
 Dipole X            :         -0.0000486            0.0000000           -0.0000486
 Dipole Y            :          0.0000491            0.0000000            0.0000491
 Dipole Z            :          0.0000538            0.0000000            0.0000538
 Magnitude           :                                                    0.0000876

 ------------------------------------------------------------------------------------

*** tstop() called on ddmfs1 at Mon Jan 22 16:21:24 2024
Module time:
	user time   =      82.38 seconds =       1.37 minutes
	system time =       7.16 seconds =       0.12 minutes
	total time  =          7 seconds =       0.12 minutes
Total time:
	user time   =      82.38 seconds =       1.37 minutes
	system time =       7.16 seconds =       0.12 minutes
	total time  =          7 seconds =       0.12 minutes

*** tstart() called on ddmfs1
*** at Mon Jan 22 16:21:24 2024


  //>>>>>>>>>>>>>>>>>>>>>>>>>>>>>>>>>>>//
  //               DFMP2               //
  //<<<<<<<<<<<<<<<<<<<<<<<<<<<<<<<<<<<//

   => Loading Basis Set <=

    Name: (AUG-CC-PVTZ AUX)
    Role: RIFIT
    Keyword: DF_BASIS_MP2
    atoms 1                            entry NA         line   610 file /ddmfs1b/softs/psi4conda/share/psi4/basis/def2-qzvpp-ri.gbs 
    atoms 2, 5, 8, 11, 14              entry O          line   264 file /ddmfs1b/softs/psi4conda/share/psi4/basis/aug-cc-pvtz-ri.gbs 
    atoms 3-4, 6-7, 9-10, 12-13, 15-16 entry H          line    30 file /ddmfs1b/softs/psi4conda/share/psi4/basis/aug-cc-pvtz-ri.gbs 

	 --------------------------------------------------------
	                          DF-MP2                         
	      2nd-Order Density-Fitted Moller-Plesset Theory     
	              RMP2 Wavefunction,  20 Threads             
	                                                         
	        Rob Parrish, Justin Turney, Andy Simmonett,      
	           Ed Hohenstein, and C. David Sherrill          
	 --------------------------------------------------------

   => Auxiliary Basis Set <=

  Basis Set: (AUG-CC-PVTZ AUX)
    Blend: AUG-CC-PVTZ-RI + DEF2-QZVPP-RI
    Number of shells: 322
    Number of basis functions: 1156
    Number of Cartesian functions: 1444
    Spherical Harmonics?: true
    Max angular momentum: 4

	 --------------------------------------------------------
	                 NBF =   510, NAUX =  1156
	 --------------------------------------------------------
	   CLASS    FOCC     OCC    AOCC    AVIR     VIR    FVIR
	   PAIRS       0       5       5     505     505       0
	 --------------------------------------------------------

	-----------------------------------------------------------
	 ==================> DF-MP2 Energies <==================== 
	-----------------------------------------------------------
	 Reference Energy          =    -161.6760902232726949 [Eh]
	 Singles Energy            =      -0.0000000000000000 [Eh]
	 Same-Spin Energy          =      -0.0059100007737508 [Eh]
	 Opposite-Spin Energy      =      -0.0183505718614774 [Eh]
	 Correlation Energy        =      -0.0242605726352282 [Eh]
	 Total Energy              =    -161.7003507959079229 [Eh]
	-----------------------------------------------------------
	 ================> DF-SCS-MP2 Energies <================== 
	-----------------------------------------------------------
	 SCS Same-Spin Scale       =       0.3333333333333333 [-]
	 SCS Opposite-Spin Scale   =       1.2000000000000000 [-]
	 SCS Same-Spin Energy      =      -0.0019700002579169 [Eh]
	 SCS Opposite-Spin Energy  =      -0.0220206862337729 [Eh]
	 SCS Correlation Energy    =      -0.0239906864916898 [Eh]
	 SCS Total Energy          =    -161.7000809097643810 [Eh]
	-----------------------------------------------------------


*** tstop() called on ddmfs1 at Mon Jan 22 16:21:30 2024
Module time:
	user time   =      28.65 seconds =       0.48 minutes
	system time =       1.98 seconds =       0.03 minutes
	total time  =          6 seconds =       0.10 minutes
Total time:
	user time   =     111.05 seconds =       1.85 minutes
	system time =       9.14 seconds =       0.15 minutes
	total time  =         13 seconds =       0.22 minutes

    Psi4 stopped on: Monday, 22 January 2024 04:21PM
    Psi4 wall time for execution: 0:00:12.93

*** Psi4 exiting successfully. Buy a developer a beer!
