
    -----------------------------------------------------------------------
          Psi4: An Open-Source Ab Initio Electronic Structure Package
                               Psi4 1.8.2 release

                         Git: Rev {} zzzzzzz 


    D. G. A. Smith, L. A. Burns, A. C. Simmonett, R. M. Parrish,
    M. C. Schieber, R. Galvelis, P. Kraus, H. Kruse, R. Di Remigio,
    A. Alenaizan, A. M. James, S. Lehtola, J. P. Misiewicz, M. Scheurer,
    R. A. Shaw, J. B. Schriber, Y. Xie, Z. L. Glick, D. A. Sirianni,
    J. S. O'Brien, J. M. Waldrop, A. Kumar, E. G. Hohenstein,
    B. P. Pritchard, B. R. Brooks, H. F. Schaefer III, A. Yu. Sokolov,
    K. Patkowski, A. E. DePrince III, U. Bozkaya, R. A. King,
    F. A. Evangelista, J. M. Turney, T. D. Crawford, C. D. Sherrill,
    J. Chem. Phys. 152(18) 184108 (2020). https://doi.org/10.1063/5.0006002

                            Additional Code Authors
    E. T. Seidl, C. L. Janssen, E. F. Valeev, M. L. Leininger,
    J. F. Gonthier, R. M. Richard, H. R. McAlexander, M. Saitow, X. Wang,
    P. Verma, M. H. Lechner, A. Jiang, S. Behnle, A. G. Heide,
    M. F. Herbst, and D. L. Poole

             Previous Authors, Complete List of Code Contributors,
                       and Citations for Specific Modules
    https://github.com/psi4/psi4/blob/master/codemeta.json
    https://github.com/psi4/psi4/graphs/contributors
    http://psicode.org/psi4manual/master/introduction.html#citing-psifour

    -----------------------------------------------------------------------


    Psi4 started on: Monday, 22 January 2024 03:46PM

    Process ID: 74104
    Host:       ddmfs1
    PSIDATADIR: /ddmfs1b/softs/psi4conda/share/psi4
    Memory:     500.0 MiB
    Threads:    20
    
  ==> Input File <==

--------------------------------------------------------------------------
MEMORY 60 GB

molecule dimer {
1 1
Na         0.000000     0.000000     0.000000
O          2.097125    -0.497024     0.761194
H          2.050085    -1.449035     0.873033
H          2.546047    -0.299517     1.556234
O          0.694124     2.052469     0.671515
H          1.544738     2.338465     0.228031
H          0.070848     2.347446    -0.028200
O         -1.811270     0.275644    -1.321325
H         -2.577804     0.825547    -1.027113
H         -1.990529     0.001056    -2.250202
O         -2.004597     0.304099     1.444740
H         -2.367149     1.218233     1.601480
H         -2.783477    -0.189314     1.246767

units ang
no_reorient
no_com
symmetry c1
}

set {
basis        aug-cc-pVTZ
scf_type     df
}

energy("mp2")
--------------------------------------------------------------------------

  Memory set to  55.879 GiB by Python driver.

Scratch directory: /ddmfs1a/scratch/
   => Libint2 <=

    Primary   basis highest AM E, G, H:  5, 4, 3
    Auxiliary basis highest AM E, G, H:  6, 5, 4
    Onebody   basis highest AM E, G, H:  6, 5, 4
    Solid Harmonics ordering:            gaussian

*** tstart() called on ddmfs1
*** at Mon Jan 22 15:46:11 2024

   => Loading Basis Set <=

    Name: AUG-CC-PVTZ
    Role: ORBITAL
    Keyword: BASIS
    atoms 1                     entry NA         line   469 file /ddmfs1b/softs/psi4conda/share/psi4/basis/aug-cc-pvtz.gbs 
    atoms 2, 5, 8, 11           entry O          line   331 file /ddmfs1b/softs/psi4conda/share/psi4/basis/aug-cc-pvtz.gbs 
    atoms 3-4, 6-7, 9-10, 12-13 entry H          line    40 file /ddmfs1b/softs/psi4conda/share/psi4/basis/aug-cc-pvtz.gbs 


         ---------------------------------------------------------
                                   SCF
               by Justin Turney, Rob Parrish, Andy Simmonett
                          and Daniel G. A. Smith
                              RHF Reference
                       20 Threads,  57220 MiB Core
         ---------------------------------------------------------

  ==> Geometry <==

    Molecular point group: c1
    Full point group: C1

    Geometry (in Angstrom), charge = 1, multiplicity = 1:

       Center              X                  Y                   Z               Mass       
    ------------   -----------------  -----------------  -----------------  -----------------
         NA           0.000000000000     0.000000000000     0.000000000000    22.989769282000
         O            2.097125000000    -0.497024000000     0.761194000000    15.994914619570
         H            2.050085000000    -1.449035000000     0.873033000000     1.007825032230
         H            2.546047000000    -0.299517000000     1.556234000000     1.007825032230
         O            0.694124000000     2.052469000000     0.671515000000    15.994914619570
         H            1.544738000000     2.338465000000     0.228031000000     1.007825032230
         H            0.070848000000     2.347446000000    -0.028200000000     1.007825032230
         O           -1.811270000000     0.275644000000    -1.321325000000    15.994914619570
         H           -2.577804000000     0.825547000000    -1.027113000000     1.007825032230
         H           -1.990529000000     0.001056000000    -2.250202000000     1.007825032230
         O           -2.004597000000     0.304099000000     1.444740000000    15.994914619570
         H           -2.367149000000     1.218233000000     1.601480000000     1.007825032230
         H           -2.783477000000    -0.189314000000     1.246767000000     1.007825032230

  Running in c1 symmetry.

  Rotational constants: A =      0.09724  B =      0.05499  C =      0.04871 [cm^-1]
  Rotational constants: A =   2915.29273  B =   1648.48672  C =   1460.21776 [MHz]
  Nuclear repulsion =  221.494257646930464

  Charge       = 1
  Multiplicity = 1
  Electrons    = 50
  Nalpha       = 25
  Nbeta        = 25

  ==> Algorithm <==

  SCF Algorithm Type is DF.
  DIIS enabled.
  MOM disabled.
  Fractional occupation disabled.
  Guess Type is SAD.
  Energy threshold   = 1.00e-08
  Density threshold  = 1.00e-08
  Integral threshold = 1.00e-12

  ==> Primary Basis <==

  Basis Set: AUG-CC-PVTZ
    Blend: AUG-CC-PVTZ
    Number of shells: 144
    Number of basis functions: 418
    Number of Cartesian functions: 479
    Spherical Harmonics?: true
    Max angular momentum: 3

   => Loading Basis Set <=

    Name: (AUG-CC-PVTZ AUX)
    Role: JKFIT
    Keyword: DF_BASIS_SCF
    atoms 1                     entry NA         line   498 file /ddmfs1b/softs/psi4conda/share/psi4/basis/def2-universal-jkfit.gbs 
    atoms 2, 5, 8, 11           entry O          line   286 file /ddmfs1b/softs/psi4conda/share/psi4/basis/aug-cc-pvtz-jkfit.gbs 
    atoms 3-4, 6-7, 9-10, 12-13 entry H          line    70 file /ddmfs1b/softs/psi4conda/share/psi4/basis/aug-cc-pvtz-jkfit.gbs 

  ==> Integral Setup <==

  DFHelper Memory: AOs need 1.155 GiB; user supplied 41.910 GiB. 
  Using in-core AOs.

  ==> MemDFJK: Density-Fitted J/K Matrices <==

    J tasked:                   Yes
    K tasked:                   Yes
    wK tasked:                   No
    OpenMP threads:              20
    Memory [MiB]:             42915
    Algorithm:                 Core
    Schwarz Cutoff:           1E-12
    Mask sparsity (%):       6.7169
    Fitting Condition:        1E-10

   => Auxiliary Basis Set <=

  Basis Set: (AUG-CC-PVTZ AUX)
    Blend: AUG-CC-PVTZ-JKFIT + DEF2-UNIVERSAL-JKFIT
    Number of shells: 266
    Number of basis functions: 896
    Number of Cartesian functions: 1101
    Spherical Harmonics?: true
    Max angular momentum: 4

  Minimum eigenvalue in the overlap matrix is 3.3628426960E-05.
  Reciprocal condition number of the overlap matrix is 2.5698671586E-06.
    Using symmetric orthogonalization.

  ==> Pre-Iterations <==

  SCF Guess: Superposition of Atomic Densities via on-the-fly atomic UHF (no occupation information).

   -------------------------
    Irrep   Nso     Nmo    
   -------------------------
     A        418     418 
   -------------------------
    Total     418     418
   -------------------------

  ==> Iterations <==

                           Total Energy        Delta E     RMS |[F,P]|

   @DF-RHF iter SAD:  -463.93509166432216   -4.63935e+02   0.00000e+00 
   @DF-RHF iter   1:  -465.65187011730166   -1.71678e+00   2.26298e-03 ADIIS/DIIS
   @DF-RHF iter   2:  -465.87281958177687   -2.20949e-01   1.50964e-03 ADIIS/DIIS
   @DF-RHF iter   3:  -465.99618348067685   -1.23364e-01   1.10629e-04 ADIIS/DIIS
   @DF-RHF iter   4:  -465.99788344685669   -1.69997e-03   2.89964e-05 DIIS
   @DF-RHF iter   5:  -465.99799936308239   -1.15916e-04   9.30508e-06 DIIS
   @DF-RHF iter   6:  -465.99801097489075   -1.16118e-05   3.84455e-06 DIIS
   @DF-RHF iter   7:  -465.99801270920625   -1.73432e-06   7.09957e-07 DIIS
   @DF-RHF iter   8:  -465.99801282510077   -1.15895e-07   1.34894e-07 DIIS
   @DF-RHF iter   9:  -465.99801282816065   -3.05988e-09   5.19598e-08 DIIS
   @DF-RHF iter  10:  -465.99801282840485   -2.44199e-10   1.29750e-08 DIIS
   @DF-RHF iter  11:  -465.99801282842867   -2.38174e-11   3.51437e-09 DIIS
  Energy and wave function converged.


  ==> Post-Iterations <==

    Orbital Energies [Eh]
    ---------------------

    Doubly Occupied:                                                      

       1A    -40.583539     2A    -20.750497     3A    -20.736769  
       4A    -20.732070     5A    -20.728832     6A     -2.907196  
       7A     -1.633546     8A     -1.631913     9A     -1.630975  
      10A     -1.532585    11A     -1.522896    12A     -1.510986  
      13A     -1.507477    14A     -0.891151    15A     -0.878404  
      16A     -0.868822    17A     -0.852098    18A     -0.783173  
      19A     -0.776671    20A     -0.760425    21A     -0.752766  
      22A     -0.697176    23A     -0.688835    24A     -0.677019  
      25A     -0.670473  

    Virtual:                                                              

      26A     -0.102993    27A     -0.080266    28A     -0.073677  
      29A     -0.070440    30A     -0.049148    31A     -0.046633  
      32A     -0.042970    33A     -0.042276    34A     -0.038862  
      35A     -0.036082    36A     -0.034116    37A     -0.028625  
      38A     -0.025935    39A     -0.015663    40A     -0.013268  
      41A     -0.008077    42A     -0.005929    43A     -0.000118  
      44A      0.005290    45A      0.012005    46A      0.017037  
      47A      0.028229    48A      0.036571    49A      0.041118  
      50A      0.052917    51A      0.056166    52A      0.064698  
      53A      0.066766    54A      0.071162    55A      0.077260  
      56A      0.081653    57A      0.088889    58A      0.091233  
      59A      0.096570    60A      0.109740    61A      0.111029  
      62A      0.115875    63A      0.119349    64A      0.122622  
      65A      0.127205    66A      0.134766    67A      0.137003  
      68A      0.156367    69A      0.160065    70A      0.169378  
      71A      0.182614    72A      0.184363    73A      0.191480  
      74A      0.196708    75A      0.201472    76A      0.211351  
      77A      0.217079    78A      0.218899    79A      0.236486  
      80A      0.248590    81A      0.252286    82A      0.260630  
      83A      0.263528    84A      0.269971    85A      0.282664  
      86A      0.294937    87A      0.298218    88A      0.303452  
      89A      0.308019    90A      0.309142    91A      0.317720  
      92A      0.327150    93A      0.329976    94A      0.337429  
      95A      0.341695    96A      0.345060    97A      0.348485  
      98A      0.350937    99A      0.354381   100A      0.359393  
     101A      0.366412   102A      0.368118   103A      0.376910  
     104A      0.378641   105A      0.392575   106A      0.402154  
     107A      0.404781   108A      0.415568   109A      0.418814  
     110A      0.428833   111A      0.438242   112A      0.455047  
     113A      0.476108   114A      0.478589   115A      0.485709  
     116A      0.511778   117A      0.519421   118A      0.531041  
     119A      0.536357   120A      0.570826   121A      0.584536  
     122A      0.588382   123A      0.595867   124A      0.602832  
     125A      0.615280   126A      0.626804   127A      0.630247  
     128A      0.651219   129A      0.670055   130A      0.671815  
     131A      0.692268   132A      0.698970   133A      0.703408  
     134A      0.713313   135A      0.722026   136A      0.728691  
     137A      0.742940   138A      0.746668   139A      0.749235  
     140A      0.765958   141A      0.777632   142A      0.783049  
     143A      0.791892   144A      0.801790   145A      0.806469  
     146A      0.818105   147A      0.825328   148A      0.832329  
     149A      0.837652   150A      0.844018   151A      0.850159  
     152A      0.854254   153A      0.868399   154A      0.881666  
     155A      0.889037   156A      0.894425   157A      0.906595  
     158A      0.917538   159A      0.930254   160A      0.939031  
     161A      0.943568   162A      0.948222   163A      0.950142  
     164A      0.965412   165A      0.975803   166A      0.978662  
     167A      0.982500   168A      0.992275   169A      1.006072  
     170A      1.015403   171A      1.019344   172A      1.034599  
     173A      1.043579   174A      1.062689   175A      1.064723  
     176A      1.076671   177A      1.080123   178A      1.086337  
     179A      1.098912   180A      1.105021   181A      1.115539  
     182A      1.127615   183A      1.144539   184A      1.160722  
     185A      1.174546   186A      1.176200   187A      1.188035  
     188A      1.202920   189A      1.212235   190A      1.223621  
     191A      1.246866   192A      1.252352   193A      1.271262  
     194A      1.285855   195A      1.294459   196A      1.311144  
     197A      1.340993   198A      1.348394   199A      1.370820  
     200A      1.394462   201A      1.416283   202A      1.433457  
     203A      1.444950   204A      1.460067   205A      1.488178  
     206A      1.503564   207A      1.515834   208A      1.528048  
     209A      1.543022   210A      1.563992   211A      1.575199  
     212A      1.599563   213A      1.620368   214A      1.634256  
     215A      1.672096   216A      1.681367   217A      1.706521  
     218A      1.724191   219A      1.731308   220A      1.750349  
     221A      1.775762   222A      1.824916   223A      1.853086  
     224A      1.863496   225A      1.877665   226A      1.896000  
     227A      1.905166   228A      1.919338   229A      1.941329  
     230A      2.035386   231A      2.047656   232A      2.072087  
     233A      2.126279   234A      2.172955   235A      2.189253  
     236A      2.200974   237A      2.207084   238A      2.221115  
     239A      2.246982   240A      2.265064   241A      2.273686  
     242A      2.292137   243A      2.302735   244A      2.315158  
     245A      2.330165   246A      2.349750   247A      2.355526  
     248A      2.371076   249A      2.379402   250A      2.406532  
     251A      2.427749   252A      2.436515   253A      2.454484  
     254A      2.464978   255A      2.494364   256A      2.513521  
     257A      2.526457   258A      2.548440   259A      2.562720  
     260A      2.586643   261A      2.622445   262A      2.638034  
     263A      2.642839   264A      2.646184   265A      2.666488  
     266A      2.677872   267A      2.686274   268A      2.695242  
     269A      2.703115   270A      2.713884   271A      2.735730  
     272A      2.757920   273A      2.771368   274A      2.791402  
     275A      2.800210   276A      2.801433   277A      2.827867  
     278A      2.831766   279A      2.909462   280A      2.916644  
     281A      2.949277   282A      3.230216   283A      3.591177  
     284A      3.613991   285A      3.617988   286A      3.662171  
     287A      3.684563   288A      3.688695   289A      3.745510  
     290A      3.763358   291A      3.895976   292A      3.953934  
     293A      3.959712   294A      3.990844   295A      4.015064  
     296A      4.031607   297A      4.042049   298A      4.094856  
     299A      4.102487   300A      4.117236   301A      4.139950  
     302A      4.141740   303A      4.150018   304A      4.160608  
     305A      4.184411   306A      4.213732   307A      4.258047  
     308A      4.263994   309A      4.296766   310A      4.306540  
     311A      4.324445   312A      4.337546   313A      4.347523  
     314A      4.367294   315A      4.384604   316A      4.396780  
     317A      4.407650   318A      4.412993   319A      4.419532  
     320A      4.433964   321A      4.449894   322A      4.470150  
     323A      4.471667   324A      4.499724   325A      4.532126  
     326A      4.620383   327A      4.659693   328A      4.674064  
     329A      4.684633   330A      4.706027   331A      4.720612  
     332A      4.755521   333A      4.771192   334A      4.843478  
     335A      4.924021   336A      4.938976   337A      4.957126  
     338A      4.994880   339A      5.030144   340A      5.049107  
     341A      5.066282   342A      5.099261   343A      5.107501  
     344A      5.130197   345A      5.131881   346A      5.148786  
     347A      5.164632   348A      5.185225   349A      5.258746  
     350A      5.280921   351A      5.310729   352A      5.383005  
     353A      5.478623   354A      5.486640   355A      5.515218  
     356A      5.593236   357A      5.609243   358A      5.670045  
     359A      6.084009   360A      6.192200   361A      6.205681  
     362A      6.215184   363A      6.408032   364A      6.426287  
     365A      6.447278   366A      6.511328   367A      6.594416  
     368A      6.597132   369A      6.626464   370A      6.632323  
     371A      6.755712   372A      6.814503   373A      6.826637  
     374A      6.902930   375A      6.966586   376A      6.988730  
     377A      7.010340   378A      7.016308   379A      7.035176  
     380A      7.091865   381A      7.104547   382A      7.134426  
     383A      7.144242   384A      7.160162   385A      7.181456  
     386A      7.185702   387A      7.201365   388A      7.223738  
     389A      7.228693   390A      7.250639   391A      7.255276  
     392A      7.267316   393A      7.268578   394A      7.281665  
     395A      7.306587   396A      7.328152   397A      7.347132  
     398A      7.360528   399A      7.446893   400A      7.500409  
     401A      7.537803   402A      7.571318   403A      7.659675  
     404A      7.677153   405A      7.710759   406A      7.752177  
     407A      7.775596   408A      7.825307   409A      7.883346  
     410A      7.947524   411A      8.532881   412A      8.627513  
     413A      8.682021   414A      8.832336   415A     15.071652  
     416A     15.280445   417A     15.843853   418A     16.504745  

    Final Occupation by Irrep:
              A 
    DOCC [    25 ]
    NA   [    25 ]
    NB   [    25 ]

  @DF-RHF Final Energy:  -465.99801282842867

   => Energetics <=

    Nuclear Repulsion Energy =            221.4942576469304640
    One-Electron Energy =               -1081.5719470622229892
    Two-Electron Energy =                 394.0796765868638545
    Total Energy =                       -465.9980128284286707

Computation Completed


Properties will be evaluated at   0.000000,   0.000000,   0.000000 [a0]

Properties computed using the SCF density matrix


 Multipole Moments:

 ------------------------------------------------------------------------------------
     Multipole            Electronic (a.u.)      Nuclear  (a.u.)        Total (a.u.)
 ------------------------------------------------------------------------------------

 L = 1.  Multiply by 2.5417464519 to convert [e a0] to [Debye]
 Dipole X            :         21.0819971          -22.1177042           -1.0357070
 Dipole Y            :        -40.8440467           41.3365968            0.4925501
 Dipole Z            :        -28.1218812           27.6826396           -0.4392416
 Magnitude           :                                                    1.2280993

 ------------------------------------------------------------------------------------

*** tstop() called on ddmfs1 at Mon Jan 22 15:46:17 2024
Module time:
	user time   =      93.36 seconds =       1.56 minutes
	system time =       7.56 seconds =       0.13 minutes
	total time  =          6 seconds =       0.10 minutes
Total time:
	user time   =      93.36 seconds =       1.56 minutes
	system time =       7.56 seconds =       0.13 minutes
	total time  =          6 seconds =       0.10 minutes

*** tstart() called on ddmfs1
*** at Mon Jan 22 15:46:17 2024


  //>>>>>>>>>>>>>>>>>>>>>>>>>>>>>>>>>>>//
  //               DFMP2               //
  //<<<<<<<<<<<<<<<<<<<<<<<<<<<<<<<<<<<//

   => Loading Basis Set <=

    Name: (AUG-CC-PVTZ AUX)
    Role: RIFIT
    Keyword: DF_BASIS_MP2
    atoms 1                     entry NA         line   610 file /ddmfs1b/softs/psi4conda/share/psi4/basis/def2-qzvpp-ri.gbs 
    atoms 2, 5, 8, 11           entry O          line   264 file /ddmfs1b/softs/psi4conda/share/psi4/basis/aug-cc-pvtz-ri.gbs 
    atoms 3-4, 6-7, 9-10, 12-13 entry H          line    30 file /ddmfs1b/softs/psi4conda/share/psi4/basis/aug-cc-pvtz-ri.gbs 

	 --------------------------------------------------------
	                          DF-MP2                         
	      2nd-Order Density-Fitted Moller-Plesset Theory     
	              RMP2 Wavefunction,  20 Threads             
	                                                         
	        Rob Parrish, Justin Turney, Andy Simmonett,      
	           Ed Hohenstein, and C. David Sherrill          
	 --------------------------------------------------------

   => Auxiliary Basis Set <=

  Basis Set: (AUG-CC-PVTZ AUX)
    Blend: AUG-CC-PVTZ-RI + DEF2-QZVPP-RI
    Number of shells: 266
    Number of basis functions: 958
    Number of Cartesian functions: 1198
    Spherical Harmonics?: true
    Max angular momentum: 4

	 --------------------------------------------------------
	                 NBF =   418, NAUX =   958
	 --------------------------------------------------------
	   CLASS    FOCC     OCC    AOCC    AVIR     VIR    FVIR
	   PAIRS       0      25      25     393     393       0
	 --------------------------------------------------------

	-----------------------------------------------------------
	 ==================> DF-MP2 Energies <==================== 
	-----------------------------------------------------------
	 Reference Energy          =    -465.9980128284286707 [Eh]
	 Singles Energy            =      -0.0000000000000000 [Eh]
	 Same-Spin Energy          =      -0.2822445356736085 [Eh]
	 Opposite-Spin Energy      =      -0.8828599311052392 [Eh]
	 Correlation Energy        =      -1.1651044667788477 [Eh]
	 Total Energy              =    -467.1631172952075417 [Eh]
	-----------------------------------------------------------
	 ================> DF-SCS-MP2 Energies <================== 
	-----------------------------------------------------------
	 SCS Same-Spin Scale       =       0.3333333333333333 [-]
	 SCS Opposite-Spin Scale   =       1.2000000000000000 [-]
	 SCS Same-Spin Energy      =      -0.0940815118912028 [Eh]
	 SCS Opposite-Spin Energy  =      -1.0594319173262869 [Eh]
	 SCS Correlation Energy    =      -1.1535134292174898 [Eh]
	 SCS Total Energy          =    -467.1515262576461396 [Eh]
	-----------------------------------------------------------


*** tstop() called on ddmfs1 at Mon Jan 22 15:46:23 2024
Module time:
	user time   =      29.16 seconds =       0.49 minutes
	system time =       1.80 seconds =       0.03 minutes
	total time  =          6 seconds =       0.10 minutes
Total time:
	user time   =     122.54 seconds =       2.04 minutes
	system time =       9.36 seconds =       0.16 minutes
	total time  =         12 seconds =       0.20 minutes

    Psi4 stopped on: Monday, 22 January 2024 03:46PM
    Psi4 wall time for execution: 0:00:12.07

*** Psi4 exiting successfully. Buy a developer a beer!
