
    -----------------------------------------------------------------------
          Psi4: An Open-Source Ab Initio Electronic Structure Package
                               Psi4 1.8.2 release

                         Git: Rev {} zzzzzzz 


    D. G. A. Smith, L. A. Burns, A. C. Simmonett, R. M. Parrish,
    M. C. Schieber, R. Galvelis, P. Kraus, H. Kruse, R. Di Remigio,
    A. Alenaizan, A. M. James, S. Lehtola, J. P. Misiewicz, M. Scheurer,
    R. A. Shaw, J. B. Schriber, Y. Xie, Z. L. Glick, D. A. Sirianni,
    J. S. O'Brien, J. M. Waldrop, A. Kumar, E. G. Hohenstein,
    B. P. Pritchard, B. R. Brooks, H. F. Schaefer III, A. Yu. Sokolov,
    K. Patkowski, A. E. DePrince III, U. Bozkaya, R. A. King,
    F. A. Evangelista, J. M. Turney, T. D. Crawford, C. D. Sherrill,
    J. Chem. Phys. 152(18) 184108 (2020). https://doi.org/10.1063/5.0006002

                            Additional Code Authors
    E. T. Seidl, C. L. Janssen, E. F. Valeev, M. L. Leininger,
    J. F. Gonthier, R. M. Richard, H. R. McAlexander, M. Saitow, X. Wang,
    P. Verma, M. H. Lechner, A. Jiang, S. Behnle, A. G. Heide,
    M. F. Herbst, and D. L. Poole

             Previous Authors, Complete List of Code Contributors,
                       and Citations for Specific Modules
    https://github.com/psi4/psi4/blob/master/codemeta.json
    https://github.com/psi4/psi4/graphs/contributors
    http://psicode.org/psi4manual/master/introduction.html#citing-psifour

    -----------------------------------------------------------------------


    Psi4 started on: Monday, 22 January 2024 02:05PM

    Process ID: 64972
    Host:       ddmfs1
    PSIDATADIR: /ddmfs1b/softs/psi4conda/share/psi4
    Memory:     500.0 MiB
    Threads:    20
    
  ==> Input File <==

--------------------------------------------------------------------------
MEMORY 60 GB

molecule dimer {
0 1
Gh(Na)     0.000000     0.000000     0.000000
Gh(O)     -1.519224     0.743307    -1.517371
Gh(H)     -2.170232     1.445420    -1.313542
Gh(H)     -1.928734     0.240608    -2.180940
Gh(O)      0.880839    -0.923193    -1.792672
Gh(H)      0.384739    -1.662288    -2.202197
Gh(H)      0.908594    -0.270491    -2.520157
Gh(O)     -0.829751    -2.398045     0.046518
Gh(H)     -0.436846    -2.980410     0.712108
Gh(H)     -1.756796    -2.284077     0.333535
O          1.813124    -0.230890     1.363483
H          2.118748    -1.000546     0.923160
H          2.605605     0.291871     1.236262
Gh(O)      0.328695     2.432253     0.024011
Gh(H)      1.248695     2.702953    -0.044667
Gh(H)     -0.191218     2.949578    -0.590188

units ang
no_reorient
no_com
symmetry c1
}

set {
basis        aug-cc-pVTZ
scf_type     df
}

energy("mp2")
--------------------------------------------------------------------------

  Memory set to  55.879 GiB by Python driver.

Scratch directory: /ddmfs1a/scratch/
   => Libint2 <=

    Primary   basis highest AM E, G, H:  5, 4, 3
    Auxiliary basis highest AM E, G, H:  6, 5, 4
    Onebody   basis highest AM E, G, H:  6, 5, 4
    Solid Harmonics ordering:            gaussian

*** tstart() called on ddmfs1
*** at Mon Jan 22 14:05:43 2024

   => Loading Basis Set <=

    Name: AUG-CC-PVTZ
    Role: ORBITAL
    Keyword: BASIS
    atoms 1                            entry NA         line   469 file /ddmfs1b/softs/psi4conda/share/psi4/basis/aug-cc-pvtz.gbs 
    atoms 2, 5, 8, 11, 14              entry O          line   331 file /ddmfs1b/softs/psi4conda/share/psi4/basis/aug-cc-pvtz.gbs 
    atoms 3-4, 6-7, 9-10, 12-13, 15-16 entry H          line    40 file /ddmfs1b/softs/psi4conda/share/psi4/basis/aug-cc-pvtz.gbs 


         ---------------------------------------------------------
                                   SCF
               by Justin Turney, Rob Parrish, Andy Simmonett
                          and Daniel G. A. Smith
                              RHF Reference
                       20 Threads,  57220 MiB Core
         ---------------------------------------------------------

  ==> Geometry <==

    Molecular point group: c1
    Full point group: C1

    Geometry (in Angstrom), charge = 0, multiplicity = 1:

       Center              X                  Y                   Z               Mass       
    ------------   -----------------  -----------------  -----------------  -----------------
      Gh(NA)          0.000000000000     0.000000000000     0.000000000000    22.989769282000
      Gh(O)          -1.519224000000     0.743307000000    -1.517371000000    15.994914619570
      Gh(H)          -2.170232000000     1.445420000000    -1.313542000000     1.007825032230
      Gh(H)          -1.928734000000     0.240608000000    -2.180940000000     1.007825032230
      Gh(O)           0.880839000000    -0.923193000000    -1.792672000000    15.994914619570
      Gh(H)           0.384739000000    -1.662288000000    -2.202197000000     1.007825032230
      Gh(H)           0.908594000000    -0.270491000000    -2.520157000000     1.007825032230
      Gh(O)          -0.829751000000    -2.398045000000     0.046518000000    15.994914619570
      Gh(H)          -0.436846000000    -2.980410000000     0.712108000000     1.007825032230
      Gh(H)          -1.756796000000    -2.284077000000     0.333535000000     1.007825032230
         O            1.813124000000    -0.230890000000     1.363483000000    15.994914619570
         H            2.118748000000    -1.000546000000     0.923160000000     1.007825032230
         H            2.605605000000     0.291871000000     1.236262000000     1.007825032230
      Gh(O)           0.328695000000     2.432253000000     0.024011000000    15.994914619570
      Gh(H)           1.248695000000     2.702953000000    -0.044667000000     1.007825032230
      Gh(H)          -0.191218000000     2.949578000000    -0.590188000000     1.007825032230

  Running in c1 symmetry.

  Rotational constants: A =      0.06051  B =      0.05141  C =      0.03784 [cm^-1]
  Rotational constants: A =   1814.00957  B =   1541.20958  C =   1134.45603 [MHz]
  Nuclear repulsion =    9.307064107808404

  Charge       = 0
  Multiplicity = 1
  Electrons    = 10
  Nalpha       = 5
  Nbeta        = 5

  ==> Algorithm <==

  SCF Algorithm Type is DF.
  DIIS enabled.
  MOM disabled.
  Fractional occupation disabled.
  Guess Type is SAD.
  Energy threshold   = 1.00e-08
  Density threshold  = 1.00e-08
  Integral threshold = 1.00e-12

  ==> Primary Basis <==

  Basis Set: AUG-CC-PVTZ
    Blend: AUG-CC-PVTZ
    Number of shells: 176
    Number of basis functions: 510
    Number of Cartesian functions: 584
    Spherical Harmonics?: true
    Max angular momentum: 3

   => Loading Basis Set <=

    Name: (AUG-CC-PVTZ AUX)
    Role: JKFIT
    Keyword: DF_BASIS_SCF
    atoms 1                            entry NA         line   498 file /ddmfs1b/softs/psi4conda/share/psi4/basis/def2-universal-jkfit.gbs 
    atoms 2, 5, 8, 11, 14              entry O          line   286 file /ddmfs1b/softs/psi4conda/share/psi4/basis/aug-cc-pvtz-jkfit.gbs 
    atoms 3-4, 6-7, 9-10, 12-13, 15-16 entry H          line    70 file /ddmfs1b/softs/psi4conda/share/psi4/basis/aug-cc-pvtz-jkfit.gbs 

  ==> Integral Setup <==

  DFHelper Memory: AOs need 2.052 GiB; user supplied 41.910 GiB. 
  Using in-core AOs.

  ==> MemDFJK: Density-Fitted J/K Matrices <==

    J tasked:                   Yes
    K tasked:                   Yes
    wK tasked:                   No
    OpenMP threads:              20
    Memory [MiB]:             42915
    Algorithm:                 Core
    Schwarz Cutoff:           1E-12
    Mask sparsity (%):       7.7424
    Fitting Condition:        1E-10

   => Auxiliary Basis Set <=

  Basis Set: (AUG-CC-PVTZ AUX)
    Blend: AUG-CC-PVTZ-JKFIT + DEF2-UNIVERSAL-JKFIT
    Number of shells: 324
    Number of basis functions: 1092
    Number of Cartesian functions: 1342
    Spherical Harmonics?: true
    Max angular momentum: 4

  Minimum eigenvalue in the overlap matrix is 2.5426576420E-05.
  Reciprocal condition number of the overlap matrix is 1.7641889649E-06.
    Using symmetric orthogonalization.

  ==> Pre-Iterations <==

  SCF Guess: Superposition of Atomic Densities via on-the-fly atomic UHF (no occupation information).

   -------------------------
    Irrep   Nso     Nmo    
   -------------------------
     A        510     510 
   -------------------------
    Total     510     510
   -------------------------

  ==> Iterations <==

                           Total Energy        Delta E     RMS |[F,P]|

   @DF-RHF iter SAD:   -75.49739374269322   -7.54974e+01   0.00000e+00 
   @DF-RHF iter   1:   -75.97372429127272   -4.76331e-01   9.22352e-04 ADIIS/DIIS
   @DF-RHF iter   2:   -76.02690101303210   -5.31767e-02   6.25604e-04 ADIIS/DIIS
   @DF-RHF iter   3:   -76.05817927658042   -3.12783e-02   4.21182e-05 DIIS
   @DF-RHF iter   4:   -76.05854606986101   -3.66793e-04   9.91612e-06 DIIS
   @DF-RHF iter   5:   -76.05856862925664   -2.25594e-05   2.30042e-06 DIIS
   @DF-RHF iter   6:   -76.05857051310160   -1.88384e-06   4.92655e-07 DIIS
   @DF-RHF iter   7:   -76.05857060675308   -9.36515e-08   8.25323e-08 DIIS
   @DF-RHF iter   8:   -76.05857060904313   -2.29005e-09   1.33983e-08 DIIS
   @DF-RHF iter   9:   -76.05857060908693   -4.37979e-11   2.87750e-09 DIIS
  Energy and wave function converged.


  ==> Post-Iterations <==

    Orbital Energies [Eh]
    ---------------------

    Doubly Occupied:                                                      

       1A    -20.568452     2A     -1.364562     3A     -0.706539  
       4A     -0.602247     5A     -0.513316  

    Virtual:                                                              

       6A      0.007079     7A      0.016102     8A      0.016611  
       9A      0.018469    10A      0.037747    11A      0.051049  
      12A      0.052479    13A      0.053404    14A      0.055778  
      15A      0.056959    16A      0.059181    17A      0.063492  
      18A      0.065199    19A      0.078222    20A      0.079514  
      21A      0.084586    22A      0.085560    23A      0.092851  
      24A      0.096208    25A      0.103601    26A      0.111417  
      27A      0.112697    28A      0.122394    29A      0.132982  
      30A      0.139926    31A      0.142787    32A      0.160622  
      33A      0.162135    34A      0.169951    35A      0.175114  
      36A      0.177418    37A      0.184007    38A      0.187548  
      39A      0.196609    40A      0.203770    41A      0.206747  
      42A      0.209625    43A      0.218970    44A      0.221038  
      45A      0.229280    46A      0.237854    47A      0.244568  
      48A      0.254155    49A      0.258843    50A      0.270797  
      51A      0.275768    52A      0.281912    53A      0.289046  
      54A      0.291825    55A      0.300567    56A      0.318943  
      57A      0.322626    58A      0.332941    59A      0.336146  
      60A      0.342525    61A      0.345162    62A      0.349545  
      63A      0.361498    64A      0.369524    65A      0.371243  
      66A      0.379309    67A      0.383274    68A      0.388684  
      69A      0.398334    70A      0.402546    71A      0.407816  
      72A      0.414140    73A      0.415346    74A      0.420924  
      75A      0.421299    76A      0.426159    77A      0.428040  
      78A      0.442354    79A      0.447981    80A      0.450783  
      81A      0.456875    82A      0.461113    83A      0.470414  
      84A      0.472966    85A      0.478693    86A      0.480575  
      87A      0.488619    88A      0.499507    89A      0.500241  
      90A      0.506159    91A      0.509384    92A      0.517830  
      93A      0.522317    94A      0.525457    95A      0.534013  
      96A      0.544538    97A      0.547242    98A      0.552153  
      99A      0.556672   100A      0.564263   101A      0.571719  
     102A      0.572651   103A      0.594382   104A      0.604612  
     105A      0.608497   106A      0.626722   107A      0.656292  
     108A      0.683483   109A      0.707806   110A      0.717935  
     111A      0.730932   112A      0.736902   113A      0.744032  
     114A      0.751893   115A      0.763957   116A      0.776825  
     117A      0.783037   118A      0.790033   119A      0.793297  
     120A      0.806061   121A      0.812535   122A      0.818375  
     123A      0.833127   124A      0.843240   125A      0.849267  
     126A      0.850832   127A      0.860559   128A      0.867725  
     129A      0.874619   130A      0.878706   131A      0.890726  
     132A      0.900878   133A      0.906904   134A      0.919983  
     135A      0.930326   136A      0.934658   137A      0.936894  
     138A      0.948815   139A      0.956765   140A      0.963647  
     141A      0.967443   142A      0.973801   143A      0.983953  
     144A      0.986978   145A      0.989314   146A      1.003957  
     147A      1.007421   148A      1.010987   149A      1.013969  
     150A      1.022010   151A      1.029137   152A      1.041810  
     153A      1.045741   154A      1.060685   155A      1.063890  
     156A      1.079109   157A      1.084001   158A      1.088414  
     159A      1.089243   160A      1.096238   161A      1.098994  
     162A      1.104843   163A      1.116035   164A      1.120520  
     165A      1.125438   166A      1.126456   167A      1.132269  
     168A      1.150797   169A      1.153633   170A      1.157158  
     171A      1.162022   172A      1.173201   173A      1.179518  
     174A      1.190354   175A      1.199981   176A      1.209059  
     177A      1.216119   178A      1.228039   179A      1.233494  
     180A      1.244331   181A      1.256676   182A      1.265296  
     183A      1.276454   184A      1.287855   185A      1.295594  
     186A      1.296793   187A      1.311549   188A      1.313162  
     189A      1.324778   190A      1.327533   191A      1.341977  
     192A      1.350599   193A      1.359575   194A      1.378563  
     195A      1.380928   196A      1.403183   197A      1.408232  
     198A      1.415982   199A      1.418421   200A      1.433043  
     201A      1.439723   202A      1.455134   203A      1.461109  
     204A      1.481892   205A      1.494712   206A      1.496757  
     207A      1.513579   208A      1.525417   209A      1.537215  
     210A      1.552749   211A      1.559664   212A      1.574131  
     213A      1.587495   214A      1.606096   215A      1.624341  
     216A      1.638331   217A      1.657339   218A      1.661979  
     219A      1.672218   220A      1.697754   221A      1.721415  
     222A      1.724493   223A      1.768776   224A      1.794063  
     225A      1.820585   226A      1.828737   227A      1.834285  
     228A      1.843359   229A      1.862941   230A      1.870874  
     231A      1.890799   232A      1.898322   233A      1.908557  
     234A      1.927527   235A      1.936454   236A      1.944442  
     237A      1.956626   238A      1.964723   239A      1.987168  
     240A      1.991790   241A      2.009115   242A      2.013911  
     243A      2.022813   244A      2.034896   245A      2.061505  
     246A      2.085029   247A      2.087425   248A      2.106543  
     249A      2.108815   250A      2.113593   251A      2.130351  
     252A      2.152026   253A      2.163743   254A      2.214018  
     255A      2.313364   256A      2.404941   257A      2.419641  
     258A      2.431200   259A      2.450669   260A      2.489747  
     261A      2.512937   262A      2.523263   263A      2.529264  
     264A      2.555839   265A      2.566405   266A      2.590590  
     267A      2.604494   268A      2.611994   269A      2.620999  
     270A      2.629002   271A      2.645460   272A      2.662052  
     273A      2.664952   274A      2.669294   275A      2.690082  
     276A      2.698765   277A      2.718746   278A      2.736021  
     279A      2.740500   280A      2.751928   281A      2.773822  
     282A      2.782241   283A      2.793535   284A      2.806226  
     285A      2.815096   286A      2.841657   287A      2.882718  
     288A      2.886673   289A      2.902174   290A      2.909454  
     291A      2.924061   292A      2.930024   293A      2.950231  
     294A      2.962676   295A      2.979767   296A      2.990896  
     297A      3.023584   298A      3.033378   299A      3.047923  
     300A      3.076115   301A      3.129554   302A      3.147486  
     303A      3.190467   304A      3.223264   305A      3.243973  
     306A      3.256926   307A      3.268870   308A      3.282796  
     309A      3.300302   310A      3.318887   311A      3.329461  
     312A      3.339986   313A      3.353152   314A      3.380165  
     315A      3.386721   316A      3.407124   317A      3.413097  
     318A      3.424953   319A      3.438924   320A      3.450669  
     321A      3.461856   322A      3.536954   323A      3.553148  
     324A      3.620644   325A      3.659755   326A      3.676683  
     327A      3.722992   328A      3.753016   329A      3.789293  
     330A      3.798764   331A      3.833789   332A      3.855060  
     333A      3.940214   334A      4.193203   335A      4.205461  
     336A      4.350763   337A      4.379009   338A      4.413338  
     339A      4.450759   340A      4.456288   341A      4.482374  
     342A      4.491404   343A      4.501324   344A      4.524534  
     345A      4.552664   346A      4.561019   347A      4.571725  
     348A      4.577321   349A      4.593278   350A      4.601939  
     351A      4.630509   352A      4.632538   353A      4.641130  
     354A      4.658163   355A      4.700475   356A      4.711530  
     357A      4.732683   358A      4.739345   359A      4.747325  
     360A      4.755219   361A      4.784766   362A      4.810798  
     363A      4.821002   364A      4.848591   365A      4.857298  
     366A      4.903999   367A      4.910445   368A      4.993498  
     369A      5.018491   370A      5.026512   371A      5.038457  
     372A      5.057160   373A      5.074168   374A      5.077852  
     375A      5.090088   376A      5.100373   377A      5.130767  
     378A      5.140313   379A      5.156006   380A      5.220304  
     381A      5.229291   382A      5.240869   383A      5.262869  
     384A      5.273104   385A      5.289515   386A      5.300813  
     387A      5.372306   388A      5.436960   389A      5.514188  
     390A      5.526382   391A      5.548972   392A      5.592106  
     393A      5.610173   394A      5.626632   395A      5.649429  
     396A      5.653094   397A      5.655035   398A      5.690389  
     399A      5.735489   400A      5.746450   401A      5.770950  
     402A      5.789631   403A      5.856989   404A      5.875456  
     405A      5.915777   406A      6.007114   407A      6.059786  
     408A      6.250134   409A      6.293601   410A      6.327843  
     411A      6.369593   412A      6.372217   413A      6.404214  
     414A      6.425222   415A      6.456097   416A      6.492620  
     417A      6.596042   418A      6.651836   419A      6.706663  
     420A      6.806849   421A      6.825775   422A      6.828289  
     423A      7.036896   424A      7.065897   425A      7.097740  
     426A      7.133668   427A      7.171338   428A      7.228067  
     429A      7.249235   430A      7.297438   431A      7.327759  
     432A      7.400439   433A      7.445189   434A      7.453717  
     435A      7.518157   436A      7.629317   437A      7.720947  
     438A      7.754665   439A      7.785637   440A      7.795651  
     441A      7.823790   442A      7.833403   443A      7.850460  
     444A      7.897359   445A      7.926346   446A      7.933526  
     447A      8.111560   448A      8.124924   449A      8.126935  
     450A      8.146559   451A      8.157497   452A      8.179846  
     453A      8.196553   454A      8.264844   455A      8.291119  
     456A      8.304794   457A      8.316590   458A      8.329942  
     459A      8.355016   460A      8.691897   461A      8.705857  
     462A      8.819522   463A      8.832521   464A      8.859286  
     465A      8.862183   466A      8.907401   467A      9.000175  
     468A      9.030719   469A      9.890979   470A      9.935967  
     471A      9.962187   472A     10.002241   473A     10.006392  
     474A     10.016075   475A     10.037657   476A     10.043155  
     477A     10.052895   478A     10.066593   479A     10.093229  
     480A     10.101406   481A     10.226823   482A     10.252149  
     483A     10.275364   484A     10.293370   485A     11.151023  
     486A     11.172084   487A     11.217549   488A     11.294963  
     489A     11.835504   490A     11.875518   491A     11.876901  
     492A     11.914287   493A     12.085194   494A     12.117052  
     495A     12.287558   496A     12.500176   497A     13.517322  
     498A     13.571804   499A     13.603302   500A     13.757380  
     501A     13.926614   502A     13.957861   503A     14.012967  
     504A     14.022643   505A     16.757738   506A     64.633229  
     507A     64.887503   508A     65.147354   509A     65.682887  
     510A     66.369308  

    Final Occupation by Irrep:
              A 
    DOCC [     5 ]
    NA   [     5 ]
    NB   [     5 ]

  @DF-RHF Final Energy:   -76.05857060908693

   => Energetics <=

    Nuclear Repulsion Energy =              9.3070641078084044
    One-Electron Energy =                -123.2210355454086397
    Two-Electron Energy =                  37.8554008285133179
    Total Energy =                        -76.0585706090869280

Computation Completed


Properties will be evaluated at   0.000000,   0.000000,   0.000000 [a0]

Properties computed using the SCF density matrix


 Multipole Moments:

 ------------------------------------------------------------------------------------
     Multipole            Electronic (a.u.)      Nuclear  (a.u.)        Total (a.u.)
 ------------------------------------------------------------------------------------

 L = 1.  Multiply by 2.5417464519 to convert [e a0] to [Debye]
 Dipole X            :        -35.6207196           36.3381956            0.7174761
 Dipole Y            :          4.6642513           -4.8297526           -0.1655013
 Dipole Z            :        -25.0657242           24.6935917           -0.3721324
 Magnitude           :                                                    0.8250122

 ------------------------------------------------------------------------------------

*** tstop() called on ddmfs1 at Mon Jan 22 14:05:50 2024
Module time:
	user time   =      91.36 seconds =       1.52 minutes
	system time =       5.74 seconds =       0.10 minutes
	total time  =          7 seconds =       0.12 minutes
Total time:
	user time   =      91.36 seconds =       1.52 minutes
	system time =       5.74 seconds =       0.10 minutes
	total time  =          7 seconds =       0.12 minutes

*** tstart() called on ddmfs1
*** at Mon Jan 22 14:05:50 2024


  //>>>>>>>>>>>>>>>>>>>>>>>>>>>>>>>>>>>//
  //               DFMP2               //
  //<<<<<<<<<<<<<<<<<<<<<<<<<<<<<<<<<<<//

   => Loading Basis Set <=

    Name: (AUG-CC-PVTZ AUX)
    Role: RIFIT
    Keyword: DF_BASIS_MP2
    atoms 1                            entry NA         line   610 file /ddmfs1b/softs/psi4conda/share/psi4/basis/def2-qzvpp-ri.gbs 
    atoms 2, 5, 8, 11, 14              entry O          line   264 file /ddmfs1b/softs/psi4conda/share/psi4/basis/aug-cc-pvtz-ri.gbs 
    atoms 3-4, 6-7, 9-10, 12-13, 15-16 entry H          line    30 file /ddmfs1b/softs/psi4conda/share/psi4/basis/aug-cc-pvtz-ri.gbs 

	 --------------------------------------------------------
	                          DF-MP2                         
	      2nd-Order Density-Fitted Moller-Plesset Theory     
	              RMP2 Wavefunction,  20 Threads             
	                                                         
	        Rob Parrish, Justin Turney, Andy Simmonett,      
	           Ed Hohenstein, and C. David Sherrill          
	 --------------------------------------------------------

   => Auxiliary Basis Set <=

  Basis Set: (AUG-CC-PVTZ AUX)
    Blend: AUG-CC-PVTZ-RI + DEF2-QZVPP-RI
    Number of shells: 322
    Number of basis functions: 1156
    Number of Cartesian functions: 1444
    Spherical Harmonics?: true
    Max angular momentum: 4

	 --------------------------------------------------------
	                 NBF =   510, NAUX =  1156
	 --------------------------------------------------------
	   CLASS    FOCC     OCC    AOCC    AVIR     VIR    FVIR
	   PAIRS       0       5       5     505     505       0
	 --------------------------------------------------------

	-----------------------------------------------------------
	 ==================> DF-MP2 Energies <==================== 
	-----------------------------------------------------------
	 Reference Energy          =     -76.0585706090869280 [Eh]
	 Singles Energy            =      -0.0000000000000000 [Eh]
	 Same-Spin Energy          =      -0.0684768135776278 [Eh]
	 Opposite-Spin Energy      =      -0.2159586202762376 [Eh]
	 Correlation Energy        =      -0.2844354338538654 [Eh]
	 Total Energy              =     -76.3430060429408002 [Eh]
	-----------------------------------------------------------
	 ================> DF-SCS-MP2 Energies <================== 
	-----------------------------------------------------------
	 SCS Same-Spin Scale       =       0.3333333333333333 [-]
	 SCS Opposite-Spin Scale   =       1.2000000000000000 [-]
	 SCS Same-Spin Energy      =      -0.0228256045258759 [Eh]
	 SCS Opposite-Spin Energy  =      -0.2591503443314851 [Eh]
	 SCS Correlation Energy    =      -0.2819759488573611 [Eh]
	 SCS Total Energy          =     -76.3405465579442932 [Eh]
	-----------------------------------------------------------


*** tstop() called on ddmfs1 at Mon Jan 22 14:05:56 2024
Module time:
	user time   =      27.88 seconds =       0.46 minutes
	system time =       2.01 seconds =       0.03 minutes
	total time  =          6 seconds =       0.10 minutes
Total time:
	user time   =     119.26 seconds =       1.99 minutes
	system time =       7.75 seconds =       0.13 minutes
	total time  =         13 seconds =       0.22 minutes

    Psi4 stopped on: Monday, 22 January 2024 02:05PM
    Psi4 wall time for execution: 0:00:13.15

*** Psi4 exiting successfully. Buy a developer a beer!
