
    -----------------------------------------------------------------------
          Psi4: An Open-Source Ab Initio Electronic Structure Package
                               Psi4 1.8.2 release

                         Git: Rev {} zzzzzzz 


    D. G. A. Smith, L. A. Burns, A. C. Simmonett, R. M. Parrish,
    M. C. Schieber, R. Galvelis, P. Kraus, H. Kruse, R. Di Remigio,
    A. Alenaizan, A. M. James, S. Lehtola, J. P. Misiewicz, M. Scheurer,
    R. A. Shaw, J. B. Schriber, Y. Xie, Z. L. Glick, D. A. Sirianni,
    J. S. O'Brien, J. M. Waldrop, A. Kumar, E. G. Hohenstein,
    B. P. Pritchard, B. R. Brooks, H. F. Schaefer III, A. Yu. Sokolov,
    K. Patkowski, A. E. DePrince III, U. Bozkaya, R. A. King,
    F. A. Evangelista, J. M. Turney, T. D. Crawford, C. D. Sherrill,
    J. Chem. Phys. 152(18) 184108 (2020). https://doi.org/10.1063/5.0006002

                            Additional Code Authors
    E. T. Seidl, C. L. Janssen, E. F. Valeev, M. L. Leininger,
    J. F. Gonthier, R. M. Richard, H. R. McAlexander, M. Saitow, X. Wang,
    P. Verma, M. H. Lechner, A. Jiang, S. Behnle, A. G. Heide,
    M. F. Herbst, and D. L. Poole

             Previous Authors, Complete List of Code Contributors,
                       and Citations for Specific Modules
    https://github.com/psi4/psi4/blob/master/codemeta.json
    https://github.com/psi4/psi4/graphs/contributors
    http://psicode.org/psi4manual/master/introduction.html#citing-psifour

    -----------------------------------------------------------------------


    Psi4 started on: Monday, 22 January 2024 03:37PM

    Process ID: 73306
    Host:       ddmfs1
    PSIDATADIR: /ddmfs1b/softs/psi4conda/share/psi4
    Memory:     500.0 MiB
    Threads:    20
    
  ==> Input File <==

--------------------------------------------------------------------------
MEMORY 60 GB

molecule dimer {
0 1
Gh(Na)     0.000000     0.000000     0.000000
Gh(O)     -0.385609     0.971783     2.130412
Gh(H)      0.171738     1.741781     2.032620
Gh(H)      0.110888     0.513405     2.845892
Gh(O)      1.650679    -1.448679     0.973540
Gh(H)      2.407191    -1.477866     0.372562
Gh(H)      2.005735    -1.634422     1.882786
Gh(O)      1.370942     1.688736    -1.335288
Gh(H)      1.905338     1.353027    -2.042046
Gh(H)      2.089085     2.118485    -0.854267
O         -0.901623    -0.275276    -2.159721
H         -0.471246    -1.081532    -2.486808
H         -0.652592     0.403088    -2.864428

units ang
no_reorient
no_com
symmetry c1
}

set {
basis        aug-cc-pVTZ
scf_type     df
}

energy("mp2")
--------------------------------------------------------------------------

  Memory set to  55.879 GiB by Python driver.

Scratch directory: /ddmfs1a/scratch/
   => Libint2 <=

    Primary   basis highest AM E, G, H:  5, 4, 3
    Auxiliary basis highest AM E, G, H:  6, 5, 4
    Onebody   basis highest AM E, G, H:  6, 5, 4
    Solid Harmonics ordering:            gaussian

*** tstart() called on ddmfs1
*** at Mon Jan 22 15:37:17 2024

   => Loading Basis Set <=

    Name: AUG-CC-PVTZ
    Role: ORBITAL
    Keyword: BASIS
    atoms 1                     entry NA         line   469 file /ddmfs1b/softs/psi4conda/share/psi4/basis/aug-cc-pvtz.gbs 
    atoms 2, 5, 8, 11           entry O          line   331 file /ddmfs1b/softs/psi4conda/share/psi4/basis/aug-cc-pvtz.gbs 
    atoms 3-4, 6-7, 9-10, 12-13 entry H          line    40 file /ddmfs1b/softs/psi4conda/share/psi4/basis/aug-cc-pvtz.gbs 


         ---------------------------------------------------------
                                   SCF
               by Justin Turney, Rob Parrish, Andy Simmonett
                          and Daniel G. A. Smith
                              RHF Reference
                       20 Threads,  57220 MiB Core
         ---------------------------------------------------------

  ==> Geometry <==

    Molecular point group: c1
    Full point group: C1

    Geometry (in Angstrom), charge = 0, multiplicity = 1:

       Center              X                  Y                   Z               Mass       
    ------------   -----------------  -----------------  -----------------  -----------------
      Gh(NA)          0.000000000000     0.000000000000     0.000000000000    22.989769282000
      Gh(O)          -0.385609000000     0.971783000000     2.130412000000    15.994914619570
      Gh(H)           0.171738000000     1.741781000000     2.032620000000     1.007825032230
      Gh(H)           0.110888000000     0.513405000000     2.845892000000     1.007825032230
      Gh(O)           1.650679000000    -1.448679000000     0.973540000000    15.994914619570
      Gh(H)           2.407191000000    -1.477866000000     0.372562000000     1.007825032230
      Gh(H)           2.005735000000    -1.634422000000     1.882786000000     1.007825032230
      Gh(O)           1.370942000000     1.688736000000    -1.335288000000    15.994914619570
      Gh(H)           1.905338000000     1.353027000000    -2.042046000000     1.007825032230
      Gh(H)           2.089085000000     2.118485000000    -0.854267000000     1.007825032230
         O           -0.901623000000    -0.275276000000    -2.159721000000    15.994914619570
         H           -0.471246000000    -1.081532000000    -2.486808000000     1.007825032230
         H           -0.652592000000     0.403088000000    -2.864428000000     1.007825032230

  Running in c1 symmetry.

  Rotational constants: A =      0.07877  B =      0.05007  C =      0.04955 [cm^-1]
  Rotational constants: A =   2361.42683  B =   1501.04131  C =   1485.46300 [MHz]
  Nuclear repulsion =    8.898408031286063

  Charge       = 0
  Multiplicity = 1
  Electrons    = 10
  Nalpha       = 5
  Nbeta        = 5

  ==> Algorithm <==

  SCF Algorithm Type is DF.
  DIIS enabled.
  MOM disabled.
  Fractional occupation disabled.
  Guess Type is SAD.
  Energy threshold   = 1.00e-08
  Density threshold  = 1.00e-08
  Integral threshold = 1.00e-12

  ==> Primary Basis <==

  Basis Set: AUG-CC-PVTZ
    Blend: AUG-CC-PVTZ
    Number of shells: 144
    Number of basis functions: 418
    Number of Cartesian functions: 479
    Spherical Harmonics?: true
    Max angular momentum: 3

   => Loading Basis Set <=

    Name: (AUG-CC-PVTZ AUX)
    Role: JKFIT
    Keyword: DF_BASIS_SCF
    atoms 1                     entry NA         line   498 file /ddmfs1b/softs/psi4conda/share/psi4/basis/def2-universal-jkfit.gbs 
    atoms 2, 5, 8, 11           entry O          line   286 file /ddmfs1b/softs/psi4conda/share/psi4/basis/aug-cc-pvtz-jkfit.gbs 
    atoms 3-4, 6-7, 9-10, 12-13 entry H          line    70 file /ddmfs1b/softs/psi4conda/share/psi4/basis/aug-cc-pvtz-jkfit.gbs 

  ==> Integral Setup <==

  DFHelper Memory: AOs need 1.141 GiB; user supplied 41.910 GiB. 
  Using in-core AOs.

  ==> MemDFJK: Density-Fitted J/K Matrices <==

    J tasked:                   Yes
    K tasked:                   Yes
    wK tasked:                   No
    OpenMP threads:              20
    Memory [MiB]:             42915
    Algorithm:                 Core
    Schwarz Cutoff:           1E-12
    Mask sparsity (%):       7.9199
    Fitting Condition:        1E-10

   => Auxiliary Basis Set <=

  Basis Set: (AUG-CC-PVTZ AUX)
    Blend: AUG-CC-PVTZ-JKFIT + DEF2-UNIVERSAL-JKFIT
    Number of shells: 266
    Number of basis functions: 896
    Number of Cartesian functions: 1101
    Spherical Harmonics?: true
    Max angular momentum: 4

  Minimum eigenvalue in the overlap matrix is 6.7715900979E-05.
  Reciprocal condition number of the overlap matrix is 5.4511483438E-06.
    Using symmetric orthogonalization.

  ==> Pre-Iterations <==

  SCF Guess: Superposition of Atomic Densities via on-the-fly atomic UHF (no occupation information).

   -------------------------
    Irrep   Nso     Nmo    
   -------------------------
     A        418     418 
   -------------------------
    Total     418     418
   -------------------------

  ==> Iterations <==

                           Total Energy        Delta E     RMS |[F,P]|

   @DF-RHF iter SAD:   -75.44152830861775   -7.54415e+01   0.00000e+00 
   @DF-RHF iter   1:   -75.96961995089399   -5.28092e-01   1.11662e-03 ADIIS/DIIS
   @DF-RHF iter   2:   -76.02126356002384   -5.16436e-02   7.89912e-04 ADIIS/DIIS
   @DF-RHF iter   3:   -76.05541490708055   -3.41513e-02   5.39433e-05 DIIS
   @DF-RHF iter   4:   -76.05585106182430   -4.36155e-04   1.38432e-05 DIIS
   @DF-RHF iter   5:   -76.05588328775866   -3.22259e-05   3.26525e-06 DIIS
   @DF-RHF iter   6:   -76.05588607938461   -2.79163e-06   7.12599e-07 DIIS
   @DF-RHF iter   7:   -76.05588622184310   -1.42458e-07   1.21801e-07 DIIS
   @DF-RHF iter   8:   -76.05588622541009   -3.56700e-09   2.13505e-08 DIIS
   @DF-RHF iter   9:   -76.05588622549925   -8.91589e-11   5.53476e-09 DIIS
  Energy and wave function converged.


  ==> Post-Iterations <==

    Orbital Energies [Eh]
    ---------------------

    Doubly Occupied:                                                      

       1A    -20.573551     2A     -1.338991     3A     -0.696251  
       4A     -0.582579     5A     -0.508442  

    Virtual:                                                              

       6A      0.007423     7A      0.016217     8A      0.017179  
       9A      0.018730    10A      0.038993    11A      0.052086  
      12A      0.053952    13A      0.055226    14A      0.056823  
      15A      0.058792    16A      0.060334    17A      0.063021  
      18A      0.070601    19A      0.080079    20A      0.081383  
      21A      0.085359    22A      0.093895    23A      0.096967  
      24A      0.104532    25A      0.108182    26A      0.116725  
      27A      0.135145    28A      0.136487    29A      0.144337  
      30A      0.162317    31A      0.166662    32A      0.169916  
      33A      0.177720    34A      0.180501    35A      0.186519  
      36A      0.200191    37A      0.203426    38A      0.209079  
      39A      0.214906    40A      0.216080    41A      0.217574  
      42A      0.230665    43A      0.248748    44A      0.259055  
      45A      0.267976    46A      0.271817    47A      0.277596  
      48A      0.290090    49A      0.298794    50A      0.301008  
      51A      0.307125    52A      0.309981    53A      0.321411  
      54A      0.329791    55A      0.336114    56A      0.340096  
      57A      0.350645    58A      0.352439    59A      0.357111  
      60A      0.367748    61A      0.376619    62A      0.381782  
      63A      0.386585    64A      0.394054    65A      0.401347  
      66A      0.402502    67A      0.409497    68A      0.422229  
      69A      0.426388    70A      0.431894    71A      0.436903  
      72A      0.440213    73A      0.449479    74A      0.457964  
      75A      0.462709    76A      0.468152    77A      0.473894  
      78A      0.477243    79A      0.479693    80A      0.481164  
      81A      0.494649    82A      0.501515    83A      0.504883  
      84A      0.512387    85A      0.516968    86A      0.530160  
      87A      0.538095    88A      0.544745    89A      0.556321  
      90A      0.577343    91A      0.583055    92A      0.593288  
      93A      0.609059    94A      0.678711    95A      0.685250  
      96A      0.711108    97A      0.722600    98A      0.731139  
      99A      0.739312   100A      0.749109   101A      0.763615  
     102A      0.768100   103A      0.772600   104A      0.784994  
     105A      0.789300   106A      0.792273   107A      0.806863  
     108A      0.814674   109A      0.825430   110A      0.833045  
     111A      0.843004   112A      0.850366   113A      0.860759  
     114A      0.869919   115A      0.875980   116A      0.882241  
     117A      0.890718   118A      0.898192   119A      0.912670  
     120A      0.917934   121A      0.924208   122A      0.931256  
     123A      0.937906   124A      0.950909   125A      0.953352  
     126A      0.963321   127A      0.974025   128A      0.985308  
     129A      0.987418   130A      0.996509   131A      1.002560  
     132A      1.016111   133A      1.031808   134A      1.036795  
     135A      1.042546   136A      1.045497   137A      1.053566  
     138A      1.058606   139A      1.063524   140A      1.077236  
     141A      1.081031   142A      1.094058   143A      1.096361  
     144A      1.104661   145A      1.109088   146A      1.113116  
     147A      1.118068   148A      1.128767   149A      1.139526  
     150A      1.144560   151A      1.155830   152A      1.180405  
     153A      1.181960   154A      1.191271   155A      1.206252  
     156A      1.220464   157A      1.231694   158A      1.241222  
     159A      1.251178   160A      1.260728   161A      1.266650  
     162A      1.290445   163A      1.298468   164A      1.305234  
     165A      1.322311   166A      1.324119   167A      1.326891  
     168A      1.353410   169A      1.362358   170A      1.367155  
     171A      1.378046   172A      1.390931   173A      1.397178  
     174A      1.411675   175A      1.421075   176A      1.444445  
     177A      1.449523   178A      1.461054   179A      1.481047  
     180A      1.496041   181A      1.525279   182A      1.552889  
     183A      1.581155   184A      1.602564   185A      1.616462  
     186A      1.624262   187A      1.654048   188A      1.676948  
     189A      1.697369   190A      1.734219   191A      1.747465  
     192A      1.805821   193A      1.811589   194A      1.826777  
     195A      1.834521   196A      1.847189   197A      1.858775  
     198A      1.868351   199A      1.880677   200A      1.896623  
     201A      1.902528   202A      1.917313   203A      1.935013  
     204A      1.951930   205A      1.963178   206A      1.985700  
     207A      2.003870   208A      2.025289   209A      2.039274  
     210A      2.063807   211A      2.115624   212A      2.142525  
     213A      2.173035   214A      2.238151   215A      2.372145  
     216A      2.395088   217A      2.440570   218A      2.458555  
     219A      2.482000   220A      2.500010   221A      2.511767  
     222A      2.529761   223A      2.549220   224A      2.554853  
     225A      2.573844   226A      2.583374   227A      2.598098  
     228A      2.622254   229A      2.628158   230A      2.631876  
     231A      2.643623   232A      2.652194   233A      2.667583  
     234A      2.685609   235A      2.694416   236A      2.702349  
     237A      2.710074   238A      2.756799   239A      2.787370  
     240A      2.795064   241A      2.808955   242A      2.838082  
     243A      2.851933   244A      2.878445   245A      2.888714  
     246A      2.900313   247A      2.908581   248A      2.921763  
     249A      2.943924   250A      2.953892   251A      2.997900  
     252A      3.038931   253A      3.100468   254A      3.187922  
     255A      3.220680   256A      3.233239   257A      3.239923  
     258A      3.260418   259A      3.274692   260A      3.307374  
     261A      3.331733   262A      3.358103   263A      3.367548  
     264A      3.372973   265A      3.393694   266A      3.417383  
     267A      3.437979   268A      3.450019   269A      3.587394  
     270A      3.593680   271A      3.617694   272A      3.715772  
     273A      3.740250   274A      3.775584   275A      3.786127  
     276A      3.853079   277A      4.098270   278A      4.205772  
     279A      4.264350   280A      4.290220   281A      4.394844  
     282A      4.409197   283A      4.431023   284A      4.448852  
     285A      4.471316   286A      4.489150   287A      4.508973  
     288A      4.512205   289A      4.517990   290A      4.530181  
     291A      4.539896   292A      4.566742   293A      4.592524  
     294A      4.612875   295A      4.624402   296A      4.646745  
     297A      4.670200   298A      4.699577   299A      4.729262  
     300A      4.741732   301A      4.763346   302A      4.782771  
     303A      4.802708   304A      4.809820   305A      4.850334  
     306A      4.915826   307A      4.953004   308A      4.973466  
     309A      4.992598   310A      5.018685   311A      5.033327  
     312A      5.049568   313A      5.073290   314A      5.105661  
     315A      5.129689   316A      5.140665   317A      5.219086  
     318A      5.250206   319A      5.284012   320A      5.300661  
     321A      5.312706   322A      5.456360   323A      5.492312  
     324A      5.543539   325A      5.559863   326A      5.596934  
     327A      5.623633   328A      5.646182   329A      5.668901  
     330A      5.687775   331A      5.700351   332A      5.721201  
     333A      5.752361   334A      5.837714   335A      5.940867  
     336A      5.978276   337A      6.179722   338A      6.227955  
     339A      6.238359   340A      6.296543   341A      6.311523  
     342A      6.339759   343A      6.347595   344A      6.589626  
     345A      6.612109   346A      6.644979   347A      6.698489  
     348A      6.760625   349A      6.864650   350A      6.926876  
     351A      6.959429   352A      7.059342   353A      7.081826  
     354A      7.121739   355A      7.133362   356A      7.201268  
     357A      7.254768   358A      7.313002   359A      7.415760  
     360A      7.440942   361A      7.572596   362A      7.650595  
     363A      7.711811   364A      7.734214   365A      7.751280  
     366A      7.807053   367A      7.857857   368A      7.928150  
     369A      7.958262   370A      7.963715   371A      8.077789  
     372A      8.088502   373A      8.099253   374A      8.105602  
     375A      8.122587   376A      8.195604   377A      8.257387  
     378A      8.329936   379A      8.343556   380A      8.677357  
     381A      8.688194   382A      8.714618   383A      8.738440  
     384A      8.770755   385A      8.859201   386A      8.946537  
     387A      9.807041   388A      9.826748   389A      9.883587  
     390A      9.986521   391A     10.013238   392A     10.025845  
     393A     10.030804   394A     10.041515   395A     10.065285  
     396A     10.222717   397A     10.255965   398A     10.258978  
     399A     11.088048   400A     11.218552   401A     11.343838  
     402A     11.733936   403A     11.843840   404A     11.940086  
     405A     12.014164   406A     12.128800   407A     12.274897  
     408A     13.443368   409A     13.571767   410A     13.678800  
     411A     13.829219   412A     13.902390   413A     13.951746  
     414A     15.309830   415A     64.165643   416A     64.688417  
     417A     64.917785   418A     65.544817  

    Final Occupation by Irrep:
              A 
    DOCC [     5 ]
    NA   [     5 ]
    NB   [     5 ]

  @DF-RHF Final Energy:   -76.05588622549925

   => Energetics <=

    Nuclear Repulsion Energy =              8.8984080312860634
    One-Electron Energy =                -122.5089581661473375
    Two-Electron Energy =                  37.5546639093620200
    Total Energy =                        -76.0558862254992505

Computation Completed


Properties will be evaluated at   0.000000,   0.000000,   0.000000 [a0]

Properties computed using the SCF density matrix


 Multipole Moments:

 ------------------------------------------------------------------------------------
     Multipole            Electronic (a.u.)      Nuclear  (a.u.)        Total (a.u.)
 ------------------------------------------------------------------------------------

 L = 1.  Multiply by 2.5417464519 to convert [e a0] to [Debye]
 Dipole X            :         16.1948708          -15.7543103            0.4405604
 Dipole Y            :          5.3538877           -5.4436433           -0.0897556
 Dipole Z            :         42.0960002          -42.7626201           -0.6666199
 Magnitude           :                                                    0.8040719

 ------------------------------------------------------------------------------------

*** tstop() called on ddmfs1 at Mon Jan 22 15:37:21 2024
Module time:
	user time   =      63.98 seconds =       1.07 minutes
	system time =       4.39 seconds =       0.07 minutes
	total time  =          4 seconds =       0.07 minutes
Total time:
	user time   =      63.98 seconds =       1.07 minutes
	system time =       4.39 seconds =       0.07 minutes
	total time  =          4 seconds =       0.07 minutes

*** tstart() called on ddmfs1
*** at Mon Jan 22 15:37:21 2024


  //>>>>>>>>>>>>>>>>>>>>>>>>>>>>>>>>>>>//
  //               DFMP2               //
  //<<<<<<<<<<<<<<<<<<<<<<<<<<<<<<<<<<<//

   => Loading Basis Set <=

    Name: (AUG-CC-PVTZ AUX)
    Role: RIFIT
    Keyword: DF_BASIS_MP2
    atoms 1                     entry NA         line   610 file /ddmfs1b/softs/psi4conda/share/psi4/basis/def2-qzvpp-ri.gbs 
    atoms 2, 5, 8, 11           entry O          line   264 file /ddmfs1b/softs/psi4conda/share/psi4/basis/aug-cc-pvtz-ri.gbs 
    atoms 3-4, 6-7, 9-10, 12-13 entry H          line    30 file /ddmfs1b/softs/psi4conda/share/psi4/basis/aug-cc-pvtz-ri.gbs 

	 --------------------------------------------------------
	                          DF-MP2                         
	      2nd-Order Density-Fitted Moller-Plesset Theory     
	              RMP2 Wavefunction,  20 Threads             
	                                                         
	        Rob Parrish, Justin Turney, Andy Simmonett,      
	           Ed Hohenstein, and C. David Sherrill          
	 --------------------------------------------------------

   => Auxiliary Basis Set <=

  Basis Set: (AUG-CC-PVTZ AUX)
    Blend: AUG-CC-PVTZ-RI + DEF2-QZVPP-RI
    Number of shells: 266
    Number of basis functions: 958
    Number of Cartesian functions: 1198
    Spherical Harmonics?: true
    Max angular momentum: 4

	 --------------------------------------------------------
	                 NBF =   418, NAUX =   958
	 --------------------------------------------------------
	   CLASS    FOCC     OCC    AOCC    AVIR     VIR    FVIR
	   PAIRS       0       5       5     413     413       0
	 --------------------------------------------------------

	-----------------------------------------------------------
	 ==================> DF-MP2 Energies <==================== 
	-----------------------------------------------------------
	 Reference Energy          =     -76.0558862254992505 [Eh]
	 Singles Energy            =      -0.0000000000000000 [Eh]
	 Same-Spin Energy          =      -0.0690267221425471 [Eh]
	 Opposite-Spin Energy      =      -0.2177085914508138 [Eh]
	 Correlation Energy        =      -0.2867353135933610 [Eh]
	 Total Energy              =     -76.3426215390926046 [Eh]
	-----------------------------------------------------------
	 ================> DF-SCS-MP2 Energies <================== 
	-----------------------------------------------------------
	 SCS Same-Spin Scale       =       0.3333333333333333 [-]
	 SCS Opposite-Spin Scale   =       1.2000000000000000 [-]
	 SCS Same-Spin Energy      =      -0.0230089073808490 [Eh]
	 SCS Opposite-Spin Energy  =      -0.2612503097409766 [Eh]
	 SCS Correlation Energy    =      -0.2842592171218256 [Eh]
	 SCS Total Energy          =     -76.3401454426210790 [Eh]
	-----------------------------------------------------------


*** tstop() called on ddmfs1 at Mon Jan 22 15:37:27 2024
Module time:
	user time   =      21.76 seconds =       0.36 minutes
	system time =       1.58 seconds =       0.03 minutes
	total time  =          6 seconds =       0.10 minutes
Total time:
	user time   =      85.76 seconds =       1.43 minutes
	system time =       5.97 seconds =       0.10 minutes
	total time  =         10 seconds =       0.17 minutes

    Psi4 stopped on: Monday, 22 January 2024 03:37PM
    Psi4 wall time for execution: 0:00:09.89

*** Psi4 exiting successfully. Buy a developer a beer!
