
    -----------------------------------------------------------------------
          Psi4: An Open-Source Ab Initio Electronic Structure Package
                               Psi4 1.8.2 release

                         Git: Rev {} zzzzzzz 


    D. G. A. Smith, L. A. Burns, A. C. Simmonett, R. M. Parrish,
    M. C. Schieber, R. Galvelis, P. Kraus, H. Kruse, R. Di Remigio,
    A. Alenaizan, A. M. James, S. Lehtola, J. P. Misiewicz, M. Scheurer,
    R. A. Shaw, J. B. Schriber, Y. Xie, Z. L. Glick, D. A. Sirianni,
    J. S. O'Brien, J. M. Waldrop, A. Kumar, E. G. Hohenstein,
    B. P. Pritchard, B. R. Brooks, H. F. Schaefer III, A. Yu. Sokolov,
    K. Patkowski, A. E. DePrince III, U. Bozkaya, R. A. King,
    F. A. Evangelista, J. M. Turney, T. D. Crawford, C. D. Sherrill,
    J. Chem. Phys. 152(18) 184108 (2020). https://doi.org/10.1063/5.0006002

                            Additional Code Authors
    E. T. Seidl, C. L. Janssen, E. F. Valeev, M. L. Leininger,
    J. F. Gonthier, R. M. Richard, H. R. McAlexander, M. Saitow, X. Wang,
    P. Verma, M. H. Lechner, A. Jiang, S. Behnle, A. G. Heide,
    M. F. Herbst, and D. L. Poole

             Previous Authors, Complete List of Code Contributors,
                       and Citations for Specific Modules
    https://github.com/psi4/psi4/blob/master/codemeta.json
    https://github.com/psi4/psi4/graphs/contributors
    http://psicode.org/psi4manual/master/introduction.html#citing-psifour

    -----------------------------------------------------------------------


    Psi4 started on: Monday, 22 January 2024 02:07PM

    Process ID: 65081
    Host:       ddmfs1
    PSIDATADIR: /ddmfs1b/softs/psi4conda/share/psi4
    Memory:     500.0 MiB
    Threads:    20
    
  ==> Input File <==

--------------------------------------------------------------------------
MEMORY 60 GB

molecule dimer {
0 1
Gh(Na)     0.000000     0.000000     0.000000
Gh(O)     -1.409074     0.355305    -1.934811
Gh(H)     -2.018915    -0.084566    -2.517439
Gh(H)     -1.713316     1.279090    -1.866761
O          1.794911    -0.561345    -1.460683
H          1.593494    -0.314377    -2.353811
H          2.372591     0.005118    -0.936876
Gh(O)     -0.435838    -2.352717    -0.436670
Gh(H)     -1.222788    -2.285827    -0.914371
Gh(H)      0.251402    -2.259475    -1.069210
Gh(O)      1.104550    -0.175403     2.295834
Gh(H)      0.876549    -0.816756     2.946310
Gh(H)      1.979536    -0.369264     1.912482
Gh(O)     -1.853595     0.756497     1.640902
Gh(H)     -1.903286     0.033801     2.281206
Gh(H)     -2.592475     0.565838     1.026460
Gh(O)      1.194547     2.122144    -0.067927
Gh(H)      1.308253     2.491892    -0.928783
Gh(H)      0.775169     2.856759     0.408660

units ang
no_reorient
no_com
symmetry c1
}

set {
basis        aug-cc-pVTZ
scf_type     df
}

energy("mp2")
--------------------------------------------------------------------------

  Memory set to  55.879 GiB by Python driver.

Scratch directory: /ddmfs1a/scratch/
   => Libint2 <=

    Primary   basis highest AM E, G, H:  5, 4, 3
    Auxiliary basis highest AM E, G, H:  6, 5, 4
    Onebody   basis highest AM E, G, H:  6, 5, 4
    Solid Harmonics ordering:            gaussian

*** tstart() called on ddmfs1
*** at Mon Jan 22 14:07:05 2024

   => Loading Basis Set <=

    Name: AUG-CC-PVTZ
    Role: ORBITAL
    Keyword: BASIS
    atoms 1                                   entry NA         line   469 file /ddmfs1b/softs/psi4conda/share/psi4/basis/aug-cc-pvtz.gbs 
    atoms 2, 5, 8, 11, 14, 17                 entry O          line   331 file /ddmfs1b/softs/psi4conda/share/psi4/basis/aug-cc-pvtz.gbs 
    atoms 3-4, 6-7, 9-10, 12-13, 15-16, 18-19 entry H          line    40 file /ddmfs1b/softs/psi4conda/share/psi4/basis/aug-cc-pvtz.gbs 


         ---------------------------------------------------------
                                   SCF
               by Justin Turney, Rob Parrish, Andy Simmonett
                          and Daniel G. A. Smith
                              RHF Reference
                       20 Threads,  57220 MiB Core
         ---------------------------------------------------------

  ==> Geometry <==

    Molecular point group: c1
    Full point group: C1

    Geometry (in Angstrom), charge = 0, multiplicity = 1:

       Center              X                  Y                   Z               Mass       
    ------------   -----------------  -----------------  -----------------  -----------------
      Gh(NA)          0.000000000000     0.000000000000     0.000000000000    22.989769282000
      Gh(O)          -1.409074000000     0.355305000000    -1.934811000000    15.994914619570
      Gh(H)          -2.018915000000    -0.084566000000    -2.517439000000     1.007825032230
      Gh(H)          -1.713316000000     1.279090000000    -1.866761000000     1.007825032230
         O            1.794911000000    -0.561345000000    -1.460683000000    15.994914619570
         H            1.593494000000    -0.314377000000    -2.353811000000     1.007825032230
         H            2.372591000000     0.005118000000    -0.936876000000     1.007825032230
      Gh(O)          -0.435838000000    -2.352717000000    -0.436670000000    15.994914619570
      Gh(H)          -1.222788000000    -2.285827000000    -0.914371000000     1.007825032230
      Gh(H)           0.251402000000    -2.259475000000    -1.069210000000     1.007825032230
      Gh(O)           1.104550000000    -0.175403000000     2.295834000000    15.994914619570
      Gh(H)           0.876549000000    -0.816756000000     2.946310000000     1.007825032230
      Gh(H)           1.979536000000    -0.369264000000     1.912482000000     1.007825032230
      Gh(O)          -1.853595000000     0.756497000000     1.640902000000    15.994914619570
      Gh(H)          -1.903286000000     0.033801000000     2.281206000000     1.007825032230
      Gh(H)          -2.592475000000     0.565838000000     1.026460000000     1.007825032230
      Gh(O)           1.194547000000     2.122144000000    -0.067927000000    15.994914619570
      Gh(H)           1.308253000000     2.491892000000    -0.928783000000     1.007825032230
      Gh(H)           0.775169000000     2.856759000000     0.408660000000     1.007825032230

  Running in c1 symmetry.

  Rotational constants: A =      0.04103  B =      0.03631  C =      0.03397 [cm^-1]
  Rotational constants: A =   1230.07061  B =   1088.62315  C =   1018.40150 [MHz]
  Nuclear repulsion =    9.177638226165062

  Charge       = 0
  Multiplicity = 1
  Electrons    = 10
  Nalpha       = 5
  Nbeta        = 5

  ==> Algorithm <==

  SCF Algorithm Type is DF.
  DIIS enabled.
  MOM disabled.
  Fractional occupation disabled.
  Guess Type is SAD.
  Energy threshold   = 1.00e-08
  Density threshold  = 1.00e-08
  Integral threshold = 1.00e-12

  ==> Primary Basis <==

  Basis Set: AUG-CC-PVTZ
    Blend: AUG-CC-PVTZ
    Number of shells: 208
    Number of basis functions: 602
    Number of Cartesian functions: 689
    Spherical Harmonics?: true
    Max angular momentum: 3

   => Loading Basis Set <=

    Name: (AUG-CC-PVTZ AUX)
    Role: JKFIT
    Keyword: DF_BASIS_SCF
    atoms 1                                   entry NA         line   498 file /ddmfs1b/softs/psi4conda/share/psi4/basis/def2-universal-jkfit.gbs 
    atoms 2, 5, 8, 11, 14, 17                 entry O          line   286 file /ddmfs1b/softs/psi4conda/share/psi4/basis/aug-cc-pvtz-jkfit.gbs 
    atoms 3-4, 6-7, 9-10, 12-13, 15-16, 18-19 entry H          line    70 file /ddmfs1b/softs/psi4conda/share/psi4/basis/aug-cc-pvtz-jkfit.gbs 

  ==> Integral Setup <==

  DFHelper Memory: AOs need 3.303 GiB; user supplied 41.910 GiB. 
  Using in-core AOs.

  ==> MemDFJK: Density-Fitted J/K Matrices <==

    J tasked:                   Yes
    K tasked:                   Yes
    wK tasked:                   No
    OpenMP threads:              20
    Memory [MiB]:             42915
    Algorithm:                 Core
    Schwarz Cutoff:           1E-12
    Mask sparsity (%):       9.0374
    Fitting Condition:        1E-10

   => Auxiliary Basis Set <=

  Basis Set: (AUG-CC-PVTZ AUX)
    Blend: AUG-CC-PVTZ-JKFIT + DEF2-UNIVERSAL-JKFIT
    Number of shells: 382
    Number of basis functions: 1288
    Number of Cartesian functions: 1583
    Spherical Harmonics?: true
    Max angular momentum: 4

  Minimum eigenvalue in the overlap matrix is 1.9974145004E-05.
  Reciprocal condition number of the overlap matrix is 1.2747465567E-06.
    Using symmetric orthogonalization.

  ==> Pre-Iterations <==

  SCF Guess: Superposition of Atomic Densities via on-the-fly atomic UHF (no occupation information).

   -------------------------
    Irrep   Nso     Nmo    
   -------------------------
     A        602     602 
   -------------------------
    Total     602     602
   -------------------------

  ==> Iterations <==

                           Total Energy        Delta E     RMS |[F,P]|

   @DF-RHF iter SAD:   -75.46669248533397   -7.54667e+01   0.00000e+00 
   @DF-RHF iter   1:   -75.97361652029629   -5.06924e-01   7.79960e-04 ADIIS/DIIS
   @DF-RHF iter   2:   -76.02557004907793   -5.19535e-02   5.23986e-04 ADIIS/DIIS
   @DF-RHF iter   3:   -76.05606330345098   -3.04933e-02   3.51860e-05 DIIS
   @DF-RHF iter   4:   -76.05645745507556   -3.94152e-04   8.61519e-06 DIIS
   @DF-RHF iter   5:   -76.05648293365918   -2.54786e-05   1.99102e-06 DIIS
   @DF-RHF iter   6:   -76.05648518696449   -2.25331e-06   4.65229e-07 DIIS
   @DF-RHF iter   7:   -76.05648532323563   -1.36271e-07   9.23043e-08 DIIS
   @DF-RHF iter   8:   -76.05648532798065   -4.74502e-09   1.44510e-08 DIIS
   @DF-RHF iter   9:   -76.05648532807152   -9.08642e-11   3.46484e-09 DIIS
  Energy and wave function converged.


  ==> Post-Iterations <==

    Orbital Energies [Eh]
    ---------------------

    Doubly Occupied:                                                      

       1A    -20.559722     2A     -1.344247     3A     -0.743835  
       4A     -0.557219     5A     -0.505897  

    Virtual:                                                              

       6A      0.007303     7A      0.016002     8A      0.016171  
       9A      0.017951    10A      0.036368    11A      0.049478  
      12A      0.050609    13A      0.052071    14A      0.054059  
      15A      0.055782    16A      0.057973    17A      0.059765  
      18A      0.064284    19A      0.077998    20A      0.079863  
      21A      0.080861    22A      0.082084    23A      0.086318  
      24A      0.089589    25A      0.093374    26A      0.102681  
      27A      0.106696    28A      0.111611    29A      0.115665  
      30A      0.121190    31A      0.132438    32A      0.142416  
      33A      0.150169    34A      0.161117    35A      0.163526  
      36A      0.171297    37A      0.174300    38A      0.175968  
      39A      0.177178    40A      0.179147    41A      0.194014  
      42A      0.197830    43A      0.200621    44A      0.204019  
      45A      0.208012    46A      0.216002    47A      0.221474  
      48A      0.226725    49A      0.231112    50A      0.234246  
      51A      0.244250    52A      0.253249    53A      0.259083  
      54A      0.261096    55A      0.263916    56A      0.265479  
      57A      0.272619    58A      0.282910    59A      0.296555  
      60A      0.306756    61A      0.317122    62A      0.317912  
      63A      0.328188    64A      0.331342    65A      0.337626  
      66A      0.341916    67A      0.347151    68A      0.349135  
      69A      0.354043    70A      0.362543    71A      0.371776  
      72A      0.377750    73A      0.384451    74A      0.385761  
      75A      0.394231    76A      0.399123    77A      0.404999  
      78A      0.412435    79A      0.415316    80A      0.420244  
      81A      0.425061    82A      0.432511    83A      0.435666  
      84A      0.440405    85A      0.444288    86A      0.446058  
      87A      0.449189    88A      0.453598    89A      0.458707  
      90A      0.465151    91A      0.468737    92A      0.474024  
      93A      0.478911    94A      0.479718    95A      0.485308  
      96A      0.486765    97A      0.491192    98A      0.493697  
      99A      0.497340   100A      0.513579   101A      0.517374  
     102A      0.522067   103A      0.525339   104A      0.531759  
     105A      0.536396   106A      0.545491   107A      0.548238  
     108A      0.553854   109A      0.555150   110A      0.571934  
     111A      0.577136   112A      0.579183   113A      0.590415  
     114A      0.600297   115A      0.604227   116A      0.608064  
     117A      0.619295   118A      0.634569   119A      0.651163  
     120A      0.683333   121A      0.687738   122A      0.714499  
     123A      0.719677   124A      0.728253   125A      0.744530  
     126A      0.768019   127A      0.769996   128A      0.775088  
     129A      0.777058   130A      0.778323   131A      0.789540  
     132A      0.798718   133A      0.807806   134A      0.817889  
     135A      0.823798   136A      0.826109   137A      0.831084  
     138A      0.843231   139A      0.853107   140A      0.856259  
     141A      0.858899   142A      0.866554   143A      0.871638  
     144A      0.875463   145A      0.880742   146A      0.884013  
     147A      0.894980   148A      0.902921   149A      0.906658  
     150A      0.914449   151A      0.920025   152A      0.930332  
     153A      0.932053   154A      0.938745   155A      0.949501  
     156A      0.957970   157A      0.961528   158A      0.968876  
     159A      0.970661   160A      0.977053   161A      0.981202  
     162A      0.988834   163A      0.992896   164A      0.993859  
     165A      1.009161   166A      1.013773   167A      1.024272  
     168A      1.026043   169A      1.029845   170A      1.038307  
     171A      1.041327   172A      1.047503   173A      1.052933  
     174A      1.061768   175A      1.062853   176A      1.064271  
     177A      1.074988   178A      1.078788   179A      1.083580  
     180A      1.091211   181A      1.099007   182A      1.105844  
     183A      1.113707   184A      1.115451   185A      1.123870  
     186A      1.128633   187A      1.133805   188A      1.143142  
     189A      1.151177   190A      1.153084   191A      1.167535  
     192A      1.170775   193A      1.174369   194A      1.187734  
     195A      1.192222   196A      1.204075   197A      1.208185  
     198A      1.210426   199A      1.213929   200A      1.228440  
     201A      1.244599   202A      1.248573   203A      1.258610  
     204A      1.266090   205A      1.277058   206A      1.280664  
     207A      1.283564   208A      1.293672   209A      1.300223  
     210A      1.305866   211A      1.315115   212A      1.327009  
     213A      1.333367   214A      1.343414   215A      1.350112  
     216A      1.357597   217A      1.360133   218A      1.370382  
     219A      1.380818   220A      1.385322   221A      1.401522  
     222A      1.407276   223A      1.408679   224A      1.422599  
     225A      1.426059   226A      1.436004   227A      1.456769  
     228A      1.461932   229A      1.469528   230A      1.480764  
     231A      1.491773   232A      1.492215   233A      1.500786  
     234A      1.510348   235A      1.515024   236A      1.524332  
     237A      1.533399   238A      1.548162   239A      1.554951  
     240A      1.561418   241A      1.577358   242A      1.584400  
     243A      1.597095   244A      1.614436   245A      1.620713  
     246A      1.632234   247A      1.641164   248A      1.643141  
     249A      1.668766   250A      1.679044   251A      1.696738  
     252A      1.698358   253A      1.712570   254A      1.719266  
     255A      1.758883   256A      1.770976   257A      1.797140  
     258A      1.803621   259A      1.821712   260A      1.837473  
     261A      1.842727   262A      1.858046   263A      1.858078  
     264A      1.877027   265A      1.878131   266A      1.890414  
     267A      1.895731   268A      1.903755   269A      1.912257  
     270A      1.917185   271A      1.930136   272A      1.937237  
     273A      1.946023   274A      1.956796   275A      1.967000  
     276A      1.979644   277A      1.985535   278A      1.993500  
     279A      2.013928   280A      2.022377   281A      2.032238  
     282A      2.041962   283A      2.047481   284A      2.062468  
     285A      2.077120   286A      2.091754   287A      2.113587  
     288A      2.124109   289A      2.132839   290A      2.154751  
     291A      2.160493   292A      2.165064   293A      2.173045  
     294A      2.209720   295A      2.253208   296A      2.328830  
     297A      2.436599   298A      2.461934   299A      2.473459  
     300A      2.496131   301A      2.502407   302A      2.517703  
     303A      2.525920   304A      2.554806   305A      2.562284  
     306A      2.575490   307A      2.588671   308A      2.602116  
     309A      2.603110   310A      2.613129   311A      2.630497  
     312A      2.640345   313A      2.645003   314A      2.654692  
     315A      2.659525   316A      2.683346   317A      2.685405  
     318A      2.687824   319A      2.703309   320A      2.713649  
     321A      2.730177   322A      2.746803   323A      2.759466  
     324A      2.779384   325A      2.785657   326A      2.793252  
     327A      2.813391   328A      2.823522   329A      2.838168  
     330A      2.849513   331A      2.867283   332A      2.883202  
     333A      2.891024   334A      2.901892   335A      2.912800  
     336A      2.927562   337A      2.940181   338A      2.951973  
     339A      2.968314   340A      2.979759   341A      2.984484  
     342A      2.999549   343A      3.012960   344A      3.037913  
     345A      3.046658   346A      3.059857   347A      3.066817  
     348A      3.083849   349A      3.092119   350A      3.103759  
     351A      3.134927   352A      3.177498   353A      3.189218  
     354A      3.231869   355A      3.243452   356A      3.260264  
     357A      3.272900   358A      3.292294   359A      3.300308  
     360A      3.309677   361A      3.327159   362A      3.344250  
     363A      3.359470   364A      3.359976   365A      3.371777  
     366A      3.384838   367A      3.392423   368A      3.400857  
     369A      3.406798   370A      3.417828   371A      3.437293  
     372A      3.449479   373A      3.461348   374A      3.483968  
     375A      3.504733   376A      3.510953   377A      3.538791  
     378A      3.548322   379A      3.624607   380A      3.640811  
     381A      3.673273   382A      3.725490   383A      3.739223  
     384A      3.758099   385A      3.768480   386A      3.789599  
     387A      3.823313   388A      3.840737   389A      3.954022  
     390A      4.067755   391A      4.206655   392A      4.355782  
     393A      4.392331   394A      4.416330   395A      4.451984  
     396A      4.460111   397A      4.464441   398A      4.484003  
     399A      4.502581   400A      4.515581   401A      4.542707  
     402A      4.556472   403A      4.578758   404A      4.582963  
     405A      4.598901   406A      4.608210   407A      4.622722  
     408A      4.625109   409A      4.641169   410A      4.644131  
     411A      4.661257   412A      4.681846   413A      4.695382  
     414A      4.706021   415A      4.718662   416A      4.724045  
     417A      4.744829   418A      4.755463   419A      4.767654  
     420A      4.782559   421A      4.787707   422A      4.792741  
     423A      4.810093   424A      4.819117   425A      4.824546  
     426A      4.851641   427A      4.870067   428A      4.879561  
     429A      4.897378   430A      4.942261   431A      4.971011  
     432A      5.013436   433A      5.018916   434A      5.030269  
     435A      5.042168   436A      5.055850   437A      5.065005  
     438A      5.080851   439A      5.086799   440A      5.104524  
     441A      5.117233   442A      5.132713   443A      5.148365  
     444A      5.170307   445A      5.198268   446A      5.225420  
     447A      5.240715   448A      5.261300   449A      5.272702  
     450A      5.288607   451A      5.296070   452A      5.346572  
     453A      5.367449   454A      5.422963   455A      5.522244  
     456A      5.542901   457A      5.547350   458A      5.559323  
     459A      5.598288   460A      5.619089   461A      5.625254  
     462A      5.651411   463A      5.654704   464A      5.664211  
     465A      5.684388   466A      5.716110   467A      5.735105  
     468A      5.751154   469A      5.804192   470A      5.828036  
     471A      5.868152   472A      5.890043   473A      5.927511  
     474A      5.949949   475A      5.972964   476A      6.003257  
     477A      6.022676   478A      6.118961   479A      6.187757  
     480A      6.257093   481A      6.288658   482A      6.322401  
     483A      6.336390   484A      6.378858   485A      6.392808  
     486A      6.400247   487A      6.449313   488A      6.462972  
     489A      6.593694   490A      6.653751   491A      6.706666  
     492A      6.742288   493A      6.807021   494A      6.844151  
     495A      6.887114   496A      6.910312   497A      6.986140  
     498A      7.047426   499A      7.132806   500A      7.155485  
     501A      7.181714   502A      7.264574   503A      7.274405  
     504A      7.341293   505A      7.370628   506A      7.398978  
     507A      7.451867   508A      7.492381   509A      7.533495  
     510A      7.582166   511A      7.655409   512A      7.739439  
     513A      7.764134   514A      7.768749   515A      7.777112  
     516A      7.834671   517A      7.843869   518A      7.848578  
     519A      7.861726   520A      7.893121   521A      7.926479  
     522A      7.948190   523A      7.996912   524A      8.120085  
     525A      8.124478   526A      8.140874   527A      8.158068  
     528A      8.177234   529A      8.181097   530A      8.199423  
     531A      8.263664   532A      8.275235   533A      8.305643  
     534A      8.314723   535A      8.329059   536A      8.344498  
     537A      8.354739   538A      8.386093   539A      8.472801  
     540A      8.713678   541A      8.779361   542A      8.819249  
     543A      8.829808   544A      8.840603   545A      8.863630  
     546A      8.882040   547A      8.915667   548A      8.946120  
     549A      9.055653   550A      9.108699   551A      9.858700  
     552A      9.919977   553A      9.944332   554A      9.960388  
     555A      9.977414   556A      9.994385   557A     10.015944  
     558A     10.028022   559A     10.033228   560A     10.060666  
     561A     10.063785   562A     10.075904   563A     10.081710  
     564A     10.104863   565A     10.164660   566A     10.220268  
     567A     10.251407   568A     10.261205   569A     10.267376  
     570A     10.304501   571A     11.171355   572A     11.179591  
     573A     11.225594   574A     11.308708   575A     11.485810  
     576A     11.801394   577A     11.875804   578A     11.899085  
     579A     11.922461   580A     12.069310   581A     12.089747  
     582A     12.272981   583A     12.318023   584A     12.333448  
     585A     12.635116   586A     13.557029   587A     13.622363  
     588A     13.661571   589A     13.722549   590A     13.922314  
     591A     13.948324   592A     13.979594   593A     13.985907  
     594A     14.012625   595A     14.064514   596A     16.783140  
     597A     64.822058   598A     65.041501   599A     65.459220  
     600A     65.746204   601A     65.981890   602A     68.070330  

    Final Occupation by Irrep:
              A 
    DOCC [     5 ]
    NA   [     5 ]
    NB   [     5 ]

  @DF-RHF Final Energy:   -76.05648532807152

   => Energetics <=

    Nuclear Repulsion Energy =              9.1776382261650618
    One-Electron Energy =                -123.0464045938386590
    Two-Electron Energy =                  37.8122810396020910
    Total Energy =                        -76.0564853280715170

Computation Completed


Properties will be evaluated at   0.000000,   0.000000,   0.000000 [a0]

Properties computed using the SCF density matrix


 Multipole Moments:

 ------------------------------------------------------------------------------------
     Multipole            Electronic (a.u.)      Nuclear  (a.u.)        Total (a.u.)
 ------------------------------------------------------------------------------------

 L = 1.  Multiply by 2.5417464519 to convert [e a0] to [Debye]
 Dipole X            :        -34.3676615           34.6299361            0.2622746
 Dipole Y            :          9.6384459           -9.0707213            0.5677246
 Dipole Z            :         28.0416874          -28.3008238           -0.2591365
 Magnitude           :                                                    0.6769423

 ------------------------------------------------------------------------------------

*** tstop() called on ddmfs1 at Mon Jan 22 14:07:15 2024
Module time:
	user time   =     133.23 seconds =       2.22 minutes
	system time =       7.27 seconds =       0.12 minutes
	total time  =         10 seconds =       0.17 minutes
Total time:
	user time   =     133.23 seconds =       2.22 minutes
	system time =       7.27 seconds =       0.12 minutes
	total time  =         10 seconds =       0.17 minutes

*** tstart() called on ddmfs1
*** at Mon Jan 22 14:07:15 2024


  //>>>>>>>>>>>>>>>>>>>>>>>>>>>>>>>>>>>//
  //               DFMP2               //
  //<<<<<<<<<<<<<<<<<<<<<<<<<<<<<<<<<<<//

   => Loading Basis Set <=

    Name: (AUG-CC-PVTZ AUX)
    Role: RIFIT
    Keyword: DF_BASIS_MP2
    atoms 1                                   entry NA         line   610 file /ddmfs1b/softs/psi4conda/share/psi4/basis/def2-qzvpp-ri.gbs 
    atoms 2, 5, 8, 11, 14, 17                 entry O          line   264 file /ddmfs1b/softs/psi4conda/share/psi4/basis/aug-cc-pvtz-ri.gbs 
    atoms 3-4, 6-7, 9-10, 12-13, 15-16, 18-19 entry H          line    30 file /ddmfs1b/softs/psi4conda/share/psi4/basis/aug-cc-pvtz-ri.gbs 

	 --------------------------------------------------------
	                          DF-MP2                         
	      2nd-Order Density-Fitted Moller-Plesset Theory     
	              RMP2 Wavefunction,  20 Threads             
	                                                         
	        Rob Parrish, Justin Turney, Andy Simmonett,      
	           Ed Hohenstein, and C. David Sherrill          
	 --------------------------------------------------------

   => Auxiliary Basis Set <=

  Basis Set: (AUG-CC-PVTZ AUX)
    Blend: AUG-CC-PVTZ-RI + DEF2-QZVPP-RI
    Number of shells: 378
    Number of basis functions: 1354
    Number of Cartesian functions: 1690
    Spherical Harmonics?: true
    Max angular momentum: 4

	 --------------------------------------------------------
	                 NBF =   602, NAUX =  1354
	 --------------------------------------------------------
	   CLASS    FOCC     OCC    AOCC    AVIR     VIR    FVIR
	   PAIRS       0       5       5     597     597       0
	 --------------------------------------------------------

	-----------------------------------------------------------
	 ==================> DF-MP2 Energies <==================== 
	-----------------------------------------------------------
	 Reference Energy          =     -76.0564853280715170 [Eh]
	 Singles Energy            =      -0.0000000000000000 [Eh]
	 Same-Spin Energy          =      -0.0683903016077304 [Eh]
	 Opposite-Spin Energy      =      -0.2156140782417105 [Eh]
	 Correlation Energy        =      -0.2840043798494409 [Eh]
	 Total Energy              =     -76.3404897079209519 [Eh]
	-----------------------------------------------------------
	 ================> DF-SCS-MP2 Energies <================== 
	-----------------------------------------------------------
	 SCS Same-Spin Scale       =       0.3333333333333333 [-]
	 SCS Opposite-Spin Scale   =       1.2000000000000000 [-]
	 SCS Same-Spin Energy      =      -0.0227967672025768 [Eh]
	 SCS Opposite-Spin Energy  =      -0.2587368938900526 [Eh]
	 SCS Correlation Energy    =      -0.2815336610926294 [Eh]
	 SCS Total Energy          =     -76.3380189891641407 [Eh]
	-----------------------------------------------------------


*** tstop() called on ddmfs1 at Mon Jan 22 14:07:23 2024
Module time:
	user time   =      37.69 seconds =       0.63 minutes
	system time =       2.47 seconds =       0.04 minutes
	total time  =          8 seconds =       0.13 minutes
Total time:
	user time   =     170.94 seconds =       2.85 minutes
	system time =       9.74 seconds =       0.16 minutes
	total time  =         18 seconds =       0.30 minutes

    Psi4 stopped on: Monday, 22 January 2024 02:07PM
    Psi4 wall time for execution: 0:00:17.97

*** Psi4 exiting successfully. Buy a developer a beer!
