
    -----------------------------------------------------------------------
          Psi4: An Open-Source Ab Initio Electronic Structure Package
                               Psi4 1.8.2 release

                         Git: Rev {} zzzzzzz 


    D. G. A. Smith, L. A. Burns, A. C. Simmonett, R. M. Parrish,
    M. C. Schieber, R. Galvelis, P. Kraus, H. Kruse, R. Di Remigio,
    A. Alenaizan, A. M. James, S. Lehtola, J. P. Misiewicz, M. Scheurer,
    R. A. Shaw, J. B. Schriber, Y. Xie, Z. L. Glick, D. A. Sirianni,
    J. S. O'Brien, J. M. Waldrop, A. Kumar, E. G. Hohenstein,
    B. P. Pritchard, B. R. Brooks, H. F. Schaefer III, A. Yu. Sokolov,
    K. Patkowski, A. E. DePrince III, U. Bozkaya, R. A. King,
    F. A. Evangelista, J. M. Turney, T. D. Crawford, C. D. Sherrill,
    J. Chem. Phys. 152(18) 184108 (2020). https://doi.org/10.1063/5.0006002

                            Additional Code Authors
    E. T. Seidl, C. L. Janssen, E. F. Valeev, M. L. Leininger,
    J. F. Gonthier, R. M. Richard, H. R. McAlexander, M. Saitow, X. Wang,
    P. Verma, M. H. Lechner, A. Jiang, S. Behnle, A. G. Heide,
    M. F. Herbst, and D. L. Poole

             Previous Authors, Complete List of Code Contributors,
                       and Citations for Specific Modules
    https://github.com/psi4/psi4/blob/master/codemeta.json
    https://github.com/psi4/psi4/graphs/contributors
    http://psicode.org/psi4manual/master/introduction.html#citing-psifour

    -----------------------------------------------------------------------


    Psi4 started on: Monday, 22 January 2024 03:47PM

    Process ID: 74278
    Host:       ddmfs1
    PSIDATADIR: /ddmfs1b/softs/psi4conda/share/psi4
    Memory:     500.0 MiB
    Threads:    20
    
  ==> Input File <==

--------------------------------------------------------------------------
MEMORY 60 GB

molecule dimer {
0 1
Gh(Na)     0.000000     0.000000     0.000000
O          0.112621    -1.386806    -1.972606
H          0.672583    -1.550070    -2.775900
H         -0.603129    -2.048594    -1.903750
Gh(O)      1.852574    -1.386479     0.816134
Gh(H)      2.242350    -2.087796     0.203988
Gh(H)      1.341615    -1.750473     1.542276
Gh(O)     -2.022339     1.221625    -0.636373
Gh(H)     -2.927026     0.757137    -0.600158
Gh(H)     -1.792091     1.337729    -1.566912
Gh(O)     -1.416620    -1.275424     1.492934
Gh(H)     -2.160042    -1.185167     2.079025
Gh(H)     -0.840556    -1.926141     1.953126
Gh(O)      2.144001     1.442874    -0.647730
Gh(H)      2.575039     1.174574    -1.498240
Gh(H)      2.815913     1.315215     0.053847
Gh(O)      0.138862     1.360945     1.935363
Gh(H)      0.721431     2.052917     2.221916
Gh(H)     -0.531806     1.357180     2.629171

units ang
no_reorient
no_com
symmetry c1
}

set {
basis        aug-cc-pVTZ
scf_type     df
}

energy("mp2")
--------------------------------------------------------------------------

  Memory set to  55.879 GiB by Python driver.

Scratch directory: /ddmfs1a/scratch/
   => Libint2 <=

    Primary   basis highest AM E, G, H:  5, 4, 3
    Auxiliary basis highest AM E, G, H:  6, 5, 4
    Onebody   basis highest AM E, G, H:  6, 5, 4
    Solid Harmonics ordering:            gaussian

*** tstart() called on ddmfs1
*** at Mon Jan 22 15:47:46 2024

   => Loading Basis Set <=

    Name: AUG-CC-PVTZ
    Role: ORBITAL
    Keyword: BASIS
    atoms 1                                   entry NA         line   469 file /ddmfs1b/softs/psi4conda/share/psi4/basis/aug-cc-pvtz.gbs 
    atoms 2, 5, 8, 11, 14, 17                 entry O          line   331 file /ddmfs1b/softs/psi4conda/share/psi4/basis/aug-cc-pvtz.gbs 
    atoms 3-4, 6-7, 9-10, 12-13, 15-16, 18-19 entry H          line    40 file /ddmfs1b/softs/psi4conda/share/psi4/basis/aug-cc-pvtz.gbs 


         ---------------------------------------------------------
                                   SCF
               by Justin Turney, Rob Parrish, Andy Simmonett
                          and Daniel G. A. Smith
                              RHF Reference
                       20 Threads,  57220 MiB Core
         ---------------------------------------------------------

  ==> Geometry <==

    Molecular point group: c1
    Full point group: C1

    Geometry (in Angstrom), charge = 0, multiplicity = 1:

       Center              X                  Y                   Z               Mass       
    ------------   -----------------  -----------------  -----------------  -----------------
      Gh(NA)          0.000000000000     0.000000000000     0.000000000000    22.989769282000
         O            0.112621000000    -1.386806000000    -1.972606000000    15.994914619570
         H            0.672583000000    -1.550070000000    -2.775900000000     1.007825032230
         H           -0.603129000000    -2.048594000000    -1.903750000000     1.007825032230
      Gh(O)           1.852574000000    -1.386479000000     0.816134000000    15.994914619570
      Gh(H)           2.242350000000    -2.087796000000     0.203988000000     1.007825032230
      Gh(H)           1.341615000000    -1.750473000000     1.542276000000     1.007825032230
      Gh(O)          -2.022339000000     1.221625000000    -0.636373000000    15.994914619570
      Gh(H)          -2.927026000000     0.757137000000    -0.600158000000     1.007825032230
      Gh(H)          -1.792091000000     1.337729000000    -1.566912000000     1.007825032230
      Gh(O)          -1.416620000000    -1.275424000000     1.492934000000    15.994914619570
      Gh(H)          -2.160042000000    -1.185167000000     2.079025000000     1.007825032230
      Gh(H)          -0.840556000000    -1.926141000000     1.953126000000     1.007825032230
      Gh(O)           2.144001000000     1.442874000000    -0.647730000000    15.994914619570
      Gh(H)           2.575039000000     1.174574000000    -1.498240000000     1.007825032230
      Gh(H)           2.815913000000     1.315215000000     0.053847000000     1.007825032230
      Gh(O)           0.138862000000     1.360945000000     1.935363000000    15.994914619570
      Gh(H)           0.721431000000     2.052917000000     2.221916000000     1.007825032230
      Gh(H)          -0.531806000000     1.357180000000     2.629171000000     1.007825032230

  Running in c1 symmetry.

  Rotational constants: A =      0.03997  B =      0.03596  C =      0.03404 [cm^-1]
  Rotational constants: A =   1198.17126  B =   1078.18533  C =   1020.41910 [MHz]
  Nuclear repulsion =    8.922360383056668

  Charge       = 0
  Multiplicity = 1
  Electrons    = 10
  Nalpha       = 5
  Nbeta        = 5

  ==> Algorithm <==

  SCF Algorithm Type is DF.
  DIIS enabled.
  MOM disabled.
  Fractional occupation disabled.
  Guess Type is SAD.
  Energy threshold   = 1.00e-08
  Density threshold  = 1.00e-08
  Integral threshold = 1.00e-12

  ==> Primary Basis <==

  Basis Set: AUG-CC-PVTZ
    Blend: AUG-CC-PVTZ
    Number of shells: 208
    Number of basis functions: 602
    Number of Cartesian functions: 689
    Spherical Harmonics?: true
    Max angular momentum: 3

   => Loading Basis Set <=

    Name: (AUG-CC-PVTZ AUX)
    Role: JKFIT
    Keyword: DF_BASIS_SCF
    atoms 1                                   entry NA         line   498 file /ddmfs1b/softs/psi4conda/share/psi4/basis/def2-universal-jkfit.gbs 
    atoms 2, 5, 8, 11, 14, 17                 entry O          line   286 file /ddmfs1b/softs/psi4conda/share/psi4/basis/aug-cc-pvtz-jkfit.gbs 
    atoms 3-4, 6-7, 9-10, 12-13, 15-16, 18-19 entry H          line    70 file /ddmfs1b/softs/psi4conda/share/psi4/basis/aug-cc-pvtz-jkfit.gbs 

  ==> Integral Setup <==

  DFHelper Memory: AOs need 3.274 GiB; user supplied 41.910 GiB. 
  Using in-core AOs.

  ==> MemDFJK: Density-Fitted J/K Matrices <==

    J tasked:                   Yes
    K tasked:                   Yes
    wK tasked:                   No
    OpenMP threads:              20
    Memory [MiB]:             42915
    Algorithm:                 Core
    Schwarz Cutoff:           1E-12
    Mask sparsity (%):       9.8708
    Fitting Condition:        1E-10

   => Auxiliary Basis Set <=

  Basis Set: (AUG-CC-PVTZ AUX)
    Blend: AUG-CC-PVTZ-JKFIT + DEF2-UNIVERSAL-JKFIT
    Number of shells: 382
    Number of basis functions: 1288
    Number of Cartesian functions: 1583
    Spherical Harmonics?: true
    Max angular momentum: 4

  Minimum eigenvalue in the overlap matrix is 2.0121474104E-05.
  Reciprocal condition number of the overlap matrix is 1.3384698143E-06.
    Using symmetric orthogonalization.

  ==> Pre-Iterations <==

  SCF Guess: Superposition of Atomic Densities via on-the-fly atomic UHF (no occupation information).

   -------------------------
    Irrep   Nso     Nmo    
   -------------------------
     A        602     602 
   -------------------------
    Total     602     602
   -------------------------

  ==> Iterations <==

                           Total Energy        Delta E     RMS |[F,P]|

   @DF-RHF iter SAD:   -75.43949765645890   -7.54395e+01   0.00000e+00 
   @DF-RHF iter   1:   -75.97152040664758   -5.32023e-01   7.75169e-04 ADIIS/DIIS
   @DF-RHF iter   2:   -76.02297569671981   -5.14553e-02   5.40517e-04 ADIIS/DIIS
   @DF-RHF iter   3:   -76.05595347021271   -3.29778e-02   3.68818e-05 DIIS
   @DF-RHF iter   4:   -76.05638737593458   -4.33906e-04   9.38825e-06 DIIS
   @DF-RHF iter   5:   -76.05641819095641   -3.08150e-05   2.17984e-06 DIIS
   @DF-RHF iter   6:   -76.05642086099071   -2.67003e-06   4.94205e-07 DIIS
   @DF-RHF iter   7:   -76.05642101163295   -1.50642e-07   9.38169e-08 DIIS
   @DF-RHF iter   8:   -76.05642101637267   -4.73972e-09   1.60369e-08 DIIS
   @DF-RHF iter   9:   -76.05642101648660   -1.13928e-10   4.20582e-09 DIIS
  Energy and wave function converged.


  ==> Post-Iterations <==

    Orbital Energies [Eh]
    ---------------------

    Doubly Occupied:                                                      

       1A    -20.568619     2A     -1.335327     3A     -0.714178  
       4A     -0.567072     5A     -0.506000  

    Virtual:                                                              

       6A      0.007915     7A      0.016139     8A      0.017010  
       9A      0.018113    10A      0.039270    11A      0.049564  
      12A      0.052984    13A      0.053235    14A      0.055379  
      15A      0.057694    16A      0.058121    17A      0.059412  
      18A      0.062903    19A      0.075813    20A      0.077582  
      21A      0.079057    22A      0.083009    23A      0.088699  
      24A      0.093642    25A      0.096177    26A      0.103049  
      27A      0.106575    28A      0.112556    29A      0.114783  
      30A      0.120406    31A      0.137433    32A      0.138581  
      33A      0.147046    34A      0.154426    35A      0.163229  
      36A      0.166534    37A      0.171847    38A      0.174152  
      39A      0.184966    40A      0.190932    41A      0.196785  
      42A      0.197951    43A      0.201554    44A      0.204648  
      45A      0.205334    46A      0.216264    47A      0.223110  
      48A      0.229222    49A      0.233919    50A      0.239232  
      51A      0.248752    52A      0.257241    53A      0.262527  
      54A      0.264814    55A      0.265408    56A      0.273142  
      57A      0.285908    58A      0.288227    59A      0.295679  
      60A      0.303148    61A      0.314333    62A      0.319144  
      63A      0.321762    64A      0.335715    65A      0.343429  
      66A      0.348027    67A      0.351865    68A      0.356698  
      69A      0.359049    70A      0.364235    71A      0.371622  
      72A      0.376365    73A      0.382702    74A      0.387760  
      75A      0.393075    76A      0.396316    77A      0.400633  
      78A      0.406440    79A      0.414986    80A      0.417981  
      81A      0.425891    82A      0.430746    83A      0.435277  
      84A      0.440239    85A      0.442140    86A      0.444439  
      87A      0.449188    88A      0.454225    89A      0.459716  
      90A      0.464738    91A      0.467496    92A      0.471751  
      93A      0.477071    94A      0.479702    95A      0.482490  
      96A      0.486633    97A      0.491292    98A      0.494968  
      99A      0.499143   100A      0.501956   101A      0.506489  
     102A      0.515860   103A      0.519255   104A      0.525847  
     105A      0.534282   106A      0.536350   107A      0.538564  
     108A      0.543009   109A      0.549671   110A      0.559919  
     111A      0.565032   112A      0.578903   113A      0.584277  
     114A      0.591667   115A      0.603098   116A      0.624769  
     117A      0.628025   118A      0.641691   119A      0.650316  
     120A      0.666666   121A      0.705286   122A      0.716129  
     123A      0.721320   124A      0.732091   125A      0.744879  
     126A      0.751552   127A      0.758479   128A      0.761861  
     129A      0.775049   130A      0.778405   131A      0.793647  
     132A      0.794811   133A      0.804935   134A      0.814078  
     135A      0.815666   136A      0.827190   137A      0.834118  
     138A      0.840521   139A      0.848245   140A      0.853038  
     141A      0.857418   142A      0.862663   143A      0.869259  
     144A      0.876033   145A      0.882668   146A      0.886206  
     147A      0.894798   148A      0.896362   149A      0.907382  
     150A      0.908657   151A      0.916760   152A      0.927070  
     153A      0.929964   154A      0.939004   155A      0.945946  
     156A      0.952766   157A      0.958020   158A      0.964134  
     159A      0.967214   160A      0.975519   161A      0.980888  
     162A      0.991363   163A      0.995148   164A      1.000413  
     165A      1.004453   166A      1.013573   167A      1.016941  
     168A      1.020512   169A      1.030059   170A      1.032749  
     171A      1.037437   172A      1.043834   173A      1.046764  
     174A      1.054422   175A      1.059109   176A      1.067208  
     177A      1.071835   178A      1.077838   179A      1.078967  
     180A      1.087464   181A      1.088073   182A      1.096224  
     183A      1.106186   184A      1.109413   185A      1.115380  
     186A      1.121918   187A      1.129889   188A      1.138342  
     189A      1.142022   190A      1.149267   191A      1.158648  
     192A      1.167050   193A      1.172602   194A      1.174146  
     195A      1.182790   196A      1.187630   197A      1.196415  
     198A      1.202217   199A      1.210526   200A      1.218254  
     201A      1.223806   202A      1.234588   203A      1.237944  
     204A      1.246501   205A      1.254364   206A      1.269793  
     207A      1.272142   208A      1.275972   209A      1.284776  
     210A      1.287749   211A      1.302610   212A      1.304982  
     213A      1.309450   214A      1.315495   215A      1.321245  
     216A      1.335947   217A      1.346930   218A      1.356670  
     219A      1.364924   220A      1.370734   221A      1.379853  
     222A      1.383633   223A      1.390656   224A      1.407303  
     225A      1.413594   226A      1.427345   227A      1.430809  
     228A      1.443388   229A      1.446858   230A      1.452787  
     231A      1.460713   232A      1.465224   233A      1.475689  
     234A      1.486577   235A      1.494429   236A      1.502048  
     237A      1.510253   238A      1.530831   239A      1.542902  
     240A      1.562091   241A      1.566569   242A      1.572069  
     243A      1.590339   244A      1.599236   245A      1.616196  
     246A      1.621900   247A      1.641828   248A      1.648156  
     249A      1.671625   250A      1.679235   251A      1.689926  
     252A      1.693913   253A      1.697179   254A      1.719256  
     255A      1.725020   256A      1.751974   257A      1.769680  
     258A      1.778058   259A      1.786430   260A      1.794524  
     261A      1.820848   262A      1.832760   263A      1.838583  
     264A      1.857545   265A      1.867609   266A      1.879407  
     267A      1.887162   268A      1.893528   269A      1.918936  
     270A      1.927993   271A      1.932581   272A      1.943270  
     273A      1.953324   274A      1.961147   275A      1.968299  
     276A      1.975684   277A      1.979669   278A      1.987153  
     279A      2.012424   280A      2.022340   281A      2.029719  
     282A      2.040848   283A      2.044048   284A      2.058862  
     285A      2.060944   286A      2.073293   287A      2.079755  
     288A      2.080239   289A      2.111783   290A      2.116695  
     291A      2.128449   292A      2.138760   293A      2.157284  
     294A      2.187180   295A      2.232932   296A      2.286691  
     297A      2.380646   298A      2.402748   299A      2.475509  
     300A      2.481518   301A      2.504100   302A      2.513830  
     303A      2.527802   304A      2.541513   305A      2.551995  
     306A      2.554739   307A      2.572126   308A      2.579539  
     309A      2.587544   310A      2.590144   311A      2.615569  
     312A      2.631409   313A      2.635531   314A      2.650464  
     315A      2.658589   316A      2.662172   317A      2.666066  
     318A      2.672281   319A      2.699847   320A      2.707249  
     321A      2.715709   322A      2.742467   323A      2.748257  
     324A      2.756212   325A      2.772001   326A      2.778745  
     327A      2.790106   328A      2.800775   329A      2.811115  
     330A      2.821482   331A      2.824460   332A      2.836916  
     333A      2.858506   334A      2.878098   335A      2.881211  
     336A      2.902998   337A      2.919986   338A      2.927858  
     339A      2.937776   340A      2.946204   341A      2.967438  
     342A      2.988403   343A      3.002913   344A      3.012612  
     345A      3.037926   346A      3.049937   347A      3.058725  
     348A      3.079594   349A      3.119592   350A      3.128486  
     351A      3.139400   352A      3.156933   353A      3.218000  
     354A      3.222758   355A      3.230058   356A      3.245348  
     357A      3.251752   358A      3.266207   359A      3.274165  
     360A      3.287382   361A      3.298400   362A      3.312949  
     363A      3.323271   364A      3.329473   365A      3.344816  
     366A      3.367004   367A      3.378391   368A      3.391026  
     369A      3.407535   370A      3.419235   371A      3.427373  
     372A      3.435821   373A      3.448715   374A      3.461619  
     375A      3.485637   376A      3.516933   377A      3.530183  
     378A      3.566161   379A      3.634612   380A      3.660427  
     381A      3.709054   382A      3.720744   383A      3.733261  
     384A      3.754604   385A      3.765648   386A      3.784073  
     387A      3.800487   388A      3.818048   389A      3.865008  
     390A      3.940529   391A      4.080875   392A      4.259009  
     393A      4.315792   394A      4.339949   395A      4.407519  
     396A      4.415165   397A      4.426415   398A      4.444308  
     399A      4.448077   400A      4.465367   401A      4.490471  
     402A      4.510939   403A      4.535548   404A      4.544719  
     405A      4.560144   406A      4.569749   407A      4.589960  
     408A      4.592176   409A      4.598144   410A      4.615302  
     411A      4.633971   412A      4.652295   413A      4.667924  
     414A      4.670675   415A      4.679168   416A      4.696734  
     417A      4.714587   418A      4.725064   419A      4.737121  
     420A      4.745081   421A      4.751174   422A      4.760619  
     423A      4.783151   424A      4.797740   425A      4.812898  
     426A      4.825161   427A      4.839815   428A      4.856963  
     429A      4.863938   430A      4.882744   431A      4.888712  
     432A      4.984043   433A      5.007806   434A      5.019082  
     435A      5.022599   436A      5.040295   437A      5.050422  
     438A      5.060507   439A      5.089178   440A      5.101986  
     441A      5.110151   442A      5.111873   443A      5.121419  
     444A      5.141209   445A      5.169504   446A      5.176622  
     447A      5.195086   448A      5.227072   449A      5.232092  
     450A      5.233803   451A      5.286292   452A      5.306698  
     453A      5.318071   454A      5.334030   455A      5.378907  
     456A      5.434947   457A      5.458606   458A      5.461605  
     459A      5.506395   460A      5.515075   461A      5.550267  
     462A      5.572640   463A      5.582274   464A      5.612061  
     465A      5.631753   466A      5.652881   467A      5.680489  
     468A      5.688025   469A      5.729790   470A      5.766782  
     471A      5.776775   472A      5.784609   473A      5.797030  
     474A      5.844338   475A      5.860541   476A      5.913090  
     477A      5.991820   478A      6.103676   479A      6.187640  
     480A      6.219911   481A      6.244050   482A      6.285217  
     483A      6.291612   484A      6.319655   485A      6.327167  
     486A      6.351210   487A      6.414672   488A      6.446966  
     489A      6.496721   490A      6.651413   491A      6.660993  
     492A      6.683224   493A      6.704763   494A      6.777237  
     495A      6.808649   496A      6.865875   497A      6.921590  
     498A      7.007287   499A      7.011294   500A      7.102913  
     501A      7.125561   502A      7.153274   503A      7.189878  
     504A      7.250566   505A      7.288759   506A      7.367513  
     507A      7.385837   508A      7.392065   509A      7.428778  
     510A      7.439905   511A      7.658606   512A      7.712052  
     513A      7.737444   514A      7.757178   515A      7.775610  
     516A      7.781166   517A      7.832052   518A      7.843710  
     519A      7.859503   520A      7.866573   521A      7.901164  
     522A      7.957129   523A      7.971520   524A      8.030874  
     525A      8.100008   526A      8.121093   527A      8.125311  
     528A      8.132234   529A      8.172775   530A      8.200973  
     531A      8.202437   532A      8.229929   533A      8.249453  
     534A      8.291014   535A      8.292286   536A      8.306546  
     537A      8.319930   538A      8.339819   539A      8.353084  
     540A      8.643368   541A      8.655405   542A      8.680065  
     543A      8.707620   544A      8.732620   545A      8.753138  
     546A      8.798214   547A      8.844003   548A      8.857875  
     549A      8.895541   550A      8.975787   551A      9.852363  
     552A      9.938803   553A      9.947940   554A      9.957716  
     555A      9.986307   556A     10.003523   557A     10.009000  
     558A     10.019710   559A     10.028346   560A     10.041253  
     561A     10.065538   562A     10.067955   563A     10.073490  
     564A     10.083615   565A     10.127852   566A     10.191055  
     567A     10.221207   568A     10.226957   569A     10.290068  
     570A     10.313277   571A     10.975488   572A     10.979779  
     573A     11.080258   574A     11.220887   575A     11.319072  
     576A     11.782614   577A     11.814261   578A     11.820781  
     579A     11.866146   580A     11.947911   581A     11.959011  
     582A     12.001474   583A     12.152167   584A     12.270287  
     585A     12.316695   586A     13.421246   587A     13.461828  
     588A     13.484896   589A     13.623582   590A     13.698064  
     591A     13.911709   592A     13.949336   593A     13.982082  
     594A     14.036996   595A     14.090294   596A     15.543350  
     597A     64.015590   598A     64.111323   599A     64.700517  
     600A     64.887254   601A     65.562539   602A     65.762409  

    Final Occupation by Irrep:
              A 
    DOCC [     5 ]
    NA   [     5 ]
    NB   [     5 ]

  @DF-RHF Final Energy:   -76.05642101648660

   => Energetics <=

    Nuclear Repulsion Energy =              8.9223603830566685
    One-Electron Energy =                -122.5751659247167282
    Two-Electron Energy =                  37.5963845251734625
    Total Energy =                        -76.0564210164865955

Computation Completed


Properties will be evaluated at   0.000000,   0.000000,   0.000000 [a0]

Properties computed using the SCF density matrix


 Multipole Moments:

 ------------------------------------------------------------------------------------
     Multipole            Electronic (a.u.)      Nuclear  (a.u.)        Total (a.u.)
 ------------------------------------------------------------------------------------

 L = 1.  Multiply by 2.5417464519 to convert [e a0] to [Debye]
 Dipole X            :         -1.9393795            1.8338318           -0.1055476
 Dipole Y            :         27.2154769          -27.7659576           -0.5504807
 Dipole Z            :         38.1761938          -38.6647376           -0.4885438
 Magnitude           :                                                    0.7435351

 ------------------------------------------------------------------------------------

*** tstop() called on ddmfs1 at Mon Jan 22 15:47:55 2024
Module time:
	user time   =     133.67 seconds =       2.23 minutes
	system time =       7.47 seconds =       0.12 minutes
	total time  =          9 seconds =       0.15 minutes
Total time:
	user time   =     133.67 seconds =       2.23 minutes
	system time =       7.47 seconds =       0.12 minutes
	total time  =          9 seconds =       0.15 minutes

*** tstart() called on ddmfs1
*** at Mon Jan 22 15:47:55 2024


  //>>>>>>>>>>>>>>>>>>>>>>>>>>>>>>>>>>>//
  //               DFMP2               //
  //<<<<<<<<<<<<<<<<<<<<<<<<<<<<<<<<<<<//

   => Loading Basis Set <=

    Name: (AUG-CC-PVTZ AUX)
    Role: RIFIT
    Keyword: DF_BASIS_MP2
    atoms 1                                   entry NA         line   610 file /ddmfs1b/softs/psi4conda/share/psi4/basis/def2-qzvpp-ri.gbs 
    atoms 2, 5, 8, 11, 14, 17                 entry O          line   264 file /ddmfs1b/softs/psi4conda/share/psi4/basis/aug-cc-pvtz-ri.gbs 
    atoms 3-4, 6-7, 9-10, 12-13, 15-16, 18-19 entry H          line    30 file /ddmfs1b/softs/psi4conda/share/psi4/basis/aug-cc-pvtz-ri.gbs 

	 --------------------------------------------------------
	                          DF-MP2                         
	      2nd-Order Density-Fitted Moller-Plesset Theory     
	              RMP2 Wavefunction,  20 Threads             
	                                                         
	        Rob Parrish, Justin Turney, Andy Simmonett,      
	           Ed Hohenstein, and C. David Sherrill          
	 --------------------------------------------------------

   => Auxiliary Basis Set <=

  Basis Set: (AUG-CC-PVTZ AUX)
    Blend: AUG-CC-PVTZ-RI + DEF2-QZVPP-RI
    Number of shells: 378
    Number of basis functions: 1354
    Number of Cartesian functions: 1690
    Spherical Harmonics?: true
    Max angular momentum: 4

	 --------------------------------------------------------
	                 NBF =   602, NAUX =  1354
	 --------------------------------------------------------
	   CLASS    FOCC     OCC    AOCC    AVIR     VIR    FVIR
	   PAIRS       0       5       5     597     597       0
	 --------------------------------------------------------

	-----------------------------------------------------------
	 ==================> DF-MP2 Energies <==================== 
	-----------------------------------------------------------
	 Reference Energy          =     -76.0564210164865955 [Eh]
	 Singles Energy            =      -0.0000000000000000 [Eh]
	 Same-Spin Energy          =      -0.0688134223738326 [Eh]
	 Opposite-Spin Energy      =      -0.2170613624172408 [Eh]
	 Correlation Energy        =      -0.2858747847910734 [Eh]
	 Total Energy              =     -76.3422958012776718 [Eh]
	-----------------------------------------------------------
	 ================> DF-SCS-MP2 Energies <================== 
	-----------------------------------------------------------
	 SCS Same-Spin Scale       =       0.3333333333333333 [-]
	 SCS Opposite-Spin Scale   =       1.2000000000000000 [-]
	 SCS Same-Spin Energy      =      -0.0229378074579442 [Eh]
	 SCS Opposite-Spin Energy  =      -0.2604736349006890 [Eh]
	 SCS Correlation Energy    =      -0.2834114423586331 [Eh]
	 SCS Total Energy          =     -76.3398324588452226 [Eh]
	-----------------------------------------------------------


*** tstop() called on ddmfs1 at Mon Jan 22 15:48:04 2024
Module time:
	user time   =      37.61 seconds =       0.63 minutes
	system time =       2.64 seconds =       0.04 minutes
	total time  =          9 seconds =       0.15 minutes
Total time:
	user time   =     171.30 seconds =       2.85 minutes
	system time =      10.11 seconds =       0.17 minutes
	total time  =         18 seconds =       0.30 minutes

    Psi4 stopped on: Monday, 22 January 2024 03:48PM
    Psi4 wall time for execution: 0:00:18.08

*** Psi4 exiting successfully. Buy a developer a beer!
