
    -----------------------------------------------------------------------
          Psi4: An Open-Source Ab Initio Electronic Structure Package
                               Psi4 1.8.2 release

                         Git: Rev {} zzzzzzz 


    D. G. A. Smith, L. A. Burns, A. C. Simmonett, R. M. Parrish,
    M. C. Schieber, R. Galvelis, P. Kraus, H. Kruse, R. Di Remigio,
    A. Alenaizan, A. M. James, S. Lehtola, J. P. Misiewicz, M. Scheurer,
    R. A. Shaw, J. B. Schriber, Y. Xie, Z. L. Glick, D. A. Sirianni,
    J. S. O'Brien, J. M. Waldrop, A. Kumar, E. G. Hohenstein,
    B. P. Pritchard, B. R. Brooks, H. F. Schaefer III, A. Yu. Sokolov,
    K. Patkowski, A. E. DePrince III, U. Bozkaya, R. A. King,
    F. A. Evangelista, J. M. Turney, T. D. Crawford, C. D. Sherrill,
    J. Chem. Phys. 152(18) 184108 (2020). https://doi.org/10.1063/5.0006002

                            Additional Code Authors
    E. T. Seidl, C. L. Janssen, E. F. Valeev, M. L. Leininger,
    J. F. Gonthier, R. M. Richard, H. R. McAlexander, M. Saitow, X. Wang,
    P. Verma, M. H. Lechner, A. Jiang, S. Behnle, A. G. Heide,
    M. F. Herbst, and D. L. Poole

             Previous Authors, Complete List of Code Contributors,
                       and Citations for Specific Modules
    https://github.com/psi4/psi4/blob/master/codemeta.json
    https://github.com/psi4/psi4/graphs/contributors
    http://psicode.org/psi4manual/master/introduction.html#citing-psifour

    -----------------------------------------------------------------------


    Psi4 started on: Monday, 22 January 2024 03:44PM

    Process ID: 73947
    Host:       ddmfs1
    PSIDATADIR: /ddmfs1b/softs/psi4conda/share/psi4
    Memory:     500.0 MiB
    Threads:    20
    
  ==> Input File <==

--------------------------------------------------------------------------
MEMORY 60 GB

molecule dimer {
0 1
Gh(Na)     0.000000     0.000000     0.000000
Gh(O)     -0.034535     1.231489    -2.218136
Gh(H)      0.606959     1.824112    -2.604967
Gh(H)     -0.908760     1.375753    -2.636306
Gh(O)      2.509633    -0.358357    -0.458430
Gh(H)      2.814224    -0.209112     0.444792
Gh(H)      2.813634     0.361272    -1.001100
Gh(O)     -2.323793     0.459139     0.520834
Gh(H)     -3.041218     0.076369     0.031045
Gh(H)     -2.786487     1.059008     1.202974
Gh(O)     -0.225495    -2.522497     0.781078
Gh(H)     -0.490119    -2.643515     1.700931
Gh(H)      0.498305    -3.103075     0.692877
O          0.964521     0.894478     1.841733
H          1.926174     0.986879     2.103443
H          0.445700     0.435486     2.501790

units ang
no_reorient
no_com
symmetry c1
}

set {
basis        aug-cc-pVTZ
scf_type     df
}

energy("mp2")
--------------------------------------------------------------------------

  Memory set to  55.879 GiB by Python driver.

Scratch directory: /ddmfs1a/scratch/
   => Libint2 <=

    Primary   basis highest AM E, G, H:  5, 4, 3
    Auxiliary basis highest AM E, G, H:  6, 5, 4
    Onebody   basis highest AM E, G, H:  6, 5, 4
    Solid Harmonics ordering:            gaussian

*** tstart() called on ddmfs1
*** at Mon Jan 22 15:44:47 2024

   => Loading Basis Set <=

    Name: AUG-CC-PVTZ
    Role: ORBITAL
    Keyword: BASIS
    atoms 1                            entry NA         line   469 file /ddmfs1b/softs/psi4conda/share/psi4/basis/aug-cc-pvtz.gbs 
    atoms 2, 5, 8, 11, 14              entry O          line   331 file /ddmfs1b/softs/psi4conda/share/psi4/basis/aug-cc-pvtz.gbs 
    atoms 3-4, 6-7, 9-10, 12-13, 15-16 entry H          line    40 file /ddmfs1b/softs/psi4conda/share/psi4/basis/aug-cc-pvtz.gbs 


         ---------------------------------------------------------
                                   SCF
               by Justin Turney, Rob Parrish, Andy Simmonett
                          and Daniel G. A. Smith
                              RHF Reference
                       20 Threads,  57220 MiB Core
         ---------------------------------------------------------

  ==> Geometry <==

    Molecular point group: c1
    Full point group: C1

    Geometry (in Angstrom), charge = 0, multiplicity = 1:

       Center              X                  Y                   Z               Mass       
    ------------   -----------------  -----------------  -----------------  -----------------
      Gh(NA)          0.000000000000     0.000000000000     0.000000000000    22.989769282000
      Gh(O)          -0.034535000000     1.231489000000    -2.218136000000    15.994914619570
      Gh(H)           0.606959000000     1.824112000000    -2.604967000000     1.007825032230
      Gh(H)          -0.908760000000     1.375753000000    -2.636306000000     1.007825032230
      Gh(O)           2.509633000000    -0.358357000000    -0.458430000000    15.994914619570
      Gh(H)           2.814224000000    -0.209112000000     0.444792000000     1.007825032230
      Gh(H)           2.813634000000     0.361272000000    -1.001100000000     1.007825032230
      Gh(O)          -2.323793000000     0.459139000000     0.520834000000    15.994914619570
      Gh(H)          -3.041218000000     0.076369000000     0.031045000000     1.007825032230
      Gh(H)          -2.786487000000     1.059008000000     1.202974000000     1.007825032230
      Gh(O)          -0.225495000000    -2.522497000000     0.781078000000    15.994914619570
      Gh(H)          -0.490119000000    -2.643515000000     1.700931000000     1.007825032230
      Gh(H)           0.498305000000    -3.103075000000     0.692877000000     1.007825032230
         O            0.964521000000     0.894478000000     1.841733000000    15.994914619570
         H            1.926174000000     0.986879000000     2.103443000000     1.007825032230
         H            0.445700000000     0.435486000000     2.501790000000     1.007825032230

  Running in c1 symmetry.

  Rotational constants: A =      0.04844  B =      0.04648  C =      0.03571 [cm^-1]
  Rotational constants: A =   1452.14165  B =   1393.51366  C =   1070.44073 [MHz]
  Nuclear repulsion =    8.978811858156597

  Charge       = 0
  Multiplicity = 1
  Electrons    = 10
  Nalpha       = 5
  Nbeta        = 5

  ==> Algorithm <==

  SCF Algorithm Type is DF.
  DIIS enabled.
  MOM disabled.
  Fractional occupation disabled.
  Guess Type is SAD.
  Energy threshold   = 1.00e-08
  Density threshold  = 1.00e-08
  Integral threshold = 1.00e-12

  ==> Primary Basis <==

  Basis Set: AUG-CC-PVTZ
    Blend: AUG-CC-PVTZ
    Number of shells: 176
    Number of basis functions: 510
    Number of Cartesian functions: 584
    Spherical Harmonics?: true
    Max angular momentum: 3

   => Loading Basis Set <=

    Name: (AUG-CC-PVTZ AUX)
    Role: JKFIT
    Keyword: DF_BASIS_SCF
    atoms 1                            entry NA         line   498 file /ddmfs1b/softs/psi4conda/share/psi4/basis/def2-universal-jkfit.gbs 
    atoms 2, 5, 8, 11, 14              entry O          line   286 file /ddmfs1b/softs/psi4conda/share/psi4/basis/aug-cc-pvtz-jkfit.gbs 
    atoms 3-4, 6-7, 9-10, 12-13, 15-16 entry H          line    70 file /ddmfs1b/softs/psi4conda/share/psi4/basis/aug-cc-pvtz-jkfit.gbs 

  ==> Integral Setup <==

  DFHelper Memory: AOs need 2.001 GiB; user supplied 41.910 GiB. 
  Using in-core AOs.

  ==> MemDFJK: Density-Fitted J/K Matrices <==

    J tasked:                   Yes
    K tasked:                   Yes
    wK tasked:                   No
    OpenMP threads:              20
    Memory [MiB]:             42915
    Algorithm:                 Core
    Schwarz Cutoff:           1E-12
    Mask sparsity (%):      10.1492
    Fitting Condition:        1E-10

   => Auxiliary Basis Set <=

  Basis Set: (AUG-CC-PVTZ AUX)
    Blend: AUG-CC-PVTZ-JKFIT + DEF2-UNIVERSAL-JKFIT
    Number of shells: 324
    Number of basis functions: 1092
    Number of Cartesian functions: 1342
    Spherical Harmonics?: true
    Max angular momentum: 4

  Minimum eigenvalue in the overlap matrix is 3.0061034718E-05.
  Reciprocal condition number of the overlap matrix is 2.2564409332E-06.
    Using symmetric orthogonalization.

  ==> Pre-Iterations <==

  SCF Guess: Superposition of Atomic Densities via on-the-fly atomic UHF (no occupation information).

   -------------------------
    Irrep   Nso     Nmo    
   -------------------------
     A        510     510 
   -------------------------
    Total     510     510
   -------------------------

  ==> Iterations <==

                           Total Energy        Delta E     RMS |[F,P]|

   @DF-RHF iter SAD:   -75.44498678634281   -7.54450e+01   0.00000e+00 
   @DF-RHF iter   1:   -75.97149888262945   -5.26512e-01   9.16840e-04 ADIIS/DIIS
   @DF-RHF iter   2:   -76.02318509908369   -5.16862e-02   6.34432e-04 ADIIS/DIIS
   @DF-RHF iter   3:   -76.05568110166728   -3.24960e-02   4.32374e-05 DIIS
   @DF-RHF iter   4:   -76.05611025291513   -4.29151e-04   1.09314e-05 DIIS
   @DF-RHF iter   5:   -76.05614025027617   -2.99974e-05   2.54957e-06 DIIS
   @DF-RHF iter   6:   -76.05614288686147   -2.63659e-06   5.85546e-07 DIIS
   @DF-RHF iter   7:   -76.05614303982352   -1.52962e-07   1.12182e-07 DIIS
   @DF-RHF iter   8:   -76.05614304472088   -4.89736e-09   1.88255e-08 DIIS
   @DF-RHF iter   9:   -76.05614304483350   -1.12621e-10   4.91665e-09 DIIS
  Energy and wave function converged.


  ==> Post-Iterations <==

    Orbital Energies [Eh]
    ---------------------

    Doubly Occupied:                                                      

       1A    -20.566708     2A     -1.337608     3A     -0.720372  
       4A     -0.565043     5A     -0.506020  

    Virtual:                                                              

       6A      0.007818     7A      0.016282     8A      0.016858  
       9A      0.018423    10A      0.039164    11A      0.051583  
      12A      0.052928    13A      0.054538    14A      0.055637  
      15A      0.057912    16A      0.059663    17A      0.060653  
      18A      0.063592    19A      0.077903    20A      0.079304  
      21A      0.081109    22A      0.088269    23A      0.089685  
      24A      0.092874    25A      0.101882    26A      0.104606  
      27A      0.110564    28A      0.117508    29A      0.136822  
      30A      0.138210    31A      0.147171    32A      0.155281  
      33A      0.167801    34A      0.169782    35A      0.171402  
      36A      0.178654    37A      0.181604    38A      0.193396  
      39A      0.197963    40A      0.202721    41A      0.204048  
      42A      0.206362    43A      0.213695    44A      0.223277  
      45A      0.228536    46A      0.236377    47A      0.240183  
      48A      0.254022    49A      0.260505    50A      0.263625  
      51A      0.266146    52A      0.278070    53A      0.291082  
      54A      0.293766    55A      0.301109    56A      0.308101  
      57A      0.322550    58A      0.327273    59A      0.328353  
      60A      0.335930    61A      0.341034    62A      0.342521  
      63A      0.346596    64A      0.352214    65A      0.368457  
      66A      0.374847    67A      0.382016    68A      0.389172  
      69A      0.389470    70A      0.394337    71A      0.401744  
      72A      0.405410    73A      0.411566    74A      0.414888  
      75A      0.419465    76A      0.424332    77A      0.428520  
      78A      0.435951    79A      0.438678    80A      0.440804  
      81A      0.445937    82A      0.452226    83A      0.454505  
      84A      0.460266    85A      0.463574    86A      0.468614  
      87A      0.477925    88A      0.481217    89A      0.485173  
      90A      0.489782    91A      0.491124    92A      0.501681  
      93A      0.508416    94A      0.514854    95A      0.518141  
      96A      0.522941    97A      0.531241    98A      0.537847  
      99A      0.541169   100A      0.555986   101A      0.567164  
     102A      0.579362   103A      0.586683   104A      0.590401  
     105A      0.619400   106A      0.640260   107A      0.665386  
     108A      0.691903   109A      0.710628   110A      0.722065  
     111A      0.728113   112A      0.737099   113A      0.745388  
     114A      0.756779   115A      0.763825   116A      0.769686  
     117A      0.777091   118A      0.785169   119A      0.788889  
     120A      0.799938   121A      0.805504   122A      0.809092  
     123A      0.820662   124A      0.831314   125A      0.840109  
     126A      0.846775   127A      0.853046   128A      0.861623  
     129A      0.867109   130A      0.870881   131A      0.878810  
     132A      0.884291   133A      0.890441   134A      0.895783  
     135A      0.905695   136A      0.918407   137A      0.923238  
     138A      0.933209   139A      0.936169   140A      0.941000  
     141A      0.946783   142A      0.951027   143A      0.958551  
     144A      0.975433   145A      0.976727   146A      0.983108  
     147A      0.988222   148A      0.996943   149A      1.009998  
     150A      1.012297   151A      1.021716   152A      1.027499  
     153A      1.033985   154A      1.034850   155A      1.039396  
     156A      1.044502   157A      1.055425   158A      1.061388  
     159A      1.066806   160A      1.071263   161A      1.078712  
     162A      1.082009   163A      1.090786   164A      1.095144  
     165A      1.098311   166A      1.105687   167A      1.111903  
     168A      1.118981   169A      1.130726   170A      1.134031  
     171A      1.142240   172A      1.157811   173A      1.164065  
     174A      1.169282   175A      1.171722   176A      1.190006  
     177A      1.199854   178A      1.208020   179A      1.210751  
     180A      1.215915   181A      1.220893   182A      1.230948  
     183A      1.237470   184A      1.242384   185A      1.251204  
     186A      1.253547   187A      1.261442   188A      1.278439  
     189A      1.283440   190A      1.284702   191A      1.302868  
     192A      1.309562   193A      1.320989   194A      1.333493  
     195A      1.343304   196A      1.360029   197A      1.369225  
     198A      1.371805   199A      1.378870   200A      1.386117  
     201A      1.410377   202A      1.419717   203A      1.428402  
     204A      1.433546   205A      1.436377   206A      1.464129  
     207A      1.471135   208A      1.490121   209A      1.502787  
     210A      1.517226   211A      1.520993   212A      1.533820  
     213A      1.560498   214A      1.587780   215A      1.597276  
     216A      1.625135   217A      1.630720   218A      1.666902  
     219A      1.679643   220A      1.682036   221A      1.689578  
     222A      1.709019   223A      1.740276   224A      1.764658  
     225A      1.766152   226A      1.790905   227A      1.797106  
     228A      1.817728   229A      1.833781   230A      1.842097  
     231A      1.850325   232A      1.857589   233A      1.869008  
     234A      1.882460   235A      1.891200   236A      1.903636  
     237A      1.916263   238A      1.926027   239A      1.930365  
     240A      1.933906   241A      1.945350   242A      1.962369  
     243A      1.973707   244A      1.997302   245A      2.006318  
     246A      2.037916   247A      2.060071   248A      2.066122  
     249A      2.068141   250A      2.088576   251A      2.101577  
     252A      2.126944   253A      2.134417   254A      2.151612  
     255A      2.293577   256A      2.397700   257A      2.423842  
     258A      2.436080   259A      2.468465   260A      2.471362  
     261A      2.505047   262A      2.514819   263A      2.527894  
     264A      2.536670   265A      2.543668   266A      2.548548  
     267A      2.572517   268A      2.581491   269A      2.586586  
     270A      2.591730   271A      2.605475   272A      2.608755  
     273A      2.613745   274A      2.634832   275A      2.652759  
     276A      2.656611   277A      2.669372   278A      2.673720  
     279A      2.688291   280A      2.707877   281A      2.745166  
     282A      2.750973   283A      2.761328   284A      2.773551  
     285A      2.788271   286A      2.815385   287A      2.832233  
     288A      2.839206   289A      2.844235   290A      2.888759  
     291A      2.898877   292A      2.905420   293A      2.915712  
     294A      2.928667   295A      2.946141   296A      2.968894  
     297A      2.974449   298A      2.982460   299A      3.019322  
     300A      3.025524   301A      3.045471   302A      3.072041  
     303A      3.102621   304A      3.223399   305A      3.238029  
     306A      3.245595   307A      3.253005   308A      3.271274  
     309A      3.281432   310A      3.300174   311A      3.308573  
     312A      3.314768   313A      3.332173   314A      3.347965  
     315A      3.355658   316A      3.369980   317A      3.377056  
     318A      3.386701   319A      3.414335   320A      3.430352  
     321A      3.449879   322A      3.460422   323A      3.485260  
     324A      3.586990   325A      3.627934   326A      3.644609  
     327A      3.664293   328A      3.727300   329A      3.730543  
     330A      3.776147   331A      3.790835   332A      3.906147  
     333A      3.961289   334A      4.152507   335A      4.279361  
     336A      4.308384   337A      4.367261   338A      4.376382  
     339A      4.387769   340A      4.433337   341A      4.448038  
     342A      4.465964   343A      4.489130   344A      4.500546  
     345A      4.514564   346A      4.528525   347A      4.537177  
     348A      4.551576   349A      4.558061   350A      4.568539  
     351A      4.604801   352A      4.620944   353A      4.653091  
     354A      4.661057   355A      4.675106   356A      4.695888  
     357A      4.703182   358A      4.707629   359A      4.713530  
     360A      4.734504   361A      4.743625   362A      4.744830  
     363A      4.768892   364A      4.782016   365A      4.789237  
     366A      4.803949   367A      4.829047   368A      4.861603  
     369A      4.944949   370A      4.966894   371A      4.978565  
     372A      4.989978   373A      4.992352   374A      5.019711  
     375A      5.027997   376A      5.042712   377A      5.052304  
     378A      5.090270   379A      5.103465   380A      5.139342  
     381A      5.147445   382A      5.173341   383A      5.183473  
     384A      5.225045   385A      5.250339   386A      5.266379  
     387A      5.352359   388A      5.412475   389A      5.477506  
     390A      5.503601   391A      5.507123   392A      5.532904  
     393A      5.549835   394A      5.553732   395A      5.596546  
     396A      5.623622   397A      5.655719   398A      5.669120  
     399A      5.704174   400A      5.727822   401A      5.746994  
     402A      5.791484   403A      5.836680   404A      5.857753  
     405A      5.897524   406A      5.902091   407A      5.942595  
     408A      6.149051   409A      6.180656   410A      6.210753  
     411A      6.226124   412A      6.313732   413A      6.371085  
     414A      6.380904   415A      6.418056   416A      6.462840  
     417A      6.561300   418A      6.692300   419A      6.722324  
     420A      6.797197   421A      6.814312   422A      6.821389  
     423A      6.855192   424A      7.006359   425A      7.064834  
     426A      7.079081   427A      7.104729   428A      7.152116  
     429A      7.183413   430A      7.221264   431A      7.325658  
     432A      7.363384   433A      7.383936   434A      7.456682  
     435A      7.485017   436A      7.615516   437A      7.685776  
     438A      7.714719   439A      7.720961   440A      7.743959  
     441A      7.762187   442A      7.835306   443A      7.885832  
     444A      7.890416   445A      7.899103   446A      7.963937  
     447A      8.017560   448A      8.045946   449A      8.117299  
     450A      8.126264   451A      8.166085   452A      8.195660  
     453A      8.210860   454A      8.261608   455A      8.274209  
     456A      8.296056   457A      8.316420   458A      8.348406  
     459A      8.376425   460A      8.671415   461A      8.763284  
     462A      8.797737   463A      8.809423   464A      8.815777  
     465A      8.832960   466A      8.858389   467A      8.880715  
     468A      8.938031   469A      9.856865   470A      9.864068  
     471A      9.906983   472A      9.923934   473A      9.982046  
     474A      9.998134   475A     10.008676   476A     10.021274  
     477A     10.025130   478A     10.044266   479A     10.055790  
     480A     10.119871   481A     10.213867   482A     10.233889  
     483A     10.249455   484A     10.256899   485A     11.018729  
     486A     11.144081   487A     11.231061   488A     11.320273  
     489A     11.697136   490A     11.721534   491A     11.832674  
     492A     11.921993   493A     12.099532   494A     12.159696  
     495A     12.274203   496A     12.376976   497A     13.455911  
     498A     13.520522   499A     13.634974   500A     13.668007  
     501A     13.879711   502A     13.905225   503A     13.910352  
     504A     13.978572   505A     15.779963   506A     64.143218  
     507A     64.678144   508A     64.876261   509A     65.664339  
     510A     65.949816  

    Final Occupation by Irrep:
              A 
    DOCC [     5 ]
    NA   [     5 ]
    NB   [     5 ]

  @DF-RHF Final Energy:   -76.05614304483350

   => Energetics <=

    Nuclear Repulsion Energy =              8.9788118581565968
    One-Electron Energy =                -122.6784046529828061
    Two-Electron Energy =                  37.6434497499926906
    Total Energy =                        -76.0561430448335045

Computation Completed


Properties will be evaluated at   0.000000,   0.000000,   0.000000 [a0]

Properties computed using the SCF density matrix


 Multipole Moments:

 ------------------------------------------------------------------------------------
     Multipole            Electronic (a.u.)      Nuclear  (a.u.)        Total (a.u.)
 ------------------------------------------------------------------------------------

 L = 1.  Multiply by 2.5417464519 to convert [e a0] to [Debye]
 Dipole X            :        -18.7706813           19.0636365            0.2929552
 Dipole Y            :        -16.4588159           16.2104279           -0.2483880
 Dipole Z            :        -35.9237102           36.5455968            0.6218867
 Magnitude           :                                                    0.7309325

 ------------------------------------------------------------------------------------

*** tstop() called on ddmfs1 at Mon Jan 22 15:44:54 2024
Module time:
	user time   =      91.00 seconds =       1.52 minutes
	system time =       5.56 seconds =       0.09 minutes
	total time  =          7 seconds =       0.12 minutes
Total time:
	user time   =      91.00 seconds =       1.52 minutes
	system time =       5.56 seconds =       0.09 minutes
	total time  =          7 seconds =       0.12 minutes

*** tstart() called on ddmfs1
*** at Mon Jan 22 15:44:54 2024


  //>>>>>>>>>>>>>>>>>>>>>>>>>>>>>>>>>>>//
  //               DFMP2               //
  //<<<<<<<<<<<<<<<<<<<<<<<<<<<<<<<<<<<//

   => Loading Basis Set <=

    Name: (AUG-CC-PVTZ AUX)
    Role: RIFIT
    Keyword: DF_BASIS_MP2
    atoms 1                            entry NA         line   610 file /ddmfs1b/softs/psi4conda/share/psi4/basis/def2-qzvpp-ri.gbs 
    atoms 2, 5, 8, 11, 14              entry O          line   264 file /ddmfs1b/softs/psi4conda/share/psi4/basis/aug-cc-pvtz-ri.gbs 
    atoms 3-4, 6-7, 9-10, 12-13, 15-16 entry H          line    30 file /ddmfs1b/softs/psi4conda/share/psi4/basis/aug-cc-pvtz-ri.gbs 

	 --------------------------------------------------------
	                          DF-MP2                         
	      2nd-Order Density-Fitted Moller-Plesset Theory     
	              RMP2 Wavefunction,  20 Threads             
	                                                         
	        Rob Parrish, Justin Turney, Andy Simmonett,      
	           Ed Hohenstein, and C. David Sherrill          
	 --------------------------------------------------------

   => Auxiliary Basis Set <=

  Basis Set: (AUG-CC-PVTZ AUX)
    Blend: AUG-CC-PVTZ-RI + DEF2-QZVPP-RI
    Number of shells: 322
    Number of basis functions: 1156
    Number of Cartesian functions: 1444
    Spherical Harmonics?: true
    Max angular momentum: 4

	 --------------------------------------------------------
	                 NBF =   510, NAUX =  1156
	 --------------------------------------------------------
	   CLASS    FOCC     OCC    AOCC    AVIR     VIR    FVIR
	   PAIRS       0       5       5     505     505       0
	 --------------------------------------------------------

	-----------------------------------------------------------
	 ==================> DF-MP2 Energies <==================== 
	-----------------------------------------------------------
	 Reference Energy          =     -76.0561430448335045 [Eh]
	 Singles Energy            =      -0.0000000000000000 [Eh]
	 Same-Spin Energy          =      -0.0687083592733829 [Eh]
	 Opposite-Spin Energy      =      -0.2167274477240828 [Eh]
	 Correlation Energy        =      -0.2854358069974657 [Eh]
	 Total Energy              =     -76.3415788518309739 [Eh]
	-----------------------------------------------------------
	 ================> DF-SCS-MP2 Energies <================== 
	-----------------------------------------------------------
	 SCS Same-Spin Scale       =       0.3333333333333333 [-]
	 SCS Opposite-Spin Scale   =       1.2000000000000000 [-]
	 SCS Same-Spin Energy      =      -0.0229027864244610 [Eh]
	 SCS Opposite-Spin Energy  =      -0.2600729372688994 [Eh]
	 SCS Correlation Energy    =      -0.2829757236933604 [Eh]
	 SCS Total Energy          =     -76.3391187685268591 [Eh]
	-----------------------------------------------------------


*** tstop() called on ddmfs1 at Mon Jan 22 15:45:00 2024
Module time:
	user time   =      28.21 seconds =       0.47 minutes
	system time =       2.07 seconds =       0.03 minutes
	total time  =          6 seconds =       0.10 minutes
Total time:
	user time   =     119.23 seconds =       1.99 minutes
	system time =       7.63 seconds =       0.13 minutes
	total time  =         13 seconds =       0.22 minutes

    Psi4 stopped on: Monday, 22 January 2024 03:45PM
    Psi4 wall time for execution: 0:00:13.18

*** Psi4 exiting successfully. Buy a developer a beer!
