
    -----------------------------------------------------------------------
          Psi4: An Open-Source Ab Initio Electronic Structure Package
                               Psi4 1.8.2 release

                         Git: Rev {} zzzzzzz 


    D. G. A. Smith, L. A. Burns, A. C. Simmonett, R. M. Parrish,
    M. C. Schieber, R. Galvelis, P. Kraus, H. Kruse, R. Di Remigio,
    A. Alenaizan, A. M. James, S. Lehtola, J. P. Misiewicz, M. Scheurer,
    R. A. Shaw, J. B. Schriber, Y. Xie, Z. L. Glick, D. A. Sirianni,
    J. S. O'Brien, J. M. Waldrop, A. Kumar, E. G. Hohenstein,
    B. P. Pritchard, B. R. Brooks, H. F. Schaefer III, A. Yu. Sokolov,
    K. Patkowski, A. E. DePrince III, U. Bozkaya, R. A. King,
    F. A. Evangelista, J. M. Turney, T. D. Crawford, C. D. Sherrill,
    J. Chem. Phys. 152(18) 184108 (2020). https://doi.org/10.1063/5.0006002

                            Additional Code Authors
    E. T. Seidl, C. L. Janssen, E. F. Valeev, M. L. Leininger,
    J. F. Gonthier, R. M. Richard, H. R. McAlexander, M. Saitow, X. Wang,
    P. Verma, M. H. Lechner, A. Jiang, S. Behnle, A. G. Heide,
    M. F. Herbst, and D. L. Poole

             Previous Authors, Complete List of Code Contributors,
                       and Citations for Specific Modules
    https://github.com/psi4/psi4/blob/master/codemeta.json
    https://github.com/psi4/psi4/graphs/contributors
    http://psicode.org/psi4manual/master/introduction.html#citing-psifour

    -----------------------------------------------------------------------


    Psi4 started on: Monday, 22 January 2024 04:21PM

    Process ID: 77455
    Host:       ddmfs1
    PSIDATADIR: /ddmfs1b/softs/psi4conda/share/psi4
    Memory:     500.0 MiB
    Threads:    20
    
  ==> Input File <==

--------------------------------------------------------------------------
MEMORY 60 GB

molecule dimer {
0 1
Gh(Na)     0.000000     0.000000     0.000000
Gh(O)      0.708023    -1.342751    -1.859325
Gh(H)      0.651312    -1.530173    -2.824257
Gh(H)      0.765287    -2.234127    -1.494177
O          1.966844     1.359311     0.168930
H          2.774677     1.014819     0.464956
H          2.154278     2.048941    -0.513915
Gh(O)      1.251839    -1.361885     1.616700
Gh(H)      1.002389    -2.318327     1.850238
Gh(H)      2.110395    -1.505860     1.250054
Gh(O)     -1.064373     1.917554    -1.138065
Gh(H)     -1.512374     2.639764    -0.689674
Gh(H)     -1.757728     1.278248    -1.399230
Gh(O)     -2.229190    -0.753886     0.938174
Gh(H)     -2.626923    -1.541755     0.554601
Gh(H)     -2.610605     0.056120     0.627425

units ang
no_reorient
no_com
symmetry c1
}

set {
basis        aug-cc-pVTZ
scf_type     df
}

energy("mp2")
--------------------------------------------------------------------------

  Memory set to  55.879 GiB by Python driver.

Scratch directory: /ddmfs1a/scratch/
   => Libint2 <=

    Primary   basis highest AM E, G, H:  5, 4, 3
    Auxiliary basis highest AM E, G, H:  6, 5, 4
    Onebody   basis highest AM E, G, H:  6, 5, 4
    Solid Harmonics ordering:            gaussian

*** tstart() called on ddmfs1
*** at Mon Jan 22 16:21:45 2024

   => Loading Basis Set <=

    Name: AUG-CC-PVTZ
    Role: ORBITAL
    Keyword: BASIS
    atoms 1                            entry NA         line   469 file /ddmfs1b/softs/psi4conda/share/psi4/basis/aug-cc-pvtz.gbs 
    atoms 2, 5, 8, 11, 14              entry O          line   331 file /ddmfs1b/softs/psi4conda/share/psi4/basis/aug-cc-pvtz.gbs 
    atoms 3-4, 6-7, 9-10, 12-13, 15-16 entry H          line    40 file /ddmfs1b/softs/psi4conda/share/psi4/basis/aug-cc-pvtz.gbs 


         ---------------------------------------------------------
                                   SCF
               by Justin Turney, Rob Parrish, Andy Simmonett
                          and Daniel G. A. Smith
                              RHF Reference
                       20 Threads,  57220 MiB Core
         ---------------------------------------------------------

  ==> Geometry <==

    Molecular point group: c1
    Full point group: C1

    Geometry (in Angstrom), charge = 0, multiplicity = 1:

       Center              X                  Y                   Z               Mass       
    ------------   -----------------  -----------------  -----------------  -----------------
      Gh(NA)          0.000000000000     0.000000000000     0.000000000000    22.989769282000
      Gh(O)           0.708023000000    -1.342751000000    -1.859325000000    15.994914619570
      Gh(H)           0.651312000000    -1.530173000000    -2.824257000000     1.007825032230
      Gh(H)           0.765287000000    -2.234127000000    -1.494177000000     1.007825032230
         O            1.966844000000     1.359311000000     0.168930000000    15.994914619570
         H            2.774677000000     1.014819000000     0.464956000000     1.007825032230
         H            2.154278000000     2.048941000000    -0.513915000000     1.007825032230
      Gh(O)           1.251839000000    -1.361885000000     1.616700000000    15.994914619570
      Gh(H)           1.002389000000    -2.318327000000     1.850238000000     1.007825032230
      Gh(H)           2.110395000000    -1.505860000000     1.250054000000     1.007825032230
      Gh(O)          -1.064373000000     1.917554000000    -1.138065000000    15.994914619570
      Gh(H)          -1.512374000000     2.639764000000    -0.689674000000     1.007825032230
      Gh(H)          -1.757728000000     1.278248000000    -1.399230000000     1.007825032230
      Gh(O)          -2.229190000000    -0.753886000000     0.938174000000    15.994914619570
      Gh(H)          -2.626923000000    -1.541755000000     0.554601000000     1.007825032230
      Gh(H)          -2.610605000000     0.056120000000     0.627425000000     1.007825032230

  Running in c1 symmetry.

  Rotational constants: A =      0.05047  B =      0.04687  C =      0.03786 [cm^-1]
  Rotational constants: A =   1513.15122  B =   1405.09723  C =   1135.01484 [MHz]
  Nuclear repulsion =    9.191592017425011

  Charge       = 0
  Multiplicity = 1
  Electrons    = 10
  Nalpha       = 5
  Nbeta        = 5

  ==> Algorithm <==

  SCF Algorithm Type is DF.
  DIIS enabled.
  MOM disabled.
  Fractional occupation disabled.
  Guess Type is SAD.
  Energy threshold   = 1.00e-08
  Density threshold  = 1.00e-08
  Integral threshold = 1.00e-12

  ==> Primary Basis <==

  Basis Set: AUG-CC-PVTZ
    Blend: AUG-CC-PVTZ
    Number of shells: 176
    Number of basis functions: 510
    Number of Cartesian functions: 584
    Spherical Harmonics?: true
    Max angular momentum: 3

   => Loading Basis Set <=

    Name: (AUG-CC-PVTZ AUX)
    Role: JKFIT
    Keyword: DF_BASIS_SCF
    atoms 1                            entry NA         line   498 file /ddmfs1b/softs/psi4conda/share/psi4/basis/def2-universal-jkfit.gbs 
    atoms 2, 5, 8, 11, 14              entry O          line   286 file /ddmfs1b/softs/psi4conda/share/psi4/basis/aug-cc-pvtz-jkfit.gbs 
    atoms 3-4, 6-7, 9-10, 12-13, 15-16 entry H          line    70 file /ddmfs1b/softs/psi4conda/share/psi4/basis/aug-cc-pvtz-jkfit.gbs 

  ==> Integral Setup <==

  DFHelper Memory: AOs need 2.017 GiB; user supplied 41.910 GiB. 
  Using in-core AOs.

  ==> MemDFJK: Density-Fitted J/K Matrices <==

    J tasked:                   Yes
    K tasked:                   Yes
    wK tasked:                   No
    OpenMP threads:              20
    Memory [MiB]:             42915
    Algorithm:                 Core
    Schwarz Cutoff:           1E-12
    Mask sparsity (%):       9.4271
    Fitting Condition:        1E-10

   => Auxiliary Basis Set <=

  Basis Set: (AUG-CC-PVTZ AUX)
    Blend: AUG-CC-PVTZ-JKFIT + DEF2-UNIVERSAL-JKFIT
    Number of shells: 324
    Number of basis functions: 1092
    Number of Cartesian functions: 1342
    Spherical Harmonics?: true
    Max angular momentum: 4

  Minimum eigenvalue in the overlap matrix is 3.9041404489E-05.
  Reciprocal condition number of the overlap matrix is 2.9059722120E-06.
    Using symmetric orthogonalization.

  ==> Pre-Iterations <==

  SCF Guess: Superposition of Atomic Densities via on-the-fly atomic UHF (no occupation information).

   -------------------------
    Irrep   Nso     Nmo    
   -------------------------
     A        510     510 
   -------------------------
    Total     510     510
   -------------------------

  ==> Iterations <==

                           Total Energy        Delta E     RMS |[F,P]|

   @DF-RHF iter SAD:   -75.47277923569102   -7.54728e+01   0.00000e+00 
   @DF-RHF iter   1:   -75.97427289288797   -5.01494e-01   9.21265e-04 DIIS/ADIIS
   @DF-RHF iter   2:   -76.02697624604754   -5.27034e-02   6.24988e-04 DIIS/ADIIS
   @DF-RHF iter   3:   -76.05822321284055   -3.12470e-02   4.25878e-05 DIIS
   @DF-RHF iter   4:   -76.05862175376205   -3.98541e-04   1.02443e-05 DIIS
   @DF-RHF iter   5:   -76.05864681867297   -2.50649e-05   2.35036e-06 DIIS
   @DF-RHF iter   6:   -76.05864893521252   -2.11654e-06   5.30158e-07 DIIS
   @DF-RHF iter   7:   -76.05864905438219   -1.19170e-07   9.91064e-08 DIIS
   @DF-RHF iter   8:   -76.05864905805157   -3.66938e-09   1.65048e-08 DIIS
   @DF-RHF iter   9:   -76.05864905813252   -8.09450e-11   4.22247e-09 DIIS
  Energy and wave function converged.


  ==> Post-Iterations <==

    Orbital Energies [Eh]
    ---------------------

    Doubly Occupied:                                                      

       1A    -20.565122     2A     -1.351511     3A     -0.725035  
       4A     -0.577042     5A     -0.509218  

    Virtual:                                                              

       6A      0.007863     7A      0.016376     8A      0.016838  
       9A      0.018348    10A      0.039289    11A      0.050608  
      12A      0.053227    13A      0.054827    14A      0.056486  
      15A      0.057628    16A      0.060070    17A      0.062186  
      18A      0.064827    19A      0.077891    20A      0.078804  
      21A      0.085051    22A      0.089181    23A      0.091252  
      24A      0.094923    25A      0.099191    26A      0.105756  
      27A      0.110020    28A      0.121055    29A      0.136345  
      30A      0.141522    31A      0.143912    32A      0.158402  
      33A      0.169525    34A      0.171903    35A      0.174917  
      36A      0.182698    37A      0.185264    38A      0.193149  
      39A      0.194448    40A      0.201900    41A      0.203610  
      42A      0.207684    43A      0.220898    44A      0.223284  
      45A      0.225484    46A      0.235432    47A      0.243878  
      48A      0.253776    49A      0.260540    50A      0.262287  
      51A      0.269025    52A      0.283264    53A      0.288762  
      54A      0.295601    55A      0.298094    56A      0.306285  
      57A      0.326755    58A      0.332926    59A      0.337781  
      60A      0.344163    61A      0.348311    62A      0.350810  
      63A      0.360212    64A      0.361237    65A      0.364614  
      66A      0.373223    67A      0.376169    68A      0.379460  
      69A      0.390320    70A      0.399274    71A      0.401200  
      72A      0.407906    73A      0.412905    74A      0.419906  
      75A      0.426458    76A      0.428588    77A      0.431241  
      78A      0.438257    79A      0.444642    80A      0.447411  
      81A      0.453006    82A      0.458458    83A      0.463836  
      84A      0.469357    85A      0.478645    86A      0.481700  
      87A      0.485055    88A      0.490926    89A      0.493551  
      90A      0.498114    91A      0.506820    92A      0.507744  
      93A      0.511251    94A      0.520405    95A      0.528687  
      96A      0.534882    97A      0.540027    98A      0.547917  
      99A      0.551725   100A      0.560301   101A      0.572308  
     102A      0.584809   103A      0.602631   104A      0.615807  
     105A      0.621171   106A      0.642509   107A      0.655978  
     108A      0.701283   109A      0.701869   110A      0.709987  
     111A      0.719426   112A      0.727562   113A      0.734842  
     114A      0.765756   115A      0.769079   116A      0.781103  
     117A      0.787288   118A      0.792512   119A      0.797960  
     120A      0.808312   121A      0.818020   122A      0.825712  
     123A      0.831945   124A      0.835263   125A      0.843394  
     126A      0.849556   127A      0.858045   128A      0.865796  
     129A      0.872042   130A      0.879792   131A      0.881736  
     132A      0.890343   133A      0.892433   134A      0.901828  
     135A      0.916001   136A      0.916225   137A      0.920684  
     138A      0.932929   139A      0.936926   140A      0.948852  
     141A      0.955344   142A      0.959502   143A      0.965471  
     144A      0.973483   145A      0.982324   146A      0.990203  
     147A      0.994731   148A      0.999868   149A      1.005721  
     150A      1.015570   151A      1.023867   152A      1.029200  
     153A      1.032323   154A      1.037295   155A      1.043278  
     156A      1.054351   157A      1.055688   158A      1.061109  
     159A      1.069261   160A      1.073841   161A      1.081472  
     162A      1.088584   163A      1.100339   164A      1.104605  
     165A      1.111305   166A      1.113394   167A      1.120445  
     168A      1.125613   169A      1.129244   170A      1.137452  
     171A      1.139726   172A      1.150495   173A      1.168596  
     174A      1.175289   175A      1.183195   176A      1.187266  
     177A      1.199605   178A      1.204688   179A      1.216494  
     180A      1.219537   181A      1.223972   182A      1.236308  
     183A      1.252021   184A      1.263014   185A      1.279288  
     186A      1.286599   187A      1.295797   188A      1.304223  
     189A      1.311637   190A      1.320775   191A      1.322799  
     192A      1.341536   193A      1.345366   194A      1.354755  
     195A      1.358889   196A      1.372032   197A      1.387655  
     198A      1.390177   199A      1.400250   200A      1.408202  
     201A      1.418712   202A      1.440820   203A      1.442548  
     204A      1.456785   205A      1.469252   206A      1.476471  
     207A      1.492801   208A      1.508096   209A      1.518424  
     210A      1.539149   211A      1.555198   212A      1.560028  
     213A      1.572583   214A      1.591290   215A      1.630081  
     216A      1.646923   217A      1.651646   218A      1.664132  
     219A      1.680893   220A      1.686988   221A      1.695705  
     222A      1.708112   223A      1.730043   224A      1.737902  
     225A      1.762018   226A      1.795665   227A      1.815834  
     228A      1.828102   229A      1.846133   230A      1.855892  
     231A      1.866593   232A      1.873446   233A      1.882167  
     234A      1.892705   235A      1.897310   236A      1.917166  
     237A      1.926207   238A      1.932826   239A      1.943428  
     240A      1.945175   241A      1.962001   242A      1.967964  
     243A      1.981056   244A      2.002526   245A      2.012103  
     246A      2.035632   247A      2.046331   248A      2.062484  
     249A      2.087402   250A      2.098087   251A      2.109754  
     252A      2.155058   253A      2.166561   254A      2.183555  
     255A      2.253518   256A      2.380814   257A      2.395991  
     258A      2.443509   259A      2.458279   260A      2.485440  
     261A      2.496399   262A      2.508338   263A      2.530852  
     264A      2.543946   265A      2.562695   266A      2.568500  
     267A      2.580983   268A      2.594770   269A      2.610150  
     270A      2.620177   271A      2.627043   272A      2.636297  
     273A      2.637870   274A      2.652237   275A      2.665071  
     276A      2.676155   277A      2.695381   278A      2.699724  
     279A      2.709451   280A      2.720350   281A      2.739220  
     282A      2.746903   283A      2.768185   284A      2.780638  
     285A      2.801817   286A      2.816991   287A      2.835237  
     288A      2.847908   289A      2.855730   290A      2.890156  
     291A      2.901614   292A      2.932171   293A      2.950621  
     294A      2.953604   295A      2.969215   296A      2.981675  
     297A      2.996017   298A      3.006773   299A      3.025117  
     300A      3.048827   301A      3.057831   302A      3.092509  
     303A      3.135439   304A      3.212883   305A      3.233242  
     306A      3.236192   307A      3.250618   308A      3.260818  
     309A      3.270287   310A      3.278805   311A      3.296582  
     312A      3.315709   313A      3.347135   314A      3.368814  
     315A      3.377691   316A      3.384141   317A      3.390540  
     318A      3.401282   319A      3.410240   320A      3.415435  
     321A      3.446731   322A      3.465304   323A      3.486794  
     324A      3.611835   325A      3.638681   326A      3.668086  
     327A      3.704850   328A      3.736486   329A      3.770870  
     330A      3.774980   331A      3.794251   332A      3.831797  
     333A      3.956531   334A      4.105030   335A      4.276622  
     336A      4.312825   337A      4.350023   338A      4.398152  
     339A      4.420207   340A      4.429312   341A      4.446209  
     342A      4.463441   343A      4.484703   344A      4.498180  
     345A      4.519199   346A      4.528545   347A      4.543826  
     348A      4.565011   349A      4.580296   350A      4.593026  
     351A      4.596054   352A      4.616295   353A      4.623217  
     354A      4.645694   355A      4.658874   356A      4.680881  
     357A      4.699389   358A      4.709584   359A      4.718216  
     360A      4.743334   361A      4.762028   362A      4.765711  
     363A      4.813356   364A      4.818154   365A      4.824198  
     366A      4.832503   367A      4.854383   368A      4.892460  
     369A      4.972436   370A      4.980055   371A      4.988204  
     372A      5.007629   373A      5.028458   374A      5.048805  
     375A      5.058484   376A      5.088009   377A      5.102986  
     378A      5.120218   379A      5.140109   380A      5.154805  
     381A      5.183218   382A      5.201676   383A      5.208898  
     384A      5.242283   385A      5.300722   386A      5.318517  
     387A      5.370347   388A      5.428806   389A      5.514451  
     390A      5.530552   391A      5.537709   392A      5.553091  
     393A      5.559477   394A      5.586282   395A      5.620387  
     396A      5.626382   397A      5.647388   398A      5.650821  
     399A      5.697108   400A      5.722075   401A      5.772401  
     402A      5.799363   403A      5.819609   404A      5.858509  
     405A      5.895528   406A      5.920860   407A      5.978789  
     408A      6.191935   409A      6.227907   410A      6.241314  
     411A      6.284845   412A      6.319393   413A      6.335577  
     414A      6.365005   415A      6.395763   416A      6.410958  
     417A      6.552194   418A      6.648831   419A      6.658467  
     420A      6.740555   421A      6.801845   422A      6.918273  
     423A      6.939625   424A      6.995948   425A      7.059163  
     426A      7.083378   427A      7.129344   428A      7.140320  
     429A      7.172547   430A      7.246672   431A      7.351529  
     432A      7.362488   433A      7.389624   434A      7.450701  
     435A      7.471229   436A      7.550836   437A      7.713558  
     438A      7.718775   439A      7.740781   440A      7.769409  
     441A      7.778676   442A      7.817671   443A      7.877718  
     444A      7.889439   445A      7.906361   446A      7.941261  
     447A      8.033221   448A      8.065168   449A      8.087695  
     450A      8.115844   451A      8.142289   452A      8.161960  
     453A      8.204876   454A      8.234913   455A      8.287389  
     456A      8.296624   457A      8.320741   458A      8.339281  
     459A      8.399445   460A      8.683266   461A      8.705009  
     462A      8.776736   463A      8.814722   464A      8.822063  
     465A      8.830376   466A      8.851508   467A      8.871969  
     468A      8.940923   469A      9.857363   470A      9.865082  
     471A      9.880310   472A      9.914799   473A     10.001688  
     474A     10.005284   475A     10.016177   476A     10.026663  
     477A     10.043311   478A     10.054594   479A     10.073595  
     480A     10.101962   481A     10.183934   482A     10.232439  
     483A     10.266190   484A     10.284534   485A     11.063386  
     486A     11.163308   487A     11.169704   488A     11.187132  
     489A     11.737455   490A     11.866400   491A     11.894392  
     492A     11.931514   493A     12.072833   494A     12.130620  
     495A     12.154086   496A     12.325498   497A     13.525664  
     498A     13.585879   499A     13.608185   500A     13.636569  
     501A     13.889774   502A     13.937808   503A     13.966189  
     504A     13.981956   505A     16.405656   506A     64.570534  
     507A     64.609695   508A     64.851532   509A     65.042825  
     510A     65.842409  

    Final Occupation by Irrep:
              A 
    DOCC [     5 ]
    NA   [     5 ]
    NB   [     5 ]

  @DF-RHF Final Energy:   -76.05864905813252

   => Energetics <=

    Nuclear Repulsion Energy =              9.1915920174250108
    One-Electron Energy =                -123.0446220490790807
    Two-Electron Energy =                  37.7943809735215552
    Total Energy =                        -76.0586490581325165

Computation Completed


Properties will be evaluated at   0.000000,   0.000000,   0.000000 [a0]

Properties computed using the SCF density matrix


 Multipole Moments:

 ------------------------------------------------------------------------------------
     Multipole            Electronic (a.u.)      Nuclear  (a.u.)        Total (a.u.)
 ------------------------------------------------------------------------------------

 L = 1.  Multiply by 2.5417464519 to convert [e a0] to [Debye]
 Dipole X            :        -38.3751680           39.0487470            0.6735790
 Dipole Y            :        -26.1133572           26.3394714            0.2261142
 Dipole Z            :         -2.7154680            2.4613324           -0.2541357
 Magnitude           :                                                    0.7546001

 ------------------------------------------------------------------------------------

*** tstop() called on ddmfs1 at Mon Jan 22 16:21:51 2024
Module time:
	user time   =      91.44 seconds =       1.52 minutes
	system time =       5.62 seconds =       0.09 minutes
	total time  =          6 seconds =       0.10 minutes
Total time:
	user time   =      91.44 seconds =       1.52 minutes
	system time =       5.62 seconds =       0.09 minutes
	total time  =          6 seconds =       0.10 minutes

*** tstart() called on ddmfs1
*** at Mon Jan 22 16:21:51 2024


  //>>>>>>>>>>>>>>>>>>>>>>>>>>>>>>>>>>>//
  //               DFMP2               //
  //<<<<<<<<<<<<<<<<<<<<<<<<<<<<<<<<<<<//

   => Loading Basis Set <=

    Name: (AUG-CC-PVTZ AUX)
    Role: RIFIT
    Keyword: DF_BASIS_MP2
    atoms 1                            entry NA         line   610 file /ddmfs1b/softs/psi4conda/share/psi4/basis/def2-qzvpp-ri.gbs 
    atoms 2, 5, 8, 11, 14              entry O          line   264 file /ddmfs1b/softs/psi4conda/share/psi4/basis/aug-cc-pvtz-ri.gbs 
    atoms 3-4, 6-7, 9-10, 12-13, 15-16 entry H          line    30 file /ddmfs1b/softs/psi4conda/share/psi4/basis/aug-cc-pvtz-ri.gbs 

	 --------------------------------------------------------
	                          DF-MP2                         
	      2nd-Order Density-Fitted Moller-Plesset Theory     
	              RMP2 Wavefunction,  20 Threads             
	                                                         
	        Rob Parrish, Justin Turney, Andy Simmonett,      
	           Ed Hohenstein, and C. David Sherrill          
	 --------------------------------------------------------

   => Auxiliary Basis Set <=

  Basis Set: (AUG-CC-PVTZ AUX)
    Blend: AUG-CC-PVTZ-RI + DEF2-QZVPP-RI
    Number of shells: 322
    Number of basis functions: 1156
    Number of Cartesian functions: 1444
    Spherical Harmonics?: true
    Max angular momentum: 4

	 --------------------------------------------------------
	                 NBF =   510, NAUX =  1156
	 --------------------------------------------------------
	   CLASS    FOCC     OCC    AOCC    AVIR     VIR    FVIR
	   PAIRS       0       5       5     505     505       0
	 --------------------------------------------------------

	-----------------------------------------------------------
	 ==================> DF-MP2 Energies <==================== 
	-----------------------------------------------------------
	 Reference Energy          =     -76.0586490581325165 [Eh]
	 Singles Energy            =      -0.0000000000000000 [Eh]
	 Same-Spin Energy          =      -0.0683423778375850 [Eh]
	 Opposite-Spin Energy      =      -0.2156537850588329 [Eh]
	 Correlation Energy        =      -0.2839961628964179 [Eh]
	 Total Energy              =     -76.3426452210289312 [Eh]
	-----------------------------------------------------------
	 ================> DF-SCS-MP2 Energies <================== 
	-----------------------------------------------------------
	 SCS Same-Spin Scale       =       0.3333333333333333 [-]
	 SCS Opposite-Spin Scale   =       1.2000000000000000 [-]
	 SCS Same-Spin Energy      =      -0.0227807926125283 [Eh]
	 SCS Opposite-Spin Energy  =      -0.2587845420705994 [Eh]
	 SCS Correlation Energy    =      -0.2815653346831278 [Eh]
	 SCS Total Energy          =     -76.3402143928156391 [Eh]
	-----------------------------------------------------------


*** tstop() called on ddmfs1 at Mon Jan 22 16:21:58 2024
Module time:
	user time   =      28.71 seconds =       0.48 minutes
	system time =       1.83 seconds =       0.03 minutes
	total time  =          7 seconds =       0.12 minutes
Total time:
	user time   =     120.16 seconds =       2.00 minutes
	system time =       7.46 seconds =       0.12 minutes
	total time  =         13 seconds =       0.22 minutes

    Psi4 stopped on: Monday, 22 January 2024 04:21PM
    Psi4 wall time for execution: 0:00:13.26

*** Psi4 exiting successfully. Buy a developer a beer!
