
    -----------------------------------------------------------------------
          Psi4: An Open-Source Ab Initio Electronic Structure Package
                               Psi4 1.8.2 release

                         Git: Rev {} zzzzzzz 


    D. G. A. Smith, L. A. Burns, A. C. Simmonett, R. M. Parrish,
    M. C. Schieber, R. Galvelis, P. Kraus, H. Kruse, R. Di Remigio,
    A. Alenaizan, A. M. James, S. Lehtola, J. P. Misiewicz, M. Scheurer,
    R. A. Shaw, J. B. Schriber, Y. Xie, Z. L. Glick, D. A. Sirianni,
    J. S. O'Brien, J. M. Waldrop, A. Kumar, E. G. Hohenstein,
    B. P. Pritchard, B. R. Brooks, H. F. Schaefer III, A. Yu. Sokolov,
    K. Patkowski, A. E. DePrince III, U. Bozkaya, R. A. King,
    F. A. Evangelista, J. M. Turney, T. D. Crawford, C. D. Sherrill,
    J. Chem. Phys. 152(18) 184108 (2020). https://doi.org/10.1063/5.0006002

                            Additional Code Authors
    E. T. Seidl, C. L. Janssen, E. F. Valeev, M. L. Leininger,
    J. F. Gonthier, R. M. Richard, H. R. McAlexander, M. Saitow, X. Wang,
    P. Verma, M. H. Lechner, A. Jiang, S. Behnle, A. G. Heide,
    M. F. Herbst, and D. L. Poole

             Previous Authors, Complete List of Code Contributors,
                       and Citations for Specific Modules
    https://github.com/psi4/psi4/blob/master/codemeta.json
    https://github.com/psi4/psi4/graphs/contributors
    http://psicode.org/psi4manual/master/introduction.html#citing-psifour

    -----------------------------------------------------------------------


    Psi4 started on: Monday, 22 January 2024 02:30PM

    Process ID: 67070
    Host:       ddmfs1
    PSIDATADIR: /ddmfs1b/softs/psi4conda/share/psi4
    Memory:     500.0 MiB
    Threads:    20
    
  ==> Input File <==

--------------------------------------------------------------------------
MEMORY 60 GB

molecule dimer {
1 1
Na         0.000000     0.000000     0.000000
Gh(O)     -0.283701     1.578559     1.887976
Gh(H)      0.085980     1.398434     2.801414
Gh(H)      0.312072     2.205050     1.541846
Gh(O)     -1.725746    -1.417014     0.457220
Gh(H)     -2.523655    -1.143003     0.934820
Gh(H)     -1.900792    -2.355054     0.361742
Gh(O)      1.131277    -1.180347     1.903162
Gh(H)      1.903346    -1.656998     2.213950
Gh(H)      0.798789    -0.647920     2.640386
Gh(O)     -0.883525     1.834306    -1.288208
Gh(H)     -0.936557     2.764670    -0.982975
Gh(H)     -0.954930     2.069278    -2.199800

units ang
no_reorient
no_com
symmetry c1
}

set {
basis        aug-cc-pVTZ
scf_type     df
}

energy("mp2")
--------------------------------------------------------------------------

  Memory set to  55.879 GiB by Python driver.

Scratch directory: /ddmfs1a/scratch/
   => Libint2 <=

    Primary   basis highest AM E, G, H:  5, 4, 3
    Auxiliary basis highest AM E, G, H:  6, 5, 4
    Onebody   basis highest AM E, G, H:  6, 5, 4
    Solid Harmonics ordering:            gaussian

*** tstart() called on ddmfs1
*** at Mon Jan 22 14:30:11 2024

   => Loading Basis Set <=

    Name: AUG-CC-PVTZ
    Role: ORBITAL
    Keyword: BASIS
    atoms 1                     entry NA         line   469 file /ddmfs1b/softs/psi4conda/share/psi4/basis/aug-cc-pvtz.gbs 
    atoms 2, 5, 8, 11           entry O          line   331 file /ddmfs1b/softs/psi4conda/share/psi4/basis/aug-cc-pvtz.gbs 
    atoms 3-4, 6-7, 9-10, 12-13 entry H          line    40 file /ddmfs1b/softs/psi4conda/share/psi4/basis/aug-cc-pvtz.gbs 


         ---------------------------------------------------------
                                   SCF
               by Justin Turney, Rob Parrish, Andy Simmonett
                          and Daniel G. A. Smith
                              RHF Reference
                       20 Threads,  57220 MiB Core
         ---------------------------------------------------------

  ==> Geometry <==

    Molecular point group: c1
    Full point group: C1

    Geometry (in Angstrom), charge = 1, multiplicity = 1:

       Center              X                  Y                   Z               Mass       
    ------------   -----------------  -----------------  -----------------  -----------------
         NA           0.000000000000     0.000000000000     0.000000000000    22.989769282000
      Gh(O)          -0.283701000000     1.578559000000     1.887976000000    15.994914619570
      Gh(H)           0.085980000000     1.398434000000     2.801414000000     1.007825032230
      Gh(H)           0.312072000000     2.205050000000     1.541846000000     1.007825032230
      Gh(O)          -1.725746000000    -1.417014000000     0.457220000000    15.994914619570
      Gh(H)          -2.523655000000    -1.143003000000     0.934820000000     1.007825032230
      Gh(H)          -1.900792000000    -2.355054000000     0.361742000000     1.007825032230
      Gh(O)           1.131277000000    -1.180347000000     1.903162000000    15.994914619570
      Gh(H)           1.903346000000    -1.656998000000     2.213950000000     1.007825032230
      Gh(H)           0.798789000000    -0.647920000000     2.640386000000     1.007825032230
      Gh(O)          -0.883525000000     1.834306000000    -1.288208000000    15.994914619570
      Gh(H)          -0.936557000000     2.764670000000    -0.982975000000     1.007825032230
      Gh(H)          -0.954930000000     2.069278000000    -2.199800000000     1.007825032230

  Running in c1 symmetry.

  Rotational constants: A =      0.07704  B =      0.05399  C =      0.04590 [cm^-1]
  Rotational constants: A =   2309.49193  B =   1618.50286  C =   1376.04849 [MHz]
  Nuclear repulsion =    0.000000000000000

  Charge       = 1
  Multiplicity = 1
  Electrons    = 10
  Nalpha       = 5
  Nbeta        = 5

  ==> Algorithm <==

  SCF Algorithm Type is DF.
  DIIS enabled.
  MOM disabled.
  Fractional occupation disabled.
  Guess Type is SAD.
  Energy threshold   = 1.00e-08
  Density threshold  = 1.00e-08
  Integral threshold = 1.00e-12

  ==> Primary Basis <==

  Basis Set: AUG-CC-PVTZ
    Blend: AUG-CC-PVTZ
    Number of shells: 144
    Number of basis functions: 418
    Number of Cartesian functions: 479
    Spherical Harmonics?: true
    Max angular momentum: 3

   => Loading Basis Set <=

    Name: (AUG-CC-PVTZ AUX)
    Role: JKFIT
    Keyword: DF_BASIS_SCF
    atoms 1                     entry NA         line   498 file /ddmfs1b/softs/psi4conda/share/psi4/basis/def2-universal-jkfit.gbs 
    atoms 2, 5, 8, 11           entry O          line   286 file /ddmfs1b/softs/psi4conda/share/psi4/basis/aug-cc-pvtz-jkfit.gbs 
    atoms 3-4, 6-7, 9-10, 12-13 entry H          line    70 file /ddmfs1b/softs/psi4conda/share/psi4/basis/aug-cc-pvtz-jkfit.gbs 

  ==> Integral Setup <==

  DFHelper Memory: AOs need 1.147 GiB; user supplied 41.910 GiB. 
  Using in-core AOs.

  ==> MemDFJK: Density-Fitted J/K Matrices <==

    J tasked:                   Yes
    K tasked:                   Yes
    wK tasked:                   No
    OpenMP threads:              20
    Memory [MiB]:             42915
    Algorithm:                 Core
    Schwarz Cutoff:           1E-12
    Mask sparsity (%):       7.4552
    Fitting Condition:        1E-10

   => Auxiliary Basis Set <=

  Basis Set: (AUG-CC-PVTZ AUX)
    Blend: AUG-CC-PVTZ-JKFIT + DEF2-UNIVERSAL-JKFIT
    Number of shells: 266
    Number of basis functions: 896
    Number of Cartesian functions: 1101
    Spherical Harmonics?: true
    Max angular momentum: 4

  Minimum eigenvalue in the overlap matrix is 4.8733035565E-05.
  Reciprocal condition number of the overlap matrix is 3.8261647162E-06.
    Using symmetric orthogonalization.

  ==> Pre-Iterations <==

  SCF Guess: Superposition of Atomic Densities via on-the-fly atomic UHF (no occupation information).

   -------------------------
    Irrep   Nso     Nmo    
   -------------------------
     A        418     418 
   -------------------------
    Total     418     418
   -------------------------

  ==> Iterations <==

                           Total Energy        Delta E     RMS |[F,P]|

   @DF-RHF iter SAD:  -161.74572518357871   -1.61746e+02   0.00000e+00 
   @DF-RHF iter   1:  -161.67606356400077    6.96616e-02   1.48950e-05 DIIS
   @DF-RHF iter   2:  -161.67608177717113   -1.82132e-05   2.84100e-06 DIIS
   @DF-RHF iter   3:  -161.67608227529652   -4.98125e-07   1.42302e-07 DIIS
   @DF-RHF iter   4:  -161.67608227629520   -9.98682e-10   1.60292e-08 DIIS
   @DF-RHF iter   5:  -161.67608227630819   -1.29887e-11   6.35272e-10 DIIS
  Energy and wave function converged.


  ==> Post-Iterations <==

    Orbital Energies [Eh]
    ---------------------

    Doubly Occupied:                                                      

       1A    -40.760833     2A     -3.073980     3A     -1.797326  
       4A     -1.797307     5A     -1.797254  

    Virtual:                                                              

       6A     -0.181809     7A     -0.109438     8A     -0.109435  
       9A     -0.109430    10A     -0.070067    11A     -0.052316  
      12A     -0.051743    13A     -0.051621    14A     -0.051152  
      15A     -0.050982    16A     -0.049219    17A     -0.049184  
      18A     -0.049114    19A     -0.025768    20A     -0.013827  
      21A     -0.011637    22A     -0.010179    23A     -0.007308  
      24A     -0.007135    25A     -0.004526    26A     -0.002882  
      27A     -0.000888    28A      0.004193    29A      0.009921  
      30A      0.016050    31A      0.024969    32A      0.029348  
      33A      0.031768    34A      0.033339    35A      0.043070  
      36A      0.059803    37A      0.071234    38A      0.076627  
      39A      0.082687    40A      0.087503    41A      0.090721  
      42A      0.093848    43A      0.098831    44A      0.107545  
      45A      0.110806    46A      0.115738    47A      0.123491  
      48A      0.128137    49A      0.133269    50A      0.142224  
      51A      0.145219    52A      0.162851    53A      0.164329  
      54A      0.172873    55A      0.179470    56A      0.192458  
      57A      0.198048    58A      0.207309    59A      0.210595  
      60A      0.213999    61A      0.219000    62A      0.228265  
      63A      0.240118    64A      0.247411    65A      0.248741  
      66A      0.255388    67A      0.264417    68A      0.269431  
      69A      0.275097    70A      0.280227    71A      0.283016  
      72A      0.292335    73A      0.293620    74A      0.298595  
      75A      0.306304    76A      0.311194    77A      0.314319  
      78A      0.317021    79A      0.324103    80A      0.330573  
      81A      0.331666    82A      0.336091    83A      0.344357  
      84A      0.354408    85A      0.368828    86A      0.370341  
      87A      0.378495    88A      0.393212    89A      0.399534  
      90A      0.402694    91A      0.417283    92A      0.425454  
      93A      0.435597    94A      0.440591    95A      0.447764  
      96A      0.459491    97A      0.474723    98A      0.507314  
      99A      0.518143   100A      0.527643   101A      0.533348  
     102A      0.539005   103A      0.558072   104A      0.564029  
     105A      0.572585   106A      0.593454   107A      0.599968  
     108A      0.624080   109A      0.637204   110A      0.646639  
     111A      0.657355   112A      0.670140   113A      0.673435  
     114A      0.681597   115A      0.691554   116A      0.702303  
     117A      0.707809   118A      0.722874   119A      0.731690  
     120A      0.736935   121A      0.742722   122A      0.755549  
     123A      0.758463   124A      0.768697   125A      0.776199  
     126A      0.781803   127A      0.795443   128A      0.804275  
     129A      0.806108   130A      0.816329   131A      0.828053  
     132A      0.842056   133A      0.860936   134A      0.864327  
     135A      0.872941   136A      0.876511   137A      0.888995  
     138A      0.901396   139A      0.908386   140A      0.922330  
     141A      0.931996   142A      0.935752   143A      0.938732  
     144A      0.949574   145A      0.955718   146A      0.958444  
     147A      0.977143   148A      0.980908   149A      0.994538  
     150A      0.999659   151A      1.008760   152A      1.016041  
     153A      1.022655   154A      1.034047   155A      1.044336  
     156A      1.048057   157A      1.050948   158A      1.062052  
     159A      1.072484   160A      1.085815   161A      1.089890  
     162A      1.123073   163A      1.133144   164A      1.135648  
     165A      1.143075   166A      1.146471   167A      1.158991  
     168A      1.168306   169A      1.183626   170A      1.186100  
     171A      1.200471   172A      1.219739   173A      1.232955  
     174A      1.236281   175A      1.255432   176A      1.269721  
     177A      1.280770   178A      1.294775   179A      1.329617  
     180A      1.336686   181A      1.403240   182A      1.420207  
     183A      1.433309   184A      1.445955   185A      1.467860  
     186A      1.490345   187A      1.517318   188A      1.529231  
     189A      1.566483   190A      1.598506   191A      1.621580  
     192A      1.627724   193A      1.641461   194A      1.651441  
     195A      1.659763   196A      1.667547   197A      1.680392  
     198A      1.692115   199A      1.700567   200A      1.719961  
     201A      1.723147   202A      1.732716   203A      1.748434  
     204A      1.770131   205A      1.783972   206A      1.799432  
     207A      1.812500   208A      1.832150   209A      1.874278  
     210A      1.947054   211A      1.959400   212A      1.981249  
     213A      2.033934   214A      2.214161   215A      2.223880  
     216A      2.241795   217A      2.255246   218A      2.297705  
     219A      2.309845   220A      2.323454   221A      2.338085  
     222A      2.343612   223A      2.353015   224A      2.361796  
     225A      2.373110   226A      2.393792   227A      2.403655  
     228A      2.414530   229A      2.421936   230A      2.437968  
     231A      2.464042   232A      2.486473   233A      2.501544  
     234A      2.515481   235A      2.523127   236A      2.530613  
     237A      2.545883   238A      2.554654   239A      2.602658  
     240A      2.614489   241A      2.628415   242A      2.642900  
     243A      2.691908   244A      2.715932   245A      2.733381  
     246A      2.748272   247A      2.789584   248A      2.808657  
     249A      2.839373   250A      2.953682   251A      2.973299  
     252A      3.013621   253A      3.022210   254A      3.042821  
     255A      3.053855   256A      3.068906   257A      3.085262  
     258A      3.116503   259A      3.129134   260A      3.144713  
     261A      3.151941   262A      3.174746   263A      3.185573  
     264A      3.204048   265A      3.209143   266A      3.238966  
     267A      3.253246   268A      3.271827   269A      3.281017  
     270A      3.331478   271A      3.411667   272A      3.437417  
     273A      3.451426   274A      3.473462   275A      3.525746  
     276A      3.528056   277A      3.584918   278A      3.619318  
     279A      4.225862   280A      4.236851   281A      4.252124  
     282A      4.281897   283A      4.316029   284A      4.324830  
     285A      4.327865   286A      4.333238   287A      4.346330  
     288A      4.348887   289A      4.388518   290A      4.410103  
     291A      4.440945   292A      4.459685   293A      4.507821  
     294A      4.521171   295A      4.528463   296A      4.552198  
     297A      4.590335   298A      4.594486   299A      4.610961  
     300A      4.634825   301A      4.652575   302A      4.713780  
     303A      4.740463   304A      4.758912   305A      4.774914  
     306A      4.785881   307A      4.803466   308A      4.820984  
     309A      4.842512   310A      4.858914   311A      4.887100  
     312A      4.892610   313A      4.958907   314A      5.013319  
     315A      5.073795   316A      5.084812   317A      5.116768  
     318A      5.154493   319A      5.342640   320A      5.376063  
     321A      5.397043   322A      5.411002   323A      5.411421  
     324A      5.441603   325A      5.452539   326A      5.515133  
     327A      5.519521   328A      5.536833   329A      5.576194  
     330A      5.584859   331A      5.701939   332A      5.738126  
     333A      5.751768   334A      5.781000   335A      5.938763  
     336A      5.986531   337A      6.012240   338A      6.064031  
     339A      6.132809   340A      6.188079   341A      6.241617  
     342A      6.245651   343A      6.457166   344A      6.479367  
     345A      6.528948   346A      6.602545   347A      6.883284  
     348A      6.914954   349A      6.922704   350A      6.935579  
     351A      7.471758   352A      7.486942   353A      7.535133  
     354A      7.551916   355A      7.626312   356A      7.673735  
     357A      7.695846   358A      7.792699   359A      7.833820  
     360A      7.835134   361A      7.852339   362A      7.884873  
     363A      7.909153   364A      7.924051   365A      7.984972  
     366A      8.041719   367A      8.070299   368A      8.088543  
     369A      8.092120   370A      8.154039   371A      8.479249  
     372A      8.504811   373A      8.559172   374A      8.625056  
     375A      8.660270   376A      8.677439   377A      8.682339  
     378A      8.739555   379A      9.604225   380A      9.657640  
     381A      9.660381   382A      9.673818   383A      9.752475  
     384A      9.766539   385A      9.777727   386A      9.794782  
     387A      9.808079   388A      9.814718   389A      9.845954  
     390A      9.892067   391A     10.029434   392A     10.034584  
     393A     10.051564   394A     10.064806   395A     10.927634  
     396A     10.997052   397A     11.044684   398A     11.074880  
     399A     11.505290   400A     11.511663   401A     11.555006  
     402A     11.677957   403A     11.959779   404A     11.965017  
     405A     12.005990   406A     12.083094   407A     13.350908  
     408A     13.374905   409A     13.408117   410A     13.474696  
     411A     13.600222   412A     13.631528   413A     13.723060  
     414A     13.763217   415A     64.834807   416A     64.880495  
     417A     65.049898   418A     65.178451  

    Final Occupation by Irrep:
              A 
    DOCC [     5 ]
    NA   [     5 ]
    NB   [     5 ]

  @DF-RHF Final Energy:  -161.67608227630819

   => Energetics <=

    Nuclear Repulsion Energy =              0.0000000000000000
    One-Electron Energy =                -224.8987651808185149
    Two-Electron Energy =                  63.2226829045103216
    Total Energy =                       -161.6760822763081933

Computation Completed


Properties will be evaluated at   0.000000,   0.000000,   0.000000 [a0]

Properties computed using the SCF density matrix


 Multipole Moments:

 ------------------------------------------------------------------------------------
     Multipole            Electronic (a.u.)      Nuclear  (a.u.)        Total (a.u.)
 ------------------------------------------------------------------------------------

 L = 1.  Multiply by 2.5417464519 to convert [e a0] to [Debye]
 Dipole X            :         -0.0000311            0.0000000           -0.0000311
 Dipole Y            :          0.0001023            0.0000000            0.0001023
 Dipole Z            :          0.0002337            0.0000000            0.0002337
 Magnitude           :                                                    0.0002570

 ------------------------------------------------------------------------------------

*** tstop() called on ddmfs1 at Mon Jan 22 14:30:15 2024
Module time:
	user time   =      58.08 seconds =       0.97 minutes
	system time =       6.30 seconds =       0.10 minutes
	total time  =          4 seconds =       0.07 minutes
Total time:
	user time   =      58.08 seconds =       0.97 minutes
	system time =       6.30 seconds =       0.10 minutes
	total time  =          4 seconds =       0.07 minutes

*** tstart() called on ddmfs1
*** at Mon Jan 22 14:30:15 2024


  //>>>>>>>>>>>>>>>>>>>>>>>>>>>>>>>>>>>//
  //               DFMP2               //
  //<<<<<<<<<<<<<<<<<<<<<<<<<<<<<<<<<<<//

   => Loading Basis Set <=

    Name: (AUG-CC-PVTZ AUX)
    Role: RIFIT
    Keyword: DF_BASIS_MP2
    atoms 1                     entry NA         line   610 file /ddmfs1b/softs/psi4conda/share/psi4/basis/def2-qzvpp-ri.gbs 
    atoms 2, 5, 8, 11           entry O          line   264 file /ddmfs1b/softs/psi4conda/share/psi4/basis/aug-cc-pvtz-ri.gbs 
    atoms 3-4, 6-7, 9-10, 12-13 entry H          line    30 file /ddmfs1b/softs/psi4conda/share/psi4/basis/aug-cc-pvtz-ri.gbs 

	 --------------------------------------------------------
	                          DF-MP2                         
	      2nd-Order Density-Fitted Moller-Plesset Theory     
	              RMP2 Wavefunction,  20 Threads             
	                                                         
	        Rob Parrish, Justin Turney, Andy Simmonett,      
	           Ed Hohenstein, and C. David Sherrill          
	 --------------------------------------------------------

   => Auxiliary Basis Set <=

  Basis Set: (AUG-CC-PVTZ AUX)
    Blend: AUG-CC-PVTZ-RI + DEF2-QZVPP-RI
    Number of shells: 266
    Number of basis functions: 958
    Number of Cartesian functions: 1198
    Spherical Harmonics?: true
    Max angular momentum: 4

	 --------------------------------------------------------
	                 NBF =   418, NAUX =   958
	 --------------------------------------------------------
	   CLASS    FOCC     OCC    AOCC    AVIR     VIR    FVIR
	   PAIRS       0       5       5     413     413       0
	 --------------------------------------------------------

	-----------------------------------------------------------
	 ==================> DF-MP2 Energies <==================== 
	-----------------------------------------------------------
	 Reference Energy          =    -161.6760822763081933 [Eh]
	 Singles Energy            =      -0.0000000000000000 [Eh]
	 Same-Spin Energy          =      -0.0051171120306458 [Eh]
	 Opposite-Spin Energy      =      -0.0162637491249460 [Eh]
	 Correlation Energy        =      -0.0213808611555919 [Eh]
	 Total Energy              =    -161.6974631374637852 [Eh]
	-----------------------------------------------------------
	 ================> DF-SCS-MP2 Energies <================== 
	-----------------------------------------------------------
	 SCS Same-Spin Scale       =       0.3333333333333333 [-]
	 SCS Opposite-Spin Scale   =       1.2000000000000000 [-]
	 SCS Same-Spin Energy      =      -0.0017057040102153 [Eh]
	 SCS Opposite-Spin Energy  =      -0.0195164989499352 [Eh]
	 SCS Correlation Energy    =      -0.0212222029601505 [Eh]
	 SCS Total Energy          =    -161.6973044792683538 [Eh]
	-----------------------------------------------------------


*** tstop() called on ddmfs1 at Mon Jan 22 14:30:20 2024
Module time:
	user time   =      21.39 seconds =       0.36 minutes
	system time =       1.62 seconds =       0.03 minutes
	total time  =          5 seconds =       0.08 minutes
Total time:
	user time   =      79.49 seconds =       1.32 minutes
	system time =       7.92 seconds =       0.13 minutes
	total time  =          9 seconds =       0.15 minutes

    Psi4 stopped on: Monday, 22 January 2024 02:30PM
    Psi4 wall time for execution: 0:00:09.69

*** Psi4 exiting successfully. Buy a developer a beer!
