
    -----------------------------------------------------------------------
          Psi4: An Open-Source Ab Initio Electronic Structure Package
                               Psi4 1.9 release

                         Git: Rev {} zzzzzzz 


    D. G. A. Smith, L. A. Burns, A. C. Simmonett, R. M. Parrish,
    M. C. Schieber, R. Galvelis, P. Kraus, H. Kruse, R. Di Remigio,
    A. Alenaizan, A. M. James, S. Lehtola, J. P. Misiewicz, M. Scheurer,
    R. A. Shaw, J. B. Schriber, Y. Xie, Z. L. Glick, D. A. Sirianni,
    J. S. O'Brien, J. M. Waldrop, A. Kumar, E. G. Hohenstein,
    B. P. Pritchard, B. R. Brooks, H. F. Schaefer III, A. Yu. Sokolov,
    K. Patkowski, A. E. DePrince III, U. Bozkaya, R. A. King,
    F. A. Evangelista, J. M. Turney, T. D. Crawford, C. D. Sherrill,
    J. Chem. Phys. 152(18) 184108 (2020). https://doi.org/10.1063/5.0006002

                            Additional Code Authors
    E. T. Seidl, C. L. Janssen, E. F. Valeev, M. L. Leininger,
    J. F. Gonthier, R. M. Richard, H. R. McAlexander, M. Saitow, X. Wang,
    P. Verma, M. H. Lechner, A. Jiang, S. Behnle, A. G. Heide,
    M. F. Herbst, and D. L. Poole

             Previous Authors, Complete List of Code Contributors,
                       and Citations for Specific Modules
    https://github.com/psi4/psi4/blob/master/codemeta.json
    https://github.com/psi4/psi4/graphs/contributors
    http://psicode.org/psi4manual/master/introduction.html#citing-psifour

    -----------------------------------------------------------------------


    Psi4 started on: Saturday, 06 January 2024 06:30PM

    Process ID: 551462
    Host:       moses-razer
    PSIDATADIR: /home/kchung25/anaconda3/envs/psi4_19/share/psi4
    Memory:     500.0 MiB
    Threads:    6
    
  ==> Input File <==

--------------------------------------------------------------------------
MEMORY 60 GB

molecule dimer {
1 1
Na     0.000000     0.000000     0.000000
--
0 1
O     -1.169214     0.675061    -1.965345
H     -1.806908    -0.031789    -2.222785
H     -1.605764     1.457733    -2.244370
O     -0.030340    -2.107786    -1.084587
H      0.207561    -2.894411    -0.558114
H      0.618974    -2.140900    -1.742073
O      0.692412     0.310337     2.464985
H     -0.299640     0.237282     2.718297
H      1.167970    -0.408106     2.881909
O     -2.120624    -0.497677     1.271846
H     -2.415073     0.222634     1.817307
H     -2.903605    -0.836519     0.750395
O      0.425403     2.480866     0.024064
H      0.339669     3.168213     0.657297
H     -0.465816     2.494236    -0.380434
O      2.583179    -0.496408    -0.190695
H      2.787887    -0.734051    -1.155683
H      2.934192     0.414483    -0.062159

units ang
no_reorient
no_com
symmetry c1
}

set {
basis        aug-cc-pVTZ
scf_type     df
}

energy("mp2", bsse_type="cp")
--------------------------------------------------------------------------

  Memory set to  55.879 GiB by Python driver.

Scratch directory: /scratch/

  //>>>>>>>>>>>>>>>>>>>>>>>>>>>>>>>>>>>>>//
  // ManyBody Setup: N-Body Levels [1, 2]//
  //<<<<<<<<<<<<<<<<<<<<<<<<<<<<<<<<<<<<<//

        Number of 1-body computations:     2
        Number of 2-body computations:     1

    -----------------------------------------------------------------------
          Psi4: An Open-Source Ab Initio Electronic Structure Package
                               Psi4 1.9 release

                         Git: Rev {} zzzzzzz 


    D. G. A. Smith, L. A. Burns, A. C. Simmonett, R. M. Parrish,
    M. C. Schieber, R. Galvelis, P. Kraus, H. Kruse, R. Di Remigio,
    A. Alenaizan, A. M. James, S. Lehtola, J. P. Misiewicz, M. Scheurer,
    R. A. Shaw, J. B. Schriber, Y. Xie, Z. L. Glick, D. A. Sirianni,
    J. S. O'Brien, J. M. Waldrop, A. Kumar, E. G. Hohenstein,
    B. P. Pritchard, B. R. Brooks, H. F. Schaefer III, A. Yu. Sokolov,
    K. Patkowski, A. E. DePrince III, U. Bozkaya, R. A. King,
    F. A. Evangelista, J. M. Turney, T. D. Crawford, C. D. Sherrill,
    J. Chem. Phys. 152(18) 184108 (2020). https://doi.org/10.1063/5.0006002

                            Additional Code Authors
    E. T. Seidl, C. L. Janssen, E. F. Valeev, M. L. Leininger,
    J. F. Gonthier, R. M. Richard, H. R. McAlexander, M. Saitow, X. Wang,
    P. Verma, M. H. Lechner, A. Jiang, S. Behnle, A. G. Heide,
    M. F. Herbst, and D. L. Poole

             Previous Authors, Complete List of Code Contributors,
                       and Citations for Specific Modules
    https://github.com/psi4/psi4/blob/master/codemeta.json
    https://github.com/psi4/psi4/graphs/contributors
    http://psicode.org/psi4manual/master/introduction.html#citing-psifour

    -----------------------------------------------------------------------


    Psi4 started on: Saturday, 06 January 2024 06:30PM

    Process ID: 551462
    Host:       moses-razer
    PSIDATADIR: /home/kchung25/anaconda3/envs/psi4_19/share/psi4
    Memory:     55.9 GiB
    Threads:    6
    
  ==> Input QCSchema <==

--------------------------------------------------------------------------
{'driver': 'energy',
 'extras': {'psiapi': True, 'wfn_qcvars_only': True},
 'id': None,
 'keywords': {'SCF_TYPE': 'DF', 'function_kwargs': {}},
 'model': {'basis': 'aug-cc-pvtz', 'method': 'mp2'},
 'molecule': {'atom_labels': ['', '', '', '', '', '', '', '', '', '', '', '', '', '', '', '', '', '', ''],
              'atomic_numbers': [11, 8, 1, 1, 8, 1, 1, 8, 1, 1, 8, 1, 1, 8, 1, 1, 8, 1, 1],
              'extras': {},
              'fix_com': True,
              'fix_orientation': True,
              'fix_symmetry': 'c1',
              'fragment_charges': [0.0, 0.0],
              'fragment_multiplicities': [1, 1],
              'fragments': [[0], [1, 2, 3, 4, 5, 6, 7, 8, 9, 10, 11, 12, 13, 14, 15, 16, 17, 18]],
              'geometry': [0.0, 0.0, 0.0, -2.209494242051049, 1.275680407977687, -3.713963792037915, -3.414561253898753,
                           -0.06007250380217889, -4.200454885775779, -3.034454182119664, 2.754716134042016,
                           -4.241244624193786, -0.05733429064639051, -3.9831382710742536, -2.0495723892319293,
                           0.39223344432615226, -5.469644084512518, -1.0546826067837702, 1.1696913387791337,
                           -4.045714661992664, -3.292040860554695, 1.3084690459805057, 0.586451936596206,
                           4.658146553361664, -0.5662375362321836, 0.44839799450088436, 5.1368368576536385,
                           2.2071434227509794, -0.7712085701560925, 5.446018728492044, -4.007398575072881,
                           -0.9404732289394755, 2.403440613759037, -4.5638265429878135, 0.4207172862151781,
                           3.4342125158773893, -5.487018226509978, -1.5807918087418567, 1.418041035912927,
                           0.8038951629481365, 4.68815729396006, 0.045474369483017175, 0.641881383308135,
                           5.987054877115122, 1.242111313085054, -0.8802646648562636, 4.713422932257431,
                           -0.7189160688124234, 4.8815008430340265, -0.9380751664862695, -0.36036132349418054,
                           5.268342898724248, -1.3871553521184443, -2.1839243578474794, 5.544819279509356,
                           0.7832593536581369, -0.11746348623233313],
              'mass_numbers': [23, 16, 1, 1, 16, 1, 1, 16, 1, 1, 16, 1, 1, 16, 1, 1, 16, 1, 1],
              'masses': [22.989769282, 15.99491461957, 1.00782503223, 1.00782503223, 15.99491461957, 1.00782503223,
                         1.00782503223, 15.99491461957, 1.00782503223, 1.00782503223, 15.99491461957, 1.00782503223,
                         1.00782503223, 15.99491461957, 1.00782503223, 1.00782503223, 15.99491461957, 1.00782503223,
                         1.00782503223],
              'molecular_charge': 0.0,
              'molecular_multiplicity': 1,
              'name': 'dimer',
              'provenance': {'creator': 'QCElemental',
                             'routine': 'qcelemental.molparse.from_string',
                             'version': '0.27.1'},
              'real': [False, True, True, True, True, True, True, True, True, True, True, True, True, True, True, True,
                       True, True, True],
              'schema_name': 'qcschema_molecule',
              'schema_version': 2,
              'symbols': ['Na', 'O', 'H', 'H', 'O', 'H', 'H', 'O', 'H', 'H', 'O', 'H', 'H', 'O', 'H', 'H', 'O', 'H',
                          'H'],
              'validated': True},
 'protocols': {'stdout': True},
 'provenance': {'creator': 'QCElemental', 'routine': 'qcelemental.models.results', 'version': '0.27.1'},
 'schema_name': 'qcschema_input',
 'schema_version': 1}
--------------------------------------------------------------------------

Scratch directory: /scratch/
   => Libint2 <=

    Primary   basis highest AM E, G, H:  5, 4, 3
    Auxiliary basis highest AM E, G, H:  6, 5, 4
    Onebody   basis highest AM E, G, H:  6, 5, 4
    Solid Harmonics ordering:            gaussian

*** tstart() called on moses-razer
*** at Sat Jan  6 18:30:30 2024

   => Loading Basis Set <=

    Name: AUG-CC-PVTZ
    Role: ORBITAL
    Keyword: BASIS
    atoms 1                                   entry NA         line   469 file /home/kchung25/anaconda3/envs/p415env/share/psi4/basis/aug-cc-pvtz.gbs 
    atoms 2, 5, 8, 11, 14, 17                 entry O          line   331 file /home/kchung25/anaconda3/envs/p415env/share/psi4/basis/aug-cc-pvtz.gbs 
    atoms 3-4, 6-7, 9-10, 12-13, 15-16, 18-19 entry H          line    40 file /home/kchung25/anaconda3/envs/p415env/share/psi4/basis/aug-cc-pvtz.gbs 


         ---------------------------------------------------------
                                   SCF
               by Justin Turney, Rob Parrish, Andy Simmonett
                          and Daniel G. A. Smith
                              RHF Reference
                        6 Threads,  57220 MiB Core
         ---------------------------------------------------------

  ==> Geometry <==

    Molecular point group: c1
    Full point group: C1

    Geometry (in Bohr), charge = 0, multiplicity = 1:

       Center              X                  Y                   Z               Mass       
    ------------   -----------------  -----------------  -----------------  -----------------
      Gh(NA)          0.000000000000     0.000000000000     0.000000000000    22.989769282000
         O           -2.209494242051     1.275680407978    -3.713963792038    15.994914619570
         H           -3.414561253899    -0.060072503802    -4.200454885776     1.007825032230
         H           -3.034454182120     2.754716134042    -4.241244624194     1.007825032230
         O           -0.057334290646    -3.983138271074    -2.049572389232    15.994914619570
         H            0.392233444326    -5.469644084513    -1.054682606784     1.007825032230
         H            1.169691338779    -4.045714661993    -3.292040860555     1.007825032230
         O            1.308469045981     0.586451936596     4.658146553362    15.994914619570
         H           -0.566237536232     0.448397994501     5.136836857654     1.007825032230
         H            2.207143422751    -0.771208570156     5.446018728492     1.007825032230
         O           -4.007398575073    -0.940473228939     2.403440613759    15.994914619570
         H           -4.563826542988     0.420717286215     3.434212515877     1.007825032230
         H           -5.487018226510    -1.580791808742     1.418041035913     1.007825032230
         O            0.803895162948     4.688157293960     0.045474369483    15.994914619570
         H            0.641881383308     5.987054877115     1.242111313085     1.007825032230
         H           -0.880264664856     4.713422932257    -0.718916068812     1.007825032230
         O            4.881500843034    -0.938075166486    -0.360361323494    15.994914619570
         H            5.268342898724    -1.387155352118    -2.183924357847     1.007825032230
         H            5.544819279509     0.783259353658    -0.117463486232     1.007825032230

  Running in c1 symmetry.

  Rotational constants: A =      0.03793  B =      0.03604  C =      0.03333 [cm^-1]
  Rotational constants: A =   1137.22662  B =   1080.31623  C =    999.34808 [MHz]
  Nuclear repulsion =  261.513051787310133

  Charge       = 0
  Multiplicity = 1
  Electrons    = 60
  Nalpha       = 30
  Nbeta        = 30

  ==> Algorithm <==

  SCF Algorithm Type is DF.
  DIIS enabled.
  MOM disabled.
  Fractional occupation disabled.
  Guess Type is SAD.
  Energy threshold   = 1.00e-08
  Density threshold  = 1.00e-08
  Integral threshold = 1.00e-12

  ==> Primary Basis <==

  Basis Set: AUG-CC-PVTZ
    Blend: AUG-CC-PVTZ
    Number of shells: 208
    Number of basis functions: 602
    Number of Cartesian functions: 689
    Spherical Harmonics?: true
    Max angular momentum: 3

   => Loading Basis Set <=

    Name: (AUG-CC-PVTZ AUX)
    Role: JKFIT
    Keyword: DF_BASIS_SCF
    atoms 1                                   entry NA         line   498 file /home/kchung25/anaconda3/envs/p415env/share/psi4/basis/def2-universal-jkfit.gbs 
    atoms 2, 5, 8, 11, 14, 17                 entry O          line   286 file /home/kchung25/anaconda3/envs/p415env/share/psi4/basis/aug-cc-pvtz-jkfit.gbs 
    atoms 3-4, 6-7, 9-10, 12-13, 15-16, 18-19 entry H          line    70 file /home/kchung25/anaconda3/envs/p415env/share/psi4/basis/aug-cc-pvtz-jkfit.gbs 

  ==> Integral Setup <==

  DFHelper Memory: AOs need 3.234 GiB; user supplied 41.910 GiB. 
  Using in-core AOs.

  ==> MemDFJK: Density-Fitted J/K Matrices <==

    J tasked:                   Yes
    K tasked:                   Yes
    wK tasked:                   No
    OpenMP threads:               6
    Memory [MiB]:             42915
    Algorithm:                 Core
    Schwarz Cutoff:           1E-12
    Mask sparsity (%):       9.9259
    Fitting Condition:        1E-10

   => Auxiliary Basis Set <=

  Basis Set: (AUG-CC-PVTZ AUX)
    Blend: AUG-CC-PVTZ-JKFIT + DEF2-UNIVERSAL-JKFIT
    Number of shells: 382
    Number of basis functions: 1288
    Number of Cartesian functions: 1583
    Spherical Harmonics?: true
    Max angular momentum: 4

  Minimum eigenvalue in the overlap matrix is 2.9490393122E-05.
  Reciprocal condition number of the overlap matrix is 1.9611419781E-06.
    Using symmetric orthogonalization.

  ==> Pre-Iterations <==

  SCF Guess: Superposition of Atomic Densities via on-the-fly atomic UHF (no occupation information).

   -------------------------
    Irrep   Nso     Nmo    
   -------------------------
     A        602     602 
   -------------------------
    Total     602     602
   -------------------------

  ==> Iterations <==

                           Total Energy        Delta E     RMS |[F,P]|

   @DF-RHF iter SAD:  -452.89229233889944   -4.52892e+02   0.00000e+00 
   @DF-RHF iter   1:  -455.79373989212723   -2.90145e+00   1.91891e-03 ADIIS/DIIS
   @DF-RHF iter   2:  -456.11134086923124   -3.17601e-01   1.34908e-03 ADIIS/DIIS
   @DF-RHF iter   3:  -456.32003189600658   -2.08691e-01   9.38526e-05 DIIS
   @DF-RHF iter   4:  -456.32279570266388   -2.76381e-03   2.44069e-05 DIIS
   @DF-RHF iter   5:  -456.32298687105413   -1.91168e-04   7.58903e-06 DIIS
   @DF-RHF iter   6:  -456.32300601038105   -1.91393e-05   3.43114e-06 DIIS
   @DF-RHF iter   7:  -456.32300886798640   -2.85761e-06   7.20838e-07 DIIS
   @DF-RHF iter   8:  -456.32300914458921   -2.76603e-07   1.45391e-07 DIIS
   @DF-RHF iter   9:  -456.32300915411668   -9.52747e-09   5.01895e-08 DIIS
   @DF-RHF iter  10:  -456.32300915473178   -6.15103e-10   1.68118e-08 DIIS
   @DF-RHF iter  11:  -456.32300915480846   -7.66818e-11   4.53732e-09 DIIS
  Energy and wave function converged.


  ==> Post-Iterations <==

    Orbital Energies [Eh]
    ---------------------

    Doubly Occupied:                                                      

       1A    -20.557660     2A    -20.551489     3A    -20.536735  
       4A    -20.535070     5A    -20.533564     6A    -20.528257  
       7A     -1.336685     8A     -1.332874     9A     -1.330440  
      10A     -1.320703    11A     -1.293837    12A     -1.292339  
      13A     -0.707865    14A     -0.697511    15A     -0.684060  
      16A     -0.672658    17A     -0.664881    18A     -0.658967  
      19A     -0.570687    20A     -0.563452    21A     -0.559380  
      22A     -0.556533    23A     -0.537196    24A     -0.526871  
      25A     -0.500459    26A     -0.489461    27A     -0.483064  
      28A     -0.474494    29A     -0.465426    30A     -0.461436  

    Virtual:                                                              

      31A      0.007234    32A      0.016220    33A      0.017969  
      34A      0.019748    35A      0.043489    36A      0.048850  
      37A      0.051313    38A      0.055971    39A      0.057049  
      40A      0.061477    41A      0.062565    42A      0.067589  
      43A      0.068759    44A      0.077297    45A      0.078886  
      46A      0.081395    47A      0.082791    48A      0.088296  
      49A      0.093730    50A      0.097589    51A      0.107319  
      52A      0.112954    53A      0.117364    54A      0.122086  
      55A      0.127430    56A      0.161128    57A      0.164345  
      58A      0.171326    59A      0.180582    60A      0.181569  
      61A      0.184787    62A      0.189652    63A      0.194133  
      64A      0.202099    65A      0.203966    66A      0.210047  
      67A      0.213172    68A      0.218014    69A      0.220697  
      70A      0.225820    71A      0.228463    72A      0.236375  
      73A      0.237941    74A      0.243711    75A      0.248988  
      76A      0.260381    77A      0.264395    78A      0.267520  
      79A      0.273830    80A      0.279682    81A      0.289202  
      82A      0.293521    83A      0.297078    84A      0.313953  
      85A      0.314638    86A      0.320853    87A      0.331809  
      88A      0.337760    89A      0.344604    90A      0.347447  
      91A      0.352815    92A      0.358441    93A      0.367933  
      94A      0.373199    95A      0.374932    96A      0.379484  
      97A      0.390657    98A      0.393730    99A      0.406435  
     100A      0.418098   101A      0.426265   102A      0.427128  
     103A      0.432961   104A      0.444197   105A      0.451016  
     106A      0.453127   107A      0.457116   108A      0.460592  
     109A      0.462187   110A      0.464608   111A      0.470777  
     112A      0.474345   113A      0.480473   114A      0.483620  
     115A      0.487673   116A      0.489586   117A      0.493901  
     118A      0.498399   119A      0.501663   120A      0.506185  
     121A      0.507139   122A      0.509471   123A      0.512819  
     124A      0.519887   125A      0.526352   126A      0.529876  
     127A      0.532989   128A      0.536609   129A      0.542819  
     130A      0.544419   131A      0.548959   132A      0.557284  
     133A      0.564864   134A      0.575195   135A      0.580639  
     136A      0.585970   137A      0.588174   138A      0.594482  
     139A      0.599767   140A      0.611570   141A      0.627602  
     142A      0.635089   143A      0.650340   144A      0.652956  
     145A      0.671480   146A      0.678481   147A      0.697733  
     148A      0.717931   149A      0.731009   150A      0.740760  
     151A      0.745559   152A      0.749113   153A      0.760011  
     154A      0.767850   155A      0.771147   156A      0.787971  
     157A      0.795863   158A      0.800623   159A      0.807866  
     160A      0.820505   161A      0.826406   162A      0.829182  
     163A      0.843017   164A      0.850218   165A      0.866989  
     166A      0.871274   167A      0.880754   168A      0.884720  
     169A      0.887437   170A      0.902064   171A      0.904613  
     172A      0.911166   173A      0.919984   174A      0.924385  
     175A      0.932893   176A      0.940884   177A      0.944290  
     178A      0.946713   179A      0.955682   180A      0.961182  
     181A      0.966460   182A      0.969089   183A      0.972521  
     184A      0.984143   185A      0.988035   186A      0.991795  
     187A      1.002267   188A      1.007346   189A      1.010379  
     190A      1.016360   191A      1.021056   192A      1.023007  
     193A      1.029164   194A      1.029583   195A      1.046785  
     196A      1.051735   197A      1.053487   198A      1.059220  
     199A      1.062588   200A      1.067687   201A      1.077875  
     202A      1.080090   203A      1.087927   204A      1.093856  
     205A      1.101766   206A      1.102243   207A      1.111943  
     208A      1.115390   209A      1.118096   210A      1.126646  
     211A      1.128730   212A      1.134803   213A      1.141994  
     214A      1.150666   215A      1.156087   216A      1.160558  
     217A      1.167877   218A      1.176617   219A      1.179535  
     220A      1.190159   221A      1.202257   222A      1.202886  
     223A      1.207404   224A      1.215101   225A      1.223474  
     226A      1.233736   227A      1.237009   228A      1.242697  
     229A      1.254192   230A      1.260828   231A      1.262503  
     232A      1.266128   233A      1.277815   234A      1.281107  
     235A      1.294841   236A      1.301741   237A      1.310171  
     238A      1.315629   239A      1.323544   240A      1.328136  
     241A      1.339920   242A      1.348153   243A      1.355225  
     244A      1.358827   245A      1.369882   246A      1.375403  
     247A      1.387150   248A      1.392392   249A      1.403681  
     250A      1.409588   251A      1.421774   252A      1.428387  
     253A      1.451731   254A      1.454911   255A      1.468611  
     256A      1.480150   257A      1.490776   258A      1.491432  
     259A      1.518060   260A      1.524183   261A      1.540373  
     262A      1.549274   263A      1.564631   264A      1.567281  
     265A      1.579517   266A      1.583937   267A      1.585235  
     268A      1.604457   269A      1.611322   270A      1.639843  
     271A      1.646530   272A      1.652536   273A      1.655228  
     274A      1.669456   275A      1.690010   276A      1.700708  
     277A      1.704690   278A      1.727404   279A      1.733477  
     280A      1.744307   281A      1.754234   282A      1.767648  
     283A      1.775748   284A      1.786290   285A      1.797924  
     286A      1.814891   287A      1.821765   288A      1.844711  
     289A      1.847507   290A      1.852505   291A      1.864298  
     292A      1.870117   293A      1.877546   294A      1.890777  
     295A      1.902180   296A      1.918778   297A      1.925594  
     298A      1.932859   299A      1.958084   300A      1.979963  
     301A      1.991568   302A      2.021016   303A      2.030840  
     304A      2.040776   305A      2.045448   306A      2.078885  
     307A      2.090506   308A      2.093632   309A      2.119996  
     310A      2.133987   311A      2.143172   312A      2.150741  
     313A      2.164724   314A      2.201920   315A      2.222311  
     316A      2.226690   317A      2.249555   318A      2.259109  
     319A      2.296916   320A      2.312300   321A      2.339869  
     322A      2.401117   323A      2.405858   324A      2.419089  
     325A      2.431445   326A      2.439867   327A      2.455245  
     328A      2.465815   329A      2.475143   330A      2.489336  
     331A      2.494092   332A      2.497693   333A      2.508779  
     334A      2.527998   335A      2.540796   336A      2.549230  
     337A      2.560083   338A      2.562101   339A      2.575078  
     340A      2.587974   341A      2.596134   342A      2.614415  
     343A      2.618663   344A      2.632693   345A      2.638534  
     346A      2.650758   347A      2.666983   348A      2.669586  
     349A      2.690798   350A      2.697773   351A      2.708756  
     352A      2.722656   353A      2.725853   354A      2.734859  
     355A      2.750285   356A      2.753080   357A      2.774198  
     358A      2.780197   359A      2.788073   360A      2.800238  
     361A      2.808484   362A      2.814576   363A      2.820512  
     364A      2.839652   365A      2.846943   366A      2.860726  
     367A      2.865195   368A      2.866883   369A      2.871085  
     370A      2.890785   371A      2.901572   372A      2.920904  
     373A      2.924190   374A      2.939627   375A      2.950894  
     376A      2.972093   377A      2.976604   378A      2.984966  
     379A      2.994157   380A      3.003244   381A      3.014001  
     382A      3.026220   383A      3.037149   384A      3.039910  
     385A      3.048299   386A      3.058882   387A      3.066829  
     388A      3.091193   389A      3.093310   390A      3.105883  
     391A      3.130120   392A      3.139856   393A      3.196940  
     394A      3.802354   395A      3.815252   396A      3.832972  
     397A      3.845984   398A      3.874431   399A      3.894739  
     400A      3.920785   401A      3.952828   402A      3.960458  
     403A      3.973668   404A      3.986539   405A      4.034529  
     406A      4.134037   407A      4.152249   408A      4.173106  
     409A      4.187595   410A      4.201154   411A      4.214651  
     412A      4.220199   413A      4.256677   414A      4.268848  
     415A      4.279327   416A      4.299067   417A      4.311393  
     418A      4.314679   419A      4.335194   420A      4.338373  
     421A      4.349163   422A      4.360449   423A      4.371554  
     424A      4.383374   425A      4.390340   426A      4.402887  
     427A      4.420512   428A      4.436541   429A      4.443205  
     430A      4.459498   431A      4.468630   432A      4.473549  
     433A      4.480415   434A      4.501689   435A      4.508358  
     436A      4.527621   437A      4.535776   438A      4.542426  
     439A      4.558074   440A      4.563319   441A      4.572888  
     442A      4.575823   443A      4.600967   444A      4.613780  
     445A      4.620585   446A      4.627231   447A      4.633855  
     448A      4.638435   449A      4.645025   450A      4.649575  
     451A      4.661830   452A      4.666508   453A      4.680953  
     454A      4.695788   455A      4.706689   456A      4.711937  
     457A      4.738417   458A      4.758183   459A      4.783890  
     460A      4.806523   461A      4.811181   462A      4.846968  
     463A      4.854200   464A      4.873739   465A      4.895362  
     466A      4.928819   467A      4.938120   468A      4.954340  
     469A      4.988394   470A      5.011535   471A      5.031354  
     472A      5.097068   473A      5.129049   474A      5.141647  
     475A      5.146919   476A      5.165816   477A      5.194141  
     478A      5.213959   479A      5.225290   480A      5.237438  
     481A      5.273188   482A      5.285880   483A      5.297012  
     484A      5.299579   485A      5.304913   486A      5.332181  
     487A      5.349959   488A      5.373737   489A      5.378500  
     490A      5.384950   491A      5.411250   492A      5.445810  
     493A      5.464656   494A      5.487248   495A      5.521888  
     496A      5.536899   497A      5.545729   498A      5.560778  
     499A      5.618180   500A      5.637538   501A      5.695798  
     502A      5.768226   503A      5.789095   504A      5.819398  
     505A      5.832885   506A      5.862648   507A      5.887612  
     508A      6.118816   509A      6.260706   510A      6.278984  
     511A      6.313070   512A      6.384228   513A      6.399886  
     514A      6.427074   515A      6.631101   516A      6.646327  
     517A      6.683859   518A      6.707175   519A      6.711153  
     520A      6.734874   521A      6.796955   522A      6.819408  
     523A      6.824661   524A      6.840218   525A      6.858104  
     526A      6.863628   527A      6.929830   528A      6.946157  
     529A      6.971696   530A      7.024407   531A      7.064013  
     532A      7.090271   533A      7.159986   534A      7.173800  
     535A      7.189011   536A      7.204650   537A      7.218451  
     538A      7.245781   539A      7.290089   540A      7.304389  
     541A      7.309072   542A      7.324389   543A      7.329970  
     544A      7.336013   545A      7.349628   546A      7.351331  
     547A      7.361239   548A      7.378816   549A      7.391588  
     550A      7.399722   551A      7.407081   552A      7.412447  
     553A      7.413527   554A      7.421421   555A      7.427177  
     556A      7.443562   557A      7.449887   558A      7.457049  
     559A      7.466941   560A      7.475243   561A      7.479648  
     562A      7.498527   563A      7.505362   564A      7.509957  
     565A      7.517701   566A      7.531695   567A      7.545018  
     568A      7.566112   569A      7.588424   570A      7.626231  
     571A      7.646139   572A      7.688878   573A      7.707203  
     574A      7.738467   575A      7.795949   576A      7.822001  
     577A      7.827894   578A      7.912734   579A      7.930839  
     580A      7.941902   581A      7.953074   582A      7.971460  
     583A      7.978354   584A      8.006833   585A      8.032915  
     586A      8.045337   587A      8.091338   588A      8.116583  
     589A      8.168960   590A      8.700705   591A      8.722511  
     592A      8.813459   593A      8.915121   594A      8.981016  
     595A      9.019777   596A     15.065417   597A     15.495327  
     598A     15.840648   599A     16.262689   600A     16.502429  
     601A     16.754100   602A     65.015422  

    Final Occupation by Irrep:
              A 
    DOCC [    30 ]
    NA   [    30 ]
    NB   [    30 ]

  @DF-RHF Final Energy:  -456.32300915480846

   => Energetics <=

    Nuclear Repulsion Energy =            261.5130517873101326
    One-Electron Energy =               -1152.8240060593100225
    Two-Electron Energy =                 434.9879451171914297
    Total Energy =                       -456.3230091548084602

Computation Completed


Properties will be evaluated at   0.000000,   0.000000,   0.000000 [a0]

Properties computed using the SCF density matrix


 Multipole Moments:

 ------------------------------------------------------------------------------------
     Multipole            Electronic (a.u.)      Nuclear  (a.u.)        Total (a.u.)
 ------------------------------------------------------------------------------------

 L = 1.  Multiply by 2.5417464519 to convert [e a0] to [Debye]
 Dipole X            :         -4.4530741            3.0348529           -1.4182212
 Dipole Y            :         -7.2230228            7.3018054            0.0787826
 Dipole Z            :         -9.1274635            8.7338058           -0.3936576
 Magnitude           :                                                    1.4739486

 ------------------------------------------------------------------------------------

*** tstop() called on moses-razer at Sat Jan  6 18:30:46 2024
Module time:
	user time   =      82.13 seconds =       1.37 minutes
	system time =       2.97 seconds =       0.05 minutes
	total time  =         16 seconds =       0.27 minutes
Total time:
	user time   =      82.13 seconds =       1.37 minutes
	system time =       2.97 seconds =       0.05 minutes
	total time  =         16 seconds =       0.27 minutes

*** tstart() called on moses-razer
*** at Sat Jan  6 18:30:46 2024


  //>>>>>>>>>>>>>>>>>>>>>>>>>>>>>>>>>>>//
  //               DFMP2               //
  //<<<<<<<<<<<<<<<<<<<<<<<<<<<<<<<<<<<//

   => Loading Basis Set <=

    Name: (AUG-CC-PVTZ AUX)
    Role: RIFIT
    Keyword: DF_BASIS_MP2
    atoms 1                                   entry NA         line   610 file /home/kchung25/anaconda3/envs/p415env/share/psi4/basis/def2-qzvpp-ri.gbs 
    atoms 2, 5, 8, 11, 14, 17                 entry O          line   264 file /home/kchung25/anaconda3/envs/p415env/share/psi4/basis/aug-cc-pvtz-ri.gbs 
    atoms 3-4, 6-7, 9-10, 12-13, 15-16, 18-19 entry H          line    30 file /home/kchung25/anaconda3/envs/p415env/share/psi4/basis/aug-cc-pvtz-ri.gbs 

	 --------------------------------------------------------
	                          DF-MP2                         
	      2nd-Order Density-Fitted Moller-Plesset Theory     
	              RMP2 Wavefunction,   6 Threads             
	                                                         
	        Rob Parrish, Justin Turney, Andy Simmonett,      
	           Ed Hohenstein, and C. David Sherrill          
	 --------------------------------------------------------

   => Auxiliary Basis Set <=

  Basis Set: (AUG-CC-PVTZ AUX)
    Blend: AUG-CC-PVTZ-RI + DEF2-QZVPP-RI
    Number of shells: 378
    Number of basis functions: 1354
    Number of Cartesian functions: 1690
    Spherical Harmonics?: true
    Max angular momentum: 4

	 --------------------------------------------------------
	                 NBF =   602, NAUX =  1354
	 --------------------------------------------------------
	   CLASS    FOCC     OCC    AOCC    AVIR     VIR    FVIR
	   PAIRS       0      30      30     572     572       0
	 --------------------------------------------------------

	-----------------------------------------------------------
	 ==================> DF-MP2 Energies <==================== 
	-----------------------------------------------------------
	 Reference Energy          =    -456.3230091548084602 [Eh]
	 Singles Energy            =      -0.0000000000000000 [Eh]
	 Same-Spin Energy          =      -0.4164187073774949 [Eh]
	 Opposite-Spin Energy      =      -1.3058322965970526 [Eh]
	 Correlation Energy        =      -1.7222510039745473 [Eh]
	 Total Energy              =    -458.0452601587829804 [Eh]
	-----------------------------------------------------------
	 ================> DF-SCS-MP2 Energies <================== 
	-----------------------------------------------------------
	 SCS Same-Spin Scale       =       0.3333333333333333 [-]
	 SCS Opposite-Spin Scale   =       1.2000000000000000 [-]
	 SCS Same-Spin Energy      =      -0.1388062357924983 [Eh]
	 SCS Opposite-Spin Energy  =      -1.5669987559164631 [Eh]
	 SCS Correlation Energy    =      -1.7058049917089613 [Eh]
	 SCS Total Energy          =    -458.0288141465174476 [Eh]
	-----------------------------------------------------------


*** tstop() called on moses-razer at Sat Jan  6 18:30:54 2024
Module time:
	user time   =      35.27 seconds =       0.59 minutes
	system time =       1.87 seconds =       0.03 minutes
	total time  =          8 seconds =       0.13 minutes
Total time:
	user time   =     117.41 seconds =       1.96 minutes
	system time =       4.84 seconds =       0.08 minutes
	total time  =         24 seconds =       0.40 minutes

    Psi4 stopped on: Saturday, 06 January 2024 06:30PM
    Psi4 wall time for execution: 0:00:24.29


    -----------------------------------------------------------------------
          Psi4: An Open-Source Ab Initio Electronic Structure Package
                               Psi4 1.9 release

                         Git: Rev {} zzzzzzz 


    D. G. A. Smith, L. A. Burns, A. C. Simmonett, R. M. Parrish,
    M. C. Schieber, R. Galvelis, P. Kraus, H. Kruse, R. Di Remigio,
    A. Alenaizan, A. M. James, S. Lehtola, J. P. Misiewicz, M. Scheurer,
    R. A. Shaw, J. B. Schriber, Y. Xie, Z. L. Glick, D. A. Sirianni,
    J. S. O'Brien, J. M. Waldrop, A. Kumar, E. G. Hohenstein,
    B. P. Pritchard, B. R. Brooks, H. F. Schaefer III, A. Yu. Sokolov,
    K. Patkowski, A. E. DePrince III, U. Bozkaya, R. A. King,
    F. A. Evangelista, J. M. Turney, T. D. Crawford, C. D. Sherrill,
    J. Chem. Phys. 152(18) 184108 (2020). https://doi.org/10.1063/5.0006002

                            Additional Code Authors
    E. T. Seidl, C. L. Janssen, E. F. Valeev, M. L. Leininger,
    J. F. Gonthier, R. M. Richard, H. R. McAlexander, M. Saitow, X. Wang,
    P. Verma, M. H. Lechner, A. Jiang, S. Behnle, A. G. Heide,
    M. F. Herbst, and D. L. Poole

             Previous Authors, Complete List of Code Contributors,
                       and Citations for Specific Modules
    https://github.com/psi4/psi4/blob/master/codemeta.json
    https://github.com/psi4/psi4/graphs/contributors
    http://psicode.org/psi4manual/master/introduction.html#citing-psifour

    -----------------------------------------------------------------------


    Psi4 started on: Saturday, 06 January 2024 06:30PM

    Process ID: 551462
    Host:       moses-razer
    PSIDATADIR: /home/kchung25/anaconda3/envs/psi4_19/share/psi4
    Memory:     55.9 GiB
    Threads:    6
    
  ==> Input QCSchema <==

--------------------------------------------------------------------------
{'driver': 'energy',
 'extras': {'psiapi': True, 'wfn_qcvars_only': True},
 'id': None,
 'keywords': {'SCF_TYPE': 'DF', 'function_kwargs': {}},
 'model': {'basis': 'aug-cc-pvtz', 'method': 'mp2'},
 'molecule': {'atom_labels': ['', '', '', '', '', '', '', '', '', '', '', '', '', '', '', '', '', '', ''],
              'atomic_numbers': [11, 8, 1, 1, 8, 1, 1, 8, 1, 1, 8, 1, 1, 8, 1, 1, 8, 1, 1],
              'extras': {},
              'fix_com': True,
              'fix_orientation': True,
              'fix_symmetry': 'c1',
              'fragment_charges': [1.0, 0.0],
              'fragment_multiplicities': [1, 1],
              'fragments': [[0], [1, 2, 3, 4, 5, 6, 7, 8, 9, 10, 11, 12, 13, 14, 15, 16, 17, 18]],
              'geometry': [0.0, 0.0, 0.0, -2.209494242051049, 1.275680407977687, -3.713963792037915, -3.414561253898753,
                           -0.06007250380217889, -4.200454885775779, -3.034454182119664, 2.754716134042016,
                           -4.241244624193786, -0.05733429064639051, -3.9831382710742536, -2.0495723892319293,
                           0.39223344432615226, -5.469644084512518, -1.0546826067837702, 1.1696913387791337,
                           -4.045714661992664, -3.292040860554695, 1.3084690459805057, 0.586451936596206,
                           4.658146553361664, -0.5662375362321836, 0.44839799450088436, 5.1368368576536385,
                           2.2071434227509794, -0.7712085701560925, 5.446018728492044, -4.007398575072881,
                           -0.9404732289394755, 2.403440613759037, -4.5638265429878135, 0.4207172862151781,
                           3.4342125158773893, -5.487018226509978, -1.5807918087418567, 1.418041035912927,
                           0.8038951629481365, 4.68815729396006, 0.045474369483017175, 0.641881383308135,
                           5.987054877115122, 1.242111313085054, -0.8802646648562636, 4.713422932257431,
                           -0.7189160688124234, 4.8815008430340265, -0.9380751664862695, -0.36036132349418054,
                           5.268342898724248, -1.3871553521184443, -2.1839243578474794, 5.544819279509356,
                           0.7832593536581369, -0.11746348623233313],
              'mass_numbers': [23, 16, 1, 1, 16, 1, 1, 16, 1, 1, 16, 1, 1, 16, 1, 1, 16, 1, 1],
              'masses': [22.989769282, 15.99491461957, 1.00782503223, 1.00782503223, 15.99491461957, 1.00782503223,
                         1.00782503223, 15.99491461957, 1.00782503223, 1.00782503223, 15.99491461957, 1.00782503223,
                         1.00782503223, 15.99491461957, 1.00782503223, 1.00782503223, 15.99491461957, 1.00782503223,
                         1.00782503223],
              'molecular_charge': 1.0,
              'molecular_multiplicity': 1,
              'name': 'dimer',
              'provenance': {'creator': 'QCElemental',
                             'routine': 'qcelemental.molparse.from_string',
                             'version': '0.27.1'},
              'real': [True, False, False, False, False, False, False, False, False, False, False, False, False, False,
                       False, False, False, False, False],
              'schema_name': 'qcschema_molecule',
              'schema_version': 2,
              'symbols': ['Na', 'O', 'H', 'H', 'O', 'H', 'H', 'O', 'H', 'H', 'O', 'H', 'H', 'O', 'H', 'H', 'O', 'H',
                          'H'],
              'validated': True},
 'protocols': {'stdout': True},
 'provenance': {'creator': 'QCElemental', 'routine': 'qcelemental.models.results', 'version': '0.27.1'},
 'schema_name': 'qcschema_input',
 'schema_version': 1}
--------------------------------------------------------------------------

Scratch directory: /scratch/
   => Libint2 <=

    Primary   basis highest AM E, G, H:  5, 4, 3
    Auxiliary basis highest AM E, G, H:  6, 5, 4
    Onebody   basis highest AM E, G, H:  6, 5, 4
    Solid Harmonics ordering:            gaussian

*** tstart() called on moses-razer
*** at Sat Jan  6 18:30:54 2024

   => Loading Basis Set <=

    Name: AUG-CC-PVTZ
    Role: ORBITAL
    Keyword: BASIS
    atoms 1                                   entry NA         line   469 file /home/kchung25/anaconda3/envs/p415env/share/psi4/basis/aug-cc-pvtz.gbs 
    atoms 2, 5, 8, 11, 14, 17                 entry O          line   331 file /home/kchung25/anaconda3/envs/p415env/share/psi4/basis/aug-cc-pvtz.gbs 
    atoms 3-4, 6-7, 9-10, 12-13, 15-16, 18-19 entry H          line    40 file /home/kchung25/anaconda3/envs/p415env/share/psi4/basis/aug-cc-pvtz.gbs 


         ---------------------------------------------------------
                                   SCF
               by Justin Turney, Rob Parrish, Andy Simmonett
                          and Daniel G. A. Smith
                              RHF Reference
                        6 Threads,  57220 MiB Core
         ---------------------------------------------------------

  ==> Geometry <==

    Molecular point group: c1
    Full point group: C1

    Geometry (in Bohr), charge = 1, multiplicity = 1:

       Center              X                  Y                   Z               Mass       
    ------------   -----------------  -----------------  -----------------  -----------------
         NA           0.000000000000     0.000000000000     0.000000000000    22.989769282000
      Gh(O)          -2.209494242051     1.275680407978    -3.713963792038    15.994914619570
      Gh(H)          -3.414561253899    -0.060072503802    -4.200454885776     1.007825032230
      Gh(H)          -3.034454182120     2.754716134042    -4.241244624194     1.007825032230
      Gh(O)          -0.057334290646    -3.983138271074    -2.049572389232    15.994914619570
      Gh(H)           0.392233444326    -5.469644084513    -1.054682606784     1.007825032230
      Gh(H)           1.169691338779    -4.045714661993    -3.292040860555     1.007825032230
      Gh(O)           1.308469045981     0.586451936596     4.658146553362    15.994914619570
      Gh(H)          -0.566237536232     0.448397994501     5.136836857654     1.007825032230
      Gh(H)           2.207143422751    -0.771208570156     5.446018728492     1.007825032230
      Gh(O)          -4.007398575073    -0.940473228939     2.403440613759    15.994914619570
      Gh(H)          -4.563826542988     0.420717286215     3.434212515877     1.007825032230
      Gh(H)          -5.487018226510    -1.580791808742     1.418041035913     1.007825032230
      Gh(O)           0.803895162948     4.688157293960     0.045474369483    15.994914619570
      Gh(H)           0.641881383308     5.987054877115     1.242111313085     1.007825032230
      Gh(H)          -0.880264664856     4.713422932257    -0.718916068812     1.007825032230
      Gh(O)           4.881500843034    -0.938075166486    -0.360361323494    15.994914619570
      Gh(H)           5.268342898724    -1.387155352118    -2.183924357847     1.007825032230
      Gh(H)           5.544819279509     0.783259353658    -0.117463486232     1.007825032230

  Running in c1 symmetry.

  Rotational constants: A =      0.03793  B =      0.03604  C =      0.03333 [cm^-1]
  Rotational constants: A =   1137.22662  B =   1080.31623  C =    999.34808 [MHz]
  Nuclear repulsion =    0.000000000000000

  Charge       = 1
  Multiplicity = 1
  Electrons    = 10
  Nalpha       = 5
  Nbeta        = 5

  ==> Algorithm <==

  SCF Algorithm Type is DF.
  DIIS enabled.
  MOM disabled.
  Fractional occupation disabled.
  Guess Type is SAD.
  Energy threshold   = 1.00e-08
  Density threshold  = 1.00e-08
  Integral threshold = 1.00e-12

  ==> Primary Basis <==

  Basis Set: AUG-CC-PVTZ
    Blend: AUG-CC-PVTZ
    Number of shells: 208
    Number of basis functions: 602
    Number of Cartesian functions: 689
    Spherical Harmonics?: true
    Max angular momentum: 3

   => Loading Basis Set <=

    Name: (AUG-CC-PVTZ AUX)
    Role: JKFIT
    Keyword: DF_BASIS_SCF
    atoms 1                                   entry NA         line   498 file /home/kchung25/anaconda3/envs/p415env/share/psi4/basis/def2-universal-jkfit.gbs 
    atoms 2, 5, 8, 11, 14, 17                 entry O          line   286 file /home/kchung25/anaconda3/envs/p415env/share/psi4/basis/aug-cc-pvtz-jkfit.gbs 
    atoms 3-4, 6-7, 9-10, 12-13, 15-16, 18-19 entry H          line    70 file /home/kchung25/anaconda3/envs/p415env/share/psi4/basis/aug-cc-pvtz-jkfit.gbs 

  ==> Integral Setup <==

  DFHelper Memory: AOs need 3.234 GiB; user supplied 41.910 GiB. 
  Using in-core AOs.

  ==> MemDFJK: Density-Fitted J/K Matrices <==

    J tasked:                   Yes
    K tasked:                   Yes
    wK tasked:                   No
    OpenMP threads:               6
    Memory [MiB]:             42915
    Algorithm:                 Core
    Schwarz Cutoff:           1E-12
    Mask sparsity (%):       9.9259
    Fitting Condition:        1E-10

   => Auxiliary Basis Set <=

  Basis Set: (AUG-CC-PVTZ AUX)
    Blend: AUG-CC-PVTZ-JKFIT + DEF2-UNIVERSAL-JKFIT
    Number of shells: 382
    Number of basis functions: 1288
    Number of Cartesian functions: 1583
    Spherical Harmonics?: true
    Max angular momentum: 4

  Minimum eigenvalue in the overlap matrix is 2.9490393122E-05.
  Reciprocal condition number of the overlap matrix is 1.9611419781E-06.
    Using symmetric orthogonalization.

  ==> Pre-Iterations <==

  SCF Guess: Superposition of Atomic Densities via on-the-fly atomic UHF (no occupation information).

   -------------------------
    Irrep   Nso     Nmo    
   -------------------------
     A        602     602 
   -------------------------
    Total     602     602
   -------------------------

  ==> Iterations <==

                           Total Energy        Delta E     RMS |[F,P]|

   @DF-RHF iter SAD:  -161.74573620881412   -1.61746e+02   0.00000e+00 
   @DF-RHF iter   1:  -161.67607516461757    6.96610e-02   1.06619e-05 DIIS
   @DF-RHF iter   2:  -161.67609369546662   -1.85308e-05   1.98227e-06 DIIS
   @DF-RHF iter   3:  -161.67609420396198   -5.08495e-07   1.01326e-07 DIIS
   @DF-RHF iter   4:  -161.67609420496311   -1.00113e-09   1.33236e-08 DIIS
   @DF-RHF iter   5:  -161.67609420498036   -1.72520e-11   5.14997e-10 DIIS
  Energy and wave function converged.


  ==> Post-Iterations <==

    Orbital Energies [Eh]
    ---------------------

    Doubly Occupied:                                                      

       1A    -40.760485     2A     -3.073810     3A     -1.797162  
       4A     -1.797148     5A     -1.797142  

    Virtual:                                                              

       6A     -0.181805     7A     -0.109436     8A     -0.109434  
       9A     -0.109433    10A     -0.070083    11A     -0.052686  
      12A     -0.052622    13A     -0.051771    14A     -0.051602  
      15A     -0.051470    16A     -0.049305    17A     -0.049273  
      18A     -0.049228    19A     -0.027253    20A     -0.014534  
      21A     -0.014436    22A     -0.013530    23A     -0.012023  
      24A     -0.009834    25A     -0.007987    26A     -0.006831  
      27A     -0.005371    28A     -0.003138    29A     -0.000015  
      30A      0.006625    31A      0.008472    32A      0.014961  
      33A      0.021996    34A      0.024553    35A      0.029009  
      36A      0.031597    37A      0.038043    38A      0.043220  
      39A      0.048947    40A      0.063998    41A      0.069014  
      42A      0.070838    43A      0.073998    44A      0.075310  
      45A      0.078817    46A      0.081159    47A      0.091498  
      48A      0.093114    49A      0.100178    50A      0.104198  
      51A      0.105239    52A      0.111162    53A      0.115478  
      54A      0.120645    55A      0.123280    56A      0.129266  
      57A      0.135429    58A      0.138068    59A      0.140754  
      60A      0.147845    61A      0.169944    62A      0.175764  
      63A      0.178382    64A      0.185600    65A      0.194624  
      66A      0.201254    67A      0.203394    68A      0.207601  
      69A      0.210277    70A      0.217618    71A      0.220156  
      72A      0.224846    73A      0.229136    74A      0.231767  
      75A      0.234235    76A      0.242397    77A      0.250581  
      78A      0.256393    79A      0.260699    80A      0.264808  
      81A      0.271069    82A      0.272677    83A      0.280813  
      84A      0.288346    85A      0.293565    86A      0.294426  
      87A      0.300910    88A      0.303439    89A      0.308386  
      90A      0.312630    91A      0.319055    92A      0.322106  
      93A      0.325178    94A      0.327438    95A      0.333382  
      96A      0.337955    97A      0.342217    98A      0.344448  
      99A      0.350236   100A      0.353688   101A      0.355256  
     102A      0.360106   103A      0.364178   104A      0.370004  
     105A      0.374762   106A      0.378750   107A      0.386352  
     108A      0.395130   109A      0.400331   110A      0.407377  
     111A      0.413179   112A      0.419711   113A      0.423997  
     114A      0.434637   115A      0.440169   116A      0.455032  
     117A      0.458335   118A      0.465633   119A      0.477834  
     120A      0.483767   121A      0.492599   122A      0.503634  
     123A      0.511012   124A      0.517305   125A      0.520551  
     126A      0.544909   127A      0.555389   128A      0.562147  
     129A      0.568179   130A      0.573167   131A      0.583061  
     132A      0.592345   133A      0.600660   134A      0.609910  
     135A      0.617575   136A      0.621311   137A      0.630775  
     138A      0.638633   139A      0.644614   140A      0.652616  
     141A      0.671498   142A      0.674035   143A      0.679973  
     144A      0.690850   145A      0.696470   146A      0.700765  
     147A      0.705842   148A      0.711599   149A      0.716587  
     150A      0.723361   151A      0.732200   152A      0.735732  
     153A      0.744455   154A      0.755747   155A      0.758429  
     156A      0.764325   157A      0.774102   158A      0.776747  
     159A      0.790897   160A      0.793385   161A      0.796661  
     162A      0.807276   163A      0.817783   164A      0.828988  
     165A      0.831167   166A      0.840029   167A      0.842844  
     168A      0.849167   169A      0.851923   170A      0.855275  
     171A      0.861512   172A      0.863138   173A      0.868319  
     174A      0.882621   175A      0.883532   176A      0.889348  
     177A      0.900331   178A      0.903154   179A      0.905722  
     180A      0.912651   181A      0.919526   182A      0.924583  
     183A      0.928431   184A      0.936917   185A      0.945850  
     186A      0.953541   187A      0.954983   188A      0.963588  
     189A      0.974761   190A      0.982243   191A      0.992207  
     192A      0.996970   193A      1.002472   194A      1.006877  
     195A      1.014186   196A      1.017944   197A      1.029481  
     198A      1.032797   199A      1.039152   200A      1.045008  
     201A      1.050090   202A      1.059065   203A      1.066153  
     204A      1.072492   205A      1.074234   206A      1.082633  
     207A      1.091748   208A      1.103238   209A      1.110321  
     210A      1.115088   211A      1.117598   212A      1.125018  
     213A      1.129427   214A      1.134109   215A      1.149257  
     216A      1.152862   217A      1.161079   218A      1.164408  
     219A      1.179546   220A      1.188046   221A      1.188971  
     222A      1.196033   223A      1.205220   224A      1.213230  
     225A      1.218624   226A      1.227346   227A      1.236062  
     228A      1.243008   229A      1.247803   230A      1.254641  
     231A      1.269956   232A      1.275316   233A      1.283559  
     234A      1.292866   235A      1.296027   236A      1.309018  
     237A      1.318774   238A      1.336363   239A      1.348672  
     240A      1.364402   241A      1.371722   242A      1.383700  
     243A      1.391880   244A      1.403016   245A      1.415664  
     246A      1.434042   247A      1.446510   248A      1.455805  
     249A      1.469626   250A      1.475005   251A      1.486870  
     252A      1.495673   253A      1.513178   254A      1.532066  
     255A      1.550829   256A      1.561080   257A      1.589242  
     258A      1.594320   259A      1.627884   260A      1.632277  
     261A      1.660133   262A      1.670674   263A      1.674779  
     264A      1.696324   265A      1.704217   266A      1.713081  
     267A      1.720756   268A      1.725085   269A      1.730850  
     270A      1.741088   271A      1.753987   272A      1.759858  
     273A      1.768311   274A      1.771377   275A      1.782999  
     276A      1.787753   277A      1.792039   278A      1.804915  
     279A      1.811683   280A      1.820850   281A      1.825528  
     282A      1.835007   283A      1.846075   284A      1.858386  
     285A      1.865011   286A      1.881632   287A      1.890146  
     288A      1.898140   289A      1.908696   290A      1.931765  
     291A      1.954500   292A      1.978180   293A      1.987703  
     294A      2.012710   295A      2.125630   296A      2.223048  
     297A      2.250299   298A      2.263829   299A      2.279524  
     300A      2.293661   301A      2.302777   302A      2.315171  
     303A      2.337417   304A      2.347293   305A      2.353454  
     306A      2.362331   307A      2.371492   308A      2.403581  
     309A      2.406561   310A      2.427072   311A      2.430214  
     312A      2.436599   313A      2.447171   314A      2.447805  
     315A      2.460822   316A      2.464462   317A      2.473016  
     318A      2.479811   319A      2.495127   320A      2.508456  
     321A      2.522957   322A      2.528989   323A      2.541473  
     324A      2.543960   325A      2.560712   326A      2.575022  
     327A      2.585469   328A      2.589002   329A      2.604567  
     330A      2.622724   331A      2.641736   332A      2.650848  
     333A      2.688915   334A      2.694510   335A      2.709537  
     336A      2.728836   337A      2.734778   338A      2.745482  
     339A      2.761616   340A      2.769274   341A      2.787369  
     342A      2.802244   343A      2.813584   344A      2.822318  
     345A      2.843218   346A      2.870254   347A      2.900831  
     348A      2.919906   349A      2.945579   350A      3.009159  
     351A      3.018550   352A      3.030193   353A      3.042189  
     354A      3.045063   355A      3.053218   356A      3.068102  
     357A      3.068900   358A      3.083921   359A      3.095992  
     360A      3.099718   361A      3.107658   362A      3.134925  
     363A      3.143605   364A      3.151724   365A      3.161583  
     366A      3.185142   367A      3.201187   368A      3.207045  
     369A      3.211878   370A      3.217960   371A      3.228533  
     372A      3.245321   373A      3.247783   374A      3.262988  
     375A      3.274182   376A      3.286232   377A      3.297664  
     378A      3.340411   379A      3.343511   380A      3.424071  
     381A      3.439948   382A      3.454466   383A      3.468173  
     384A      3.499239   385A      3.509470   386A      3.552774  
     387A      3.586736   388A      3.589871   389A      3.616722  
     390A      3.618909   391A      3.654152   392A      3.668401  
     393A      4.244624   394A      4.257341   395A      4.259576  
     396A      4.287625   397A      4.290063   398A      4.309844  
     399A      4.325373   400A      4.357876   401A      4.362331  
     402A      4.378586   403A      4.383973   404A      4.400486  
     405A      4.412067   406A      4.420416   407A      4.426916  
     408A      4.457121   409A      4.461071   410A      4.470109  
     411A      4.477737   412A      4.485018   413A      4.499359  
     414A      4.508360   415A      4.528422   416A      4.544825  
     417A      4.558930   418A      4.574278   419A      4.591554  
     420A      4.601786   421A      4.608128   422A      4.635425  
     423A      4.642457   424A      4.647086   425A      4.671459  
     426A      4.699622   427A      4.719619   428A      4.744371  
     429A      4.781858   430A      4.816039   431A      4.848467  
     432A      4.858659   433A      4.875009   434A      4.884691  
     435A      4.900091   436A      4.905847   437A      4.909368  
     438A      4.920604   439A      4.934031   440A      4.948353  
     441A      4.954247   442A      4.960669   443A      4.975524  
     444A      4.982258   445A      5.003502   446A      5.030346  
     447A      5.049422   448A      5.067845   449A      5.078970  
     450A      5.114879   451A      5.156885   452A      5.226735  
     453A      5.227773   454A      5.258892   455A      5.275212  
     456A      5.328978   457A      5.352257   458A      5.400999  
     459A      5.407463   460A      5.416125   461A      5.429270  
     462A      5.442378   463A      5.470070   464A      5.491572  
     465A      5.519058   466A      5.534991   467A      5.545087  
     468A      5.606236   469A      5.609262   470A      5.628180  
     471A      5.641917   472A      5.661894   473A      5.734208  
     474A      5.763440   475A      5.792902   476A      5.796913  
     477A      6.031353   478A      6.039846   479A      6.053826  
     480A      6.079958   481A      6.098519   482A      6.127773  
     483A      6.160219   484A      6.189783   485A      6.214594  
     486A      6.243011   487A      6.278865   488A      6.292119  
     489A      6.408114   490A      6.454544   491A      6.486409  
     492A      6.526829   493A      6.552700   494A      6.644088  
     495A      6.752736   496A      6.863703   497A      6.908672  
     498A      6.958265   499A      6.972933   500A      7.030311  
     501A      7.500116   502A      7.510847   503A      7.525973  
     504A      7.545934   505A      7.556070   506A      7.557555  
     507A      7.606098   508A      7.630627   509A      7.649272  
     510A      7.689663   511A      7.728017   512A      7.744812  
     513A      7.875676   514A      7.886036   515A      7.892758  
     516A      7.900261   517A      7.917444   518A      7.934442  
     519A      7.944734   520A      7.962472   521A      7.976985  
     522A      7.985771   523A      8.031098   524A      8.054676  
     525A      8.061426   526A      8.083518   527A      8.086214  
     528A      8.114542   529A      8.143097   530A      8.176568  
     531A      8.383566   532A      8.498954   533A      8.505047  
     534A      8.517556   535A      8.567623   536A      8.601296  
     537A      8.606810   538A      8.619711   539A      8.682727  
     540A      8.705891   541A      8.723667   542A      8.777924  
     543A      9.608532   544A      9.660387   545A      9.694743  
     546A      9.704834   547A      9.736306   548A      9.761436  
     549A      9.773726   550A      9.779073   551A      9.791675  
     552A      9.799340   553A      9.803669   554A      9.818355  
     555A      9.837860   556A      9.849452   557A      9.855214  
     558A      9.872585   559A      9.889621   560A      9.897040  
     561A     10.012802   562A     10.015314   563A     10.032200  
     564A     10.038210   565A     10.052924   566A     10.111922  
     567A     10.748244   568A     10.780806   569A     10.907405  
     570A     11.006916   571A     11.059963   572A     11.103135  
     573A     11.561358   574A     11.597914   575A     11.630462  
     576A     11.649669   577A     11.657905   578A     11.681529  
     579A     11.762592   580A     11.867439   581A     11.977562  
     582A     12.103912   583A     12.135541   584A     12.271817  
     585A     13.176227   586A     13.217472   587A     13.347266  
     588A     13.434348   589A     13.501974   590A     13.526895  
     591A     13.725178   592A     13.726099   593A     13.769487  
     594A     13.785277   595A     13.825919   596A     13.866592  
     597A     63.217009   598A     63.997156   599A     64.625009  
     600A     65.454812   601A     65.910225   602A     66.309550  

    Final Occupation by Irrep:
              A 
    DOCC [     5 ]
    NA   [     5 ]
    NB   [     5 ]

  @DF-RHF Final Energy:  -161.67609420498036

   => Energetics <=

    Nuclear Repulsion Energy =              0.0000000000000000
    One-Electron Energy =                -224.9006923506877911
    Two-Electron Energy =                  63.2245981457074393
    Total Energy =                       -161.6760942049803589

Computation Completed


Properties will be evaluated at   0.000000,   0.000000,   0.000000 [a0]

Properties computed using the SCF density matrix


 Multipole Moments:

 ------------------------------------------------------------------------------------
     Multipole            Electronic (a.u.)      Nuclear  (a.u.)        Total (a.u.)
 ------------------------------------------------------------------------------------

 L = 1.  Multiply by 2.5417464519 to convert [e a0] to [Debye]
 Dipole X            :          0.0001088            0.0000000            0.0001088
 Dipole Y            :         -0.0000299            0.0000000           -0.0000299
 Dipole Z            :          0.0000588            0.0000000            0.0000588
 Magnitude           :                                                    0.0001272

 ------------------------------------------------------------------------------------

*** tstop() called on moses-razer at Sat Jan  6 18:31:05 2024
Module time:
	user time   =      51.08 seconds =       0.85 minutes
	system time =       2.43 seconds =       0.04 minutes
	total time  =         11 seconds =       0.18 minutes
Total time:
	user time   =     168.94 seconds =       2.82 minutes
	system time =       7.28 seconds =       0.12 minutes
	total time  =         35 seconds =       0.58 minutes

*** tstart() called on moses-razer
*** at Sat Jan  6 18:31:05 2024


  //>>>>>>>>>>>>>>>>>>>>>>>>>>>>>>>>>>>//
  //               DFMP2               //
  //<<<<<<<<<<<<<<<<<<<<<<<<<<<<<<<<<<<//

   => Loading Basis Set <=

    Name: (AUG-CC-PVTZ AUX)
    Role: RIFIT
    Keyword: DF_BASIS_MP2
    atoms 1                                   entry NA         line   610 file /home/kchung25/anaconda3/envs/p415env/share/psi4/basis/def2-qzvpp-ri.gbs 
    atoms 2, 5, 8, 11, 14, 17                 entry O          line   264 file /home/kchung25/anaconda3/envs/p415env/share/psi4/basis/aug-cc-pvtz-ri.gbs 
    atoms 3-4, 6-7, 9-10, 12-13, 15-16, 18-19 entry H          line    30 file /home/kchung25/anaconda3/envs/p415env/share/psi4/basis/aug-cc-pvtz-ri.gbs 

	 --------------------------------------------------------
	                          DF-MP2                         
	      2nd-Order Density-Fitted Moller-Plesset Theory     
	              RMP2 Wavefunction,   6 Threads             
	                                                         
	        Rob Parrish, Justin Turney, Andy Simmonett,      
	           Ed Hohenstein, and C. David Sherrill          
	 --------------------------------------------------------

   => Auxiliary Basis Set <=

  Basis Set: (AUG-CC-PVTZ AUX)
    Blend: AUG-CC-PVTZ-RI + DEF2-QZVPP-RI
    Number of shells: 378
    Number of basis functions: 1354
    Number of Cartesian functions: 1690
    Spherical Harmonics?: true
    Max angular momentum: 4

	 --------------------------------------------------------
	                 NBF =   602, NAUX =  1354
	 --------------------------------------------------------
	   CLASS    FOCC     OCC    AOCC    AVIR     VIR    FVIR
	   PAIRS       0       5       5     597     597       0
	 --------------------------------------------------------

	-----------------------------------------------------------
	 ==================> DF-MP2 Energies <==================== 
	-----------------------------------------------------------
	 Reference Energy          =    -161.6760942049803589 [Eh]
	 Singles Energy            =      -0.0000000000000000 [Eh]
	 Same-Spin Energy          =      -0.0063490888234606 [Eh]
	 Opposite-Spin Energy      =      -0.0194937765600304 [Eh]
	 Correlation Energy        =      -0.0258428653834910 [Eh]
	 Total Energy              =    -161.7019370703638401 [Eh]
	-----------------------------------------------------------
	 ================> DF-SCS-MP2 Energies <================== 
	-----------------------------------------------------------
	 SCS Same-Spin Scale       =       0.3333333333333333 [-]
	 SCS Opposite-Spin Scale   =       1.2000000000000000 [-]
	 SCS Same-Spin Energy      =      -0.0021163629411535 [Eh]
	 SCS Opposite-Spin Energy  =      -0.0233925318720365 [Eh]
	 SCS Correlation Energy    =      -0.0255088948131900 [Eh]
	 SCS Total Energy          =    -161.7016030997935445 [Eh]
	-----------------------------------------------------------


*** tstop() called on moses-razer at Sat Jan  6 18:31:10 2024
Module time:
	user time   =      18.34 seconds =       0.31 minutes
	system time =       1.24 seconds =       0.02 minutes
	total time  =          5 seconds =       0.08 minutes
Total time:
	user time   =     187.29 seconds =       3.12 minutes
	system time =       8.52 seconds =       0.14 minutes
	total time  =         40 seconds =       0.67 minutes

    Psi4 stopped on: Saturday, 06 January 2024 06:31PM
    Psi4 wall time for execution: 0:00:15.96


    -----------------------------------------------------------------------
          Psi4: An Open-Source Ab Initio Electronic Structure Package
                               Psi4 1.9 release

                         Git: Rev {} zzzzzzz 


    D. G. A. Smith, L. A. Burns, A. C. Simmonett, R. M. Parrish,
    M. C. Schieber, R. Galvelis, P. Kraus, H. Kruse, R. Di Remigio,
    A. Alenaizan, A. M. James, S. Lehtola, J. P. Misiewicz, M. Scheurer,
    R. A. Shaw, J. B. Schriber, Y. Xie, Z. L. Glick, D. A. Sirianni,
    J. S. O'Brien, J. M. Waldrop, A. Kumar, E. G. Hohenstein,
    B. P. Pritchard, B. R. Brooks, H. F. Schaefer III, A. Yu. Sokolov,
    K. Patkowski, A. E. DePrince III, U. Bozkaya, R. A. King,
    F. A. Evangelista, J. M. Turney, T. D. Crawford, C. D. Sherrill,
    J. Chem. Phys. 152(18) 184108 (2020). https://doi.org/10.1063/5.0006002

                            Additional Code Authors
    E. T. Seidl, C. L. Janssen, E. F. Valeev, M. L. Leininger,
    J. F. Gonthier, R. M. Richard, H. R. McAlexander, M. Saitow, X. Wang,
    P. Verma, M. H. Lechner, A. Jiang, S. Behnle, A. G. Heide,
    M. F. Herbst, and D. L. Poole

             Previous Authors, Complete List of Code Contributors,
                       and Citations for Specific Modules
    https://github.com/psi4/psi4/blob/master/codemeta.json
    https://github.com/psi4/psi4/graphs/contributors
    http://psicode.org/psi4manual/master/introduction.html#citing-psifour

    -----------------------------------------------------------------------


    Psi4 started on: Saturday, 06 January 2024 06:30PM

    Process ID: 551462
    Host:       moses-razer
    PSIDATADIR: /home/kchung25/anaconda3/envs/psi4_19/share/psi4
    Memory:     55.9 GiB
    Threads:    6
    
  ==> Input QCSchema <==

--------------------------------------------------------------------------
{'driver': 'energy',
 'extras': {'psiapi': True, 'wfn_qcvars_only': True},
 'id': None,
 'keywords': {'SCF_TYPE': 'DF', 'function_kwargs': {}},
 'model': {'basis': 'aug-cc-pvtz', 'method': 'mp2'},
 'molecule': {'atom_labels': ['', '', '', '', '', '', '', '', '', '', '', '', '', '', '', '', '', '', ''],
              'atomic_numbers': [11, 8, 1, 1, 8, 1, 1, 8, 1, 1, 8, 1, 1, 8, 1, 1, 8, 1, 1],
              'extras': {},
              'fix_com': True,
              'fix_orientation': True,
              'fix_symmetry': 'c1',
              'fragment_charges': [1.0, 0.0],
              'fragment_multiplicities': [1, 1],
              'fragments': [[0], [1, 2, 3, 4, 5, 6, 7, 8, 9, 10, 11, 12, 13, 14, 15, 16, 17, 18]],
              'geometry': [0.0, 0.0, 0.0, -2.209494242051049, 1.275680407977687, -3.713963792037915, -3.414561253898753,
                           -0.06007250380217889, -4.200454885775779, -3.034454182119664, 2.754716134042016,
                           -4.241244624193786, -0.05733429064639051, -3.9831382710742536, -2.0495723892319293,
                           0.39223344432615226, -5.469644084512518, -1.0546826067837702, 1.1696913387791337,
                           -4.045714661992664, -3.292040860554695, 1.3084690459805057, 0.586451936596206,
                           4.658146553361664, -0.5662375362321836, 0.44839799450088436, 5.1368368576536385,
                           2.2071434227509794, -0.7712085701560925, 5.446018728492044, -4.007398575072881,
                           -0.9404732289394755, 2.403440613759037, -4.5638265429878135, 0.4207172862151781,
                           3.4342125158773893, -5.487018226509978, -1.5807918087418567, 1.418041035912927,
                           0.8038951629481365, 4.68815729396006, 0.045474369483017175, 0.641881383308135,
                           5.987054877115122, 1.242111313085054, -0.8802646648562636, 4.713422932257431,
                           -0.7189160688124234, 4.8815008430340265, -0.9380751664862695, -0.36036132349418054,
                           5.268342898724248, -1.3871553521184443, -2.1839243578474794, 5.544819279509356,
                           0.7832593536581369, -0.11746348623233313],
              'mass_numbers': [23, 16, 1, 1, 16, 1, 1, 16, 1, 1, 16, 1, 1, 16, 1, 1, 16, 1, 1],
              'masses': [22.989769282, 15.99491461957, 1.00782503223, 1.00782503223, 15.99491461957, 1.00782503223,
                         1.00782503223, 15.99491461957, 1.00782503223, 1.00782503223, 15.99491461957, 1.00782503223,
                         1.00782503223, 15.99491461957, 1.00782503223, 1.00782503223, 15.99491461957, 1.00782503223,
                         1.00782503223],
              'molecular_charge': 1.0,
              'molecular_multiplicity': 1,
              'name': 'dimer',
              'provenance': {'creator': 'QCElemental',
                             'routine': 'qcelemental.molparse.from_string',
                             'version': '0.27.1'},
              'real': [True, True, True, True, True, True, True, True, True, True, True, True, True, True, True, True,
                       True, True, True],
              'schema_name': 'qcschema_molecule',
              'schema_version': 2,
              'symbols': ['Na', 'O', 'H', 'H', 'O', 'H', 'H', 'O', 'H', 'H', 'O', 'H', 'H', 'O', 'H', 'H', 'O', 'H',
                          'H'],
              'validated': True},
 'protocols': {'stdout': True},
 'provenance': {'creator': 'QCElemental', 'routine': 'qcelemental.models.results', 'version': '0.27.1'},
 'schema_name': 'qcschema_input',
 'schema_version': 1}
--------------------------------------------------------------------------

Scratch directory: /scratch/
   => Libint2 <=

    Primary   basis highest AM E, G, H:  5, 4, 3
    Auxiliary basis highest AM E, G, H:  6, 5, 4
    Onebody   basis highest AM E, G, H:  6, 5, 4
    Solid Harmonics ordering:            gaussian

*** tstart() called on moses-razer
*** at Sat Jan  6 18:31:10 2024

   => Loading Basis Set <=

    Name: AUG-CC-PVTZ
    Role: ORBITAL
    Keyword: BASIS
    atoms 1                                   entry NA         line   469 file /home/kchung25/anaconda3/envs/p415env/share/psi4/basis/aug-cc-pvtz.gbs 
    atoms 2, 5, 8, 11, 14, 17                 entry O          line   331 file /home/kchung25/anaconda3/envs/p415env/share/psi4/basis/aug-cc-pvtz.gbs 
    atoms 3-4, 6-7, 9-10, 12-13, 15-16, 18-19 entry H          line    40 file /home/kchung25/anaconda3/envs/p415env/share/psi4/basis/aug-cc-pvtz.gbs 


         ---------------------------------------------------------
                                   SCF
               by Justin Turney, Rob Parrish, Andy Simmonett
                          and Daniel G. A. Smith
                              RHF Reference
                        6 Threads,  57220 MiB Core
         ---------------------------------------------------------

  ==> Geometry <==

    Molecular point group: c1
    Full point group: C1

    Geometry (in Bohr), charge = 1, multiplicity = 1:

       Center              X                  Y                   Z               Mass       
    ------------   -----------------  -----------------  -----------------  -----------------
         NA           0.000000000000     0.000000000000     0.000000000000    22.989769282000
         O           -2.209494242051     1.275680407978    -3.713963792038    15.994914619570
         H           -3.414561253899    -0.060072503802    -4.200454885776     1.007825032230
         H           -3.034454182120     2.754716134042    -4.241244624194     1.007825032230
         O           -0.057334290646    -3.983138271074    -2.049572389232    15.994914619570
         H            0.392233444326    -5.469644084513    -1.054682606784     1.007825032230
         H            1.169691338779    -4.045714661993    -3.292040860555     1.007825032230
         O            1.308469045981     0.586451936596     4.658146553362    15.994914619570
         H           -0.566237536232     0.448397994501     5.136836857654     1.007825032230
         H            2.207143422751    -0.771208570156     5.446018728492     1.007825032230
         O           -4.007398575073    -0.940473228939     2.403440613759    15.994914619570
         H           -4.563826542988     0.420717286215     3.434212515877     1.007825032230
         H           -5.487018226510    -1.580791808742     1.418041035913     1.007825032230
         O            0.803895162948     4.688157293960     0.045474369483    15.994914619570
         H            0.641881383308     5.987054877115     1.242111313085     1.007825032230
         H           -0.880264664856     4.713422932257    -0.718916068812     1.007825032230
         O            4.881500843034    -0.938075166486    -0.360361323494    15.994914619570
         H            5.268342898724    -1.387155352118    -2.183924357847     1.007825032230
         H            5.544819279509     0.783259353658    -0.117463486232     1.007825032230

  Running in c1 symmetry.

  Rotational constants: A =      0.03793  B =      0.03604  C =      0.03333 [cm^-1]
  Rotational constants: A =   1137.22662  B =   1080.31623  C =    999.34808 [MHz]
  Nuclear repulsion =  396.948289786485361

  Charge       = 1
  Multiplicity = 1
  Electrons    = 70
  Nalpha       = 35
  Nbeta        = 35

  ==> Algorithm <==

  SCF Algorithm Type is DF.
  DIIS enabled.
  MOM disabled.
  Fractional occupation disabled.
  Guess Type is SAD.
  Energy threshold   = 1.00e-08
  Density threshold  = 1.00e-08
  Integral threshold = 1.00e-12

  ==> Primary Basis <==

  Basis Set: AUG-CC-PVTZ
    Blend: AUG-CC-PVTZ
    Number of shells: 208
    Number of basis functions: 602
    Number of Cartesian functions: 689
    Spherical Harmonics?: true
    Max angular momentum: 3

   => Loading Basis Set <=

    Name: (AUG-CC-PVTZ AUX)
    Role: JKFIT
    Keyword: DF_BASIS_SCF
    atoms 1                                   entry NA         line   498 file /home/kchung25/anaconda3/envs/p415env/share/psi4/basis/def2-universal-jkfit.gbs 
    atoms 2, 5, 8, 11, 14, 17                 entry O          line   286 file /home/kchung25/anaconda3/envs/p415env/share/psi4/basis/aug-cc-pvtz-jkfit.gbs 
    atoms 3-4, 6-7, 9-10, 12-13, 15-16, 18-19 entry H          line    70 file /home/kchung25/anaconda3/envs/p415env/share/psi4/basis/aug-cc-pvtz-jkfit.gbs 

  ==> Integral Setup <==

  DFHelper Memory: AOs need 3.234 GiB; user supplied 41.910 GiB. 
  Using in-core AOs.

  ==> MemDFJK: Density-Fitted J/K Matrices <==

    J tasked:                   Yes
    K tasked:                   Yes
    wK tasked:                   No
    OpenMP threads:               6
    Memory [MiB]:             42915
    Algorithm:                 Core
    Schwarz Cutoff:           1E-12
    Mask sparsity (%):       9.9259
    Fitting Condition:        1E-10

   => Auxiliary Basis Set <=

  Basis Set: (AUG-CC-PVTZ AUX)
    Blend: AUG-CC-PVTZ-JKFIT + DEF2-UNIVERSAL-JKFIT
    Number of shells: 382
    Number of basis functions: 1288
    Number of Cartesian functions: 1583
    Spherical Harmonics?: true
    Max angular momentum: 4

  Minimum eigenvalue in the overlap matrix is 2.9490393122E-05.
  Reciprocal condition number of the overlap matrix is 1.9611419781E-06.
    Using symmetric orthogonalization.

  ==> Pre-Iterations <==

  SCF Guess: Superposition of Atomic Densities via on-the-fly atomic UHF (no occupation information).

   -------------------------
    Irrep   Nso     Nmo    
   -------------------------
     A        602     602 
   -------------------------
    Total     602     602
   -------------------------

  ==> Iterations <==

                           Total Energy        Delta E     RMS |[F,P]|

   @DF-RHF iter SAD:  -614.96226031163712   -6.14962e+02   0.00000e+00 
   @DF-RHF iter   1:  -617.63484578333089   -2.67259e+00   1.89883e-03 ADIIS/DIIS
   @DF-RHF iter   2:  -617.95895631622375   -3.24111e-01   1.26924e-03 ADIIS/DIIS
   @DF-RHF iter   3:  -618.13994439217913   -1.80988e-01   9.40895e-05 DIIS
   @DF-RHF iter   4:  -618.14257162261708   -2.62723e-03   2.47032e-05 DIIS
   @DF-RHF iter   5:  -618.14274692071047   -1.75298e-04   7.92496e-06 DIIS
   @DF-RHF iter   6:  -618.14276470694654   -1.77862e-05   3.34264e-06 DIIS
   @DF-RHF iter   7:  -618.14276741329081   -2.70634e-06   6.36972e-07 DIIS
   @DF-RHF iter   8:  -618.14276761651263   -2.03222e-07   1.35154e-07 DIIS
   @DF-RHF iter   9:  -618.14276762345469   -6.94206e-09   5.07726e-08 DIIS
   @DF-RHF iter  10:  -618.14276762401835   -5.63659e-10   1.45743e-08 DIIS
   @DF-RHF iter  11:  -618.14276762407826   -5.99130e-11   3.85323e-09 DIIS
  Energy and wave function converged.


  ==> Post-Iterations <==

    Orbital Energies [Eh]
    ---------------------

    Doubly Occupied:                                                      

       1A    -40.552843     2A    -20.731902     3A    -20.731470  
       4A    -20.719451     5A    -20.710929     6A    -20.705979  
       7A    -20.702439     8A     -2.873666     9A     -1.598700  
      10A     -1.598340    11A     -1.597466    12A     -1.519352  
      13A     -1.515774    14A     -1.509276    15A     -1.500141  
      16A     -1.469077    17A     -1.466464    18A     -0.883207  
      19A     -0.879873    20A     -0.868085    21A     -0.853735  
      22A     -0.840328    23A     -0.830544    24A     -0.766393  
      25A     -0.755720    26A     -0.747309    27A     -0.740702  
      28A     -0.714895    29A     -0.705601    30A     -0.684230  
      31A     -0.673029    32A     -0.672253    33A     -0.657012  
      34A     -0.644774    35A     -0.640844  

    Virtual:                                                              

      36A     -0.093306    37A     -0.073345    38A     -0.068243  
      39A     -0.065525    40A     -0.046590    41A     -0.043628  
      42A     -0.041888    43A     -0.037957    44A     -0.035596  
      45A     -0.032410    46A     -0.029355    47A     -0.024568  
      48A     -0.021746    49A     -0.015137    50A     -0.011013  
      51A     -0.009555    52A     -0.008567    53A     -0.004418  
      54A     -0.001015    55A      0.002082    56A      0.013229  
      57A      0.019541    58A      0.022581    59A      0.025161  
      60A      0.026322    61A      0.043920    62A      0.048590  
      63A      0.055569    64A      0.064012    65A      0.068615  
      66A      0.071356    67A      0.071708    68A      0.074886  
      69A      0.083569    70A      0.089024    71A      0.090808  
      72A      0.099061    73A      0.101392    74A      0.103396  
      75A      0.107027    76A      0.108732    77A      0.119024  
      78A      0.120406    79A      0.125686    80A      0.129458  
      81A      0.131775    82A      0.135979    83A      0.136846  
      84A      0.143537    85A      0.155445    86A      0.158521  
      87A      0.161922    88A      0.167834    89A      0.178343  
      90A      0.182196    91A      0.193535    92A      0.195095  
      93A      0.197932    94A      0.201167    95A      0.203323  
      96A      0.214750    97A      0.216519    98A      0.225273  
      99A      0.232562   100A      0.236126   101A      0.240695  
     102A      0.250738   103A      0.262335   104A      0.272927  
     105A      0.283207   106A      0.291973   107A      0.295606  
     108A      0.301458   109A      0.302063   110A      0.313379  
     111A      0.318646   112A      0.320445   113A      0.321573  
     114A      0.327682   115A      0.331271   116A      0.336461  
     117A      0.337581   118A      0.342949   119A      0.345834  
     120A      0.349428   121A      0.351847   122A      0.357356  
     123A      0.361262   124A      0.362482   125A      0.367830  
     126A      0.369543   127A      0.373368   128A      0.377795  
     129A      0.381724   130A      0.385625   131A      0.389163  
     132A      0.391763   133A      0.395954   134A      0.399368  
     135A      0.402733   136A      0.407175   137A      0.413121  
     138A      0.417753   139A      0.428605   140A      0.434466  
     141A      0.438194   142A      0.440586   143A      0.445082  
     144A      0.451226   145A      0.454954   146A      0.460927  
     147A      0.476907   148A      0.478621   149A      0.499689  
     150A      0.508301   151A      0.518274   152A      0.525772  
     153A      0.545731   154A      0.563636   155A      0.565259  
     156A      0.583446   157A      0.590865   158A      0.599849  
     159A      0.601357   160A      0.610629   161A      0.615041  
     162A      0.620771   163A      0.633006   164A      0.636454  
     165A      0.653748   166A      0.654388   167A      0.658257  
     168A      0.666020   169A      0.682416   170A      0.689260  
     171A      0.697329   172A      0.703727   173A      0.711392  
     174A      0.717625   175A      0.729260   176A      0.729992  
     177A      0.740969   178A      0.749884   179A      0.759270  
     180A      0.768309   181A      0.771292   182A      0.776901  
     183A      0.780903   184A      0.790702   185A      0.794714  
     186A      0.803617   187A      0.807720   188A      0.812883  
     189A      0.817818   190A      0.824146   191A      0.830472  
     192A      0.837034   193A      0.840962   194A      0.854182  
     195A      0.855192   196A      0.858870   197A      0.869370  
     198A      0.871716   199A      0.877627   200A      0.882764  
     201A      0.887050   202A      0.896001   203A      0.897019  
     204A      0.902869   205A      0.908110   206A      0.913019  
     207A      0.916246   208A      0.925307   209A      0.936022  
     210A      0.937563   211A      0.938580   212A      0.950257  
     213A      0.953069   214A      0.957454   215A      0.962351  
     216A      0.969813   217A      0.974341   218A      0.979547  
     219A      0.988932   220A      0.998792   221A      0.999966  
     222A      1.003442   223A      1.018836   224A      1.020892  
     225A      1.024000   226A      1.029961   227A      1.045493  
     228A      1.051776   229A      1.053835   230A      1.060570  
     231A      1.071976   232A      1.074230   233A      1.083459  
     234A      1.095594   235A      1.098663   236A      1.102133  
     237A      1.109986   238A      1.112292   239A      1.124604  
     240A      1.135907   241A      1.138914   242A      1.143313  
     243A      1.151137   244A      1.161050   245A      1.169056  
     246A      1.179174   247A      1.185881   248A      1.186540  
     249A      1.190555   250A      1.204135   251A      1.207870  
     252A      1.219887   253A      1.231063   254A      1.236020  
     255A      1.248064   256A      1.251172   257A      1.267614  
     258A      1.273330   259A      1.280148   260A      1.301544  
     261A      1.306834   262A      1.310542   263A      1.331623  
     264A      1.336305   265A      1.349582   266A      1.357793  
     267A      1.373028   268A      1.380548   269A      1.389781  
     270A      1.395599   271A      1.408420   272A      1.419021  
     273A      1.421132   274A      1.440150   275A      1.459568  
     276A      1.465977   277A      1.474791   278A      1.488513  
     279A      1.502634   280A      1.526193   281A      1.528100  
     282A      1.549259   283A      1.558534   284A      1.566055  
     285A      1.572693   286A      1.583458   287A      1.594319  
     288A      1.598306   289A      1.616482   290A      1.628048  
     291A      1.649785   292A      1.653704   293A      1.672380  
     294A      1.682141   295A      1.683734   296A      1.693058  
     297A      1.698691   298A      1.711560   299A      1.714231  
     300A      1.733270   301A      1.738928   302A      1.766252  
     303A      1.769236   304A      1.788125   305A      1.799457  
     306A      1.808306   307A      1.855287   308A      1.870686  
     309A      1.877489   310A      1.891640   311A      1.907142  
     312A      1.922959   313A      1.939083   314A      1.948549  
     315A      1.957591   316A      1.967484   317A      1.975001  
     318A      1.990361   319A      2.018856   320A      2.045621  
     321A      2.057315   322A      2.077824   323A      2.100393  
     324A      2.123786   325A      2.142442   326A      2.207713  
     327A      2.222059   328A      2.231889   329A      2.243457  
     330A      2.254774   331A      2.264781   332A      2.283222  
     333A      2.286933   334A      2.301480   335A      2.308092  
     336A      2.315095   337A      2.320463   338A      2.343010  
     339A      2.343179   340A      2.357689   341A      2.370616  
     342A      2.375549   343A      2.388252   344A      2.395233  
     345A      2.410944   346A      2.426164   347A      2.432195  
     348A      2.439668   349A      2.450622   350A      2.471709  
     351A      2.484746   352A      2.486612   353A      2.508836  
     354A      2.513287   355A      2.515817   356A      2.530641  
     357A      2.540205   358A      2.552382   359A      2.560695  
     360A      2.564119   361A      2.588244   362A      2.596868  
     363A      2.608784   364A      2.623074   365A      2.625823  
     366A      2.636132   367A      2.637997   368A      2.657092  
     369A      2.665985   370A      2.682685   371A      2.685226  
     372A      2.687121   373A      2.696756   374A      2.709442  
     375A      2.717958   376A      2.732795   377A      2.738096  
     378A      2.751405   379A      2.767007   380A      2.783605  
     381A      2.795906   382A      2.806456   383A      2.807543  
     384A      2.819798   385A      2.825125   386A      2.838741  
     387A      2.840100   388A      2.855098   389A      2.862982  
     390A      2.882001   391A      2.885404   392A      2.900791  
     393A      2.908829   394A      2.925080   395A      2.935218  
     396A      2.942539   397A      3.012484   398A      3.371586  
     399A      3.642180   400A      3.646601   401A      3.666702  
     402A      3.673803   403A      3.703217   404A      3.724466  
     405A      3.751958   406A      3.783820   407A      3.792187  
     408A      3.802669   409A      3.814165   410A      3.863337  
     411A      3.968948   412A      3.990659   413A      4.003128  
     414A      4.019126   415A      4.034325   416A      4.047839  
     417A      4.052106   418A      4.090974   419A      4.098245  
     420A      4.111453   421A      4.127621   422A      4.144101  
     423A      4.148293   424A      4.161387   425A      4.170350  
     426A      4.173800   427A      4.191134   428A      4.205487  
     429A      4.212198   430A      4.226038   431A      4.230160  
     432A      4.249381   433A      4.269532   434A      4.285718  
     435A      4.287895   436A      4.299184   437A      4.301981  
     438A      4.318764   439A      4.332131   440A      4.352170  
     441A      4.364169   442A      4.367973   443A      4.375431  
     444A      4.388158   445A      4.390773   446A      4.401811  
     447A      4.426467   448A      4.431296   449A      4.446238  
     450A      4.446963   451A      4.461944   452A      4.464184  
     453A      4.470871   454A      4.477148   455A      4.477580  
     456A      4.502956   457A      4.512519   458A      4.515233  
     459A      4.528022   460A      4.535889   461A      4.549255  
     462A      4.585066   463A      4.590733   464A      4.619327  
     465A      4.643437   466A      4.648082   467A      4.678656  
     468A      4.688471   469A      4.709093   470A      4.721751  
     471A      4.760628   472A      4.766560   473A      4.784740  
     474A      4.828031   475A      4.838519   476A      4.855377  
     477A      4.930574   478A      4.961074   479A      4.972105  
     480A      4.975346   481A      4.996117   482A      5.022402  
     483A      5.041345   484A      5.051977   485A      5.058550  
     486A      5.099628   487A      5.110322   488A      5.121261  
     489A      5.124806   490A      5.131024   491A      5.160869  
     492A      5.179690   493A      5.200374   494A      5.202910  
     495A      5.211816   496A      5.237765   497A      5.275207  
     498A      5.289518   499A      5.313492   500A      5.354868  
     501A      5.365763   502A      5.374815   503A      5.404580  
     504A      5.441005   505A      5.462908   506A      5.520642  
     507A      5.602077   508A      5.626435   509A      5.658708  
     510A      5.669860   511A      5.694645   512A      5.716026  
     513A      6.110720   514A      6.120032   515A      6.128147  
     516A      6.205170   517A      6.231940   518A      6.247862  
     519A      6.454783   520A      6.468382   521A      6.505602  
     522A      6.530028   523A      6.535324   524A      6.557299  
     525A      6.617795   526A      6.635763   527A      6.648627  
     528A      6.658999   529A      6.675004   530A      6.688638  
     531A      6.752408   532A      6.773480   533A      6.793933  
     534A      6.839032   535A      6.888102   536A      6.903533  
     537A      7.008225   538A      7.015308   539A      7.026287  
     540A      7.043188   541A      7.047098   542A      7.066028  
     543A      7.142003   544A      7.149405   545A      7.152073  
     546A      7.161441   547A      7.166594   548A      7.169909  
     549A      7.182397   550A      7.186513   551A      7.208906  
     552A      7.218641   553A      7.227518   554A      7.229550  
     555A      7.240101   556A      7.242481   557A      7.245775  
     558A      7.252820   559A      7.263947   560A      7.274621  
     561A      7.281475   562A      7.282114   563A      7.291016  
     564A      7.303852   565A      7.321440   566A      7.324055  
     567A      7.324953   568A      7.338214   569A      7.351030  
     570A      7.380008   571A      7.386778   572A      7.411685  
     573A      7.460356   574A      7.484690   575A      7.547831  
     576A      7.560066   577A      7.582550   578A      7.628304  
     579A      7.723633   580A      7.744602   581A      7.758848  
     582A      7.766734   583A      7.789457   584A      7.797671  
     585A      7.830187   586A      7.846802   587A      7.865970  
     588A      7.902634   589A      7.932803   590A      7.968215  
     591A      8.529543   592A      8.548402   593A      8.638928  
     594A      8.731486   595A      8.802986   596A      8.835298  
     597A     14.894781   598A     15.320434   599A     15.665845  
     600A     16.079831   601A     16.324559   602A     16.567744  

    Final Occupation by Irrep:
              A 
    DOCC [    35 ]
    NA   [    35 ]
    NB   [    35 ]

  @DF-RHF Final Energy:  -618.14276762407826

   => Energetics <=

    Nuclear Repulsion Energy =            396.9482897864853612
    One-Electron Energy =               -1640.0585029683670655
    Two-Electron Energy =                 624.9674455578033303
    Total Energy =                       -618.1427676240782603

Computation Completed


Properties will be evaluated at   0.000000,   0.000000,   0.000000 [a0]

Properties computed using the SCF density matrix


 Multipole Moments:

 ------------------------------------------------------------------------------------
     Multipole            Electronic (a.u.)      Nuclear  (a.u.)        Total (a.u.)
 ------------------------------------------------------------------------------------

 L = 1.  Multiply by 2.5417464519 to convert [e a0] to [Debye]
 Dipole X            :         -4.4920072            3.0348529           -1.4571543
 Dipole Y            :         -7.2045699            7.3018054            0.0972354
 Dipole Z            :         -9.1235176            8.7338058           -0.3897118
 Magnitude           :                                                    1.5114988

 ------------------------------------------------------------------------------------

*** tstop() called on moses-razer at Sat Jan  6 18:31:27 2024
Module time:
	user time   =      86.31 seconds =       1.44 minutes
	system time =       3.30 seconds =       0.05 minutes
	total time  =         17 seconds =       0.28 minutes
Total time:
	user time   =     274.01 seconds =       4.57 minutes
	system time =      11.83 seconds =       0.20 minutes
	total time  =         57 seconds =       0.95 minutes

*** tstart() called on moses-razer
*** at Sat Jan  6 18:31:27 2024


  //>>>>>>>>>>>>>>>>>>>>>>>>>>>>>>>>>>>//
  //               DFMP2               //
  //<<<<<<<<<<<<<<<<<<<<<<<<<<<<<<<<<<<//

   => Loading Basis Set <=

    Name: (AUG-CC-PVTZ AUX)
    Role: RIFIT
    Keyword: DF_BASIS_MP2
    atoms 1                                   entry NA         line   610 file /home/kchung25/anaconda3/envs/p415env/share/psi4/basis/def2-qzvpp-ri.gbs 
    atoms 2, 5, 8, 11, 14, 17                 entry O          line   264 file /home/kchung25/anaconda3/envs/p415env/share/psi4/basis/aug-cc-pvtz-ri.gbs 
    atoms 3-4, 6-7, 9-10, 12-13, 15-16, 18-19 entry H          line    30 file /home/kchung25/anaconda3/envs/p415env/share/psi4/basis/aug-cc-pvtz-ri.gbs 

	 --------------------------------------------------------
	                          DF-MP2                         
	      2nd-Order Density-Fitted Moller-Plesset Theory     
	              RMP2 Wavefunction,   6 Threads             
	                                                         
	        Rob Parrish, Justin Turney, Andy Simmonett,      
	           Ed Hohenstein, and C. David Sherrill          
	 --------------------------------------------------------

   => Auxiliary Basis Set <=

  Basis Set: (AUG-CC-PVTZ AUX)
    Blend: AUG-CC-PVTZ-RI + DEF2-QZVPP-RI
    Number of shells: 378
    Number of basis functions: 1354
    Number of Cartesian functions: 1690
    Spherical Harmonics?: true
    Max angular momentum: 4

	 --------------------------------------------------------
	                 NBF =   602, NAUX =  1354
	 --------------------------------------------------------
	   CLASS    FOCC     OCC    AOCC    AVIR     VIR    FVIR
	   PAIRS       0      35      35     567     567       0
	 --------------------------------------------------------

	-----------------------------------------------------------
	 ==================> DF-MP2 Energies <==================== 
	-----------------------------------------------------------
	 Reference Energy          =    -618.1427676240782603 [Eh]
	 Singles Energy            =      -0.0000000000000000 [Eh]
	 Same-Spin Energy          =      -0.4219550908516466 [Eh]
	 Opposite-Spin Energy      =      -1.3198808087305027 [Eh]
	 Correlation Energy        =      -1.7418358995821492 [Eh]
	 Total Energy              =    -619.8846035236604166 [Eh]
	-----------------------------------------------------------
	 ================> DF-SCS-MP2 Energies <================== 
	-----------------------------------------------------------
	 SCS Same-Spin Scale       =       0.3333333333333333 [-]
	 SCS Opposite-Spin Scale   =       1.2000000000000000 [-]
	 SCS Same-Spin Energy      =      -0.1406516969505489 [Eh]
	 SCS Opposite-Spin Energy  =      -1.5838569704766032 [Eh]
	 SCS Correlation Energy    =      -1.7245086674271521 [Eh]
	 SCS Total Energy          =    -619.8672762915053909 [Eh]
	-----------------------------------------------------------


*** tstop() called on moses-razer at Sat Jan  6 18:31:36 2024
Module time:
	user time   =      40.76 seconds =       0.68 minutes
	system time =       1.87 seconds =       0.03 minutes
	total time  =          9 seconds =       0.15 minutes
Total time:
	user time   =     314.77 seconds =       5.25 minutes
	system time =      13.70 seconds =       0.23 minutes
	total time  =         66 seconds =       1.10 minutes

    Psi4 stopped on: Saturday, 06 January 2024 06:31PM
    Psi4 wall time for execution: 0:00:25.96


  //>>>>>>>>>>>>>>>>>>>>>>>>>>>>>>>>>>>//
  //          ManyBody Results         //
  //<<<<<<<<<<<<<<<<<<<<<<<<<<<<<<<<<<<//


   ==> N-Body: Counterpoise Corrected (CP) energies <==

        n-Body     Total Energy            Interaction Energy                          N-body Contribution to Interaction Energy
                   [Eh]                    [Eh]                  [kcal/mol]            [Eh]                  [kcal/mol]
             1  N/A                         0.000000000000        0.000000000000        0.000000000000        0.000000000000
  FULL/RTN   2  N/A                        -0.137406294514      -86.223751563912       -0.137406294514      -86.223751563912


    Psi4 stopped on: Saturday, 06 January 2024 06:31PM
    Psi4 wall time for execution: 0:01:07.90

*** Psi4 exiting successfully. Buy a developer a beer!
