
    -----------------------------------------------------------------------
          Psi4: An Open-Source Ab Initio Electronic Structure Package
                               Psi4 1.8.2 release

                         Git: Rev {} zzzzzzz 


    D. G. A. Smith, L. A. Burns, A. C. Simmonett, R. M. Parrish,
    M. C. Schieber, R. Galvelis, P. Kraus, H. Kruse, R. Di Remigio,
    A. Alenaizan, A. M. James, S. Lehtola, J. P. Misiewicz, M. Scheurer,
    R. A. Shaw, J. B. Schriber, Y. Xie, Z. L. Glick, D. A. Sirianni,
    J. S. O'Brien, J. M. Waldrop, A. Kumar, E. G. Hohenstein,
    B. P. Pritchard, B. R. Brooks, H. F. Schaefer III, A. Yu. Sokolov,
    K. Patkowski, A. E. DePrince III, U. Bozkaya, R. A. King,
    F. A. Evangelista, J. M. Turney, T. D. Crawford, C. D. Sherrill,
    J. Chem. Phys. 152(18) 184108 (2020). https://doi.org/10.1063/5.0006002

                            Additional Code Authors
    E. T. Seidl, C. L. Janssen, E. F. Valeev, M. L. Leininger,
    J. F. Gonthier, R. M. Richard, H. R. McAlexander, M. Saitow, X. Wang,
    P. Verma, M. H. Lechner, A. Jiang, S. Behnle, A. G. Heide,
    M. F. Herbst, and D. L. Poole

             Previous Authors, Complete List of Code Contributors,
                       and Citations for Specific Modules
    https://github.com/psi4/psi4/blob/master/codemeta.json
    https://github.com/psi4/psi4/graphs/contributors
    http://psicode.org/psi4manual/master/introduction.html#citing-psifour

    -----------------------------------------------------------------------


    Psi4 started on: Monday, 22 January 2024 03:16PM

    Process ID: 71533
    Host:       ddmfs1
    PSIDATADIR: /ddmfs1b/softs/psi4conda/share/psi4
    Memory:     500.0 MiB
    Threads:    20
    
  ==> Input File <==

--------------------------------------------------------------------------
MEMORY 60 GB

molecule dimer {
0 1
Gh(Na)     0.000000     0.000000     0.000000
Gh(O)      0.573445     0.522482    -2.425718
Gh(H)      0.565546    -0.283950    -2.909351
Gh(H)     -0.117345     1.111605    -2.808292
O         -1.679400    -0.610316     1.453133
H         -1.385658    -0.169377     2.284592
H         -1.324565    -1.507257     1.282268
Gh(O)      0.799290     2.100325     0.839463
Gh(H)      1.724281     2.237643     0.911781
Gh(H)      0.337870     2.956704     0.693773
Gh(O)      1.544445    -1.816388     0.444477
Gh(H)      2.490067    -1.614678     0.281276
Gh(H)      1.362461    -2.682268     0.137746

units ang
no_reorient
no_com
symmetry c1
}

set {
basis        aug-cc-pVTZ
scf_type     df
}

energy("mp2")
--------------------------------------------------------------------------

  Memory set to  55.879 GiB by Python driver.

Scratch directory: /ddmfs1a/scratch/
   => Libint2 <=

    Primary   basis highest AM E, G, H:  5, 4, 3
    Auxiliary basis highest AM E, G, H:  6, 5, 4
    Onebody   basis highest AM E, G, H:  6, 5, 4
    Solid Harmonics ordering:            gaussian

*** tstart() called on ddmfs1
*** at Mon Jan 22 15:16:55 2024

   => Loading Basis Set <=

    Name: AUG-CC-PVTZ
    Role: ORBITAL
    Keyword: BASIS
    atoms 1                     entry NA         line   469 file /ddmfs1b/softs/psi4conda/share/psi4/basis/aug-cc-pvtz.gbs 
    atoms 2, 5, 8, 11           entry O          line   331 file /ddmfs1b/softs/psi4conda/share/psi4/basis/aug-cc-pvtz.gbs 
    atoms 3-4, 6-7, 9-10, 12-13 entry H          line    40 file /ddmfs1b/softs/psi4conda/share/psi4/basis/aug-cc-pvtz.gbs 


         ---------------------------------------------------------
                                   SCF
               by Justin Turney, Rob Parrish, Andy Simmonett
                          and Daniel G. A. Smith
                              RHF Reference
                       20 Threads,  57220 MiB Core
         ---------------------------------------------------------

  ==> Geometry <==

    Molecular point group: c1
    Full point group: C1

    Geometry (in Angstrom), charge = 0, multiplicity = 1:

       Center              X                  Y                   Z               Mass       
    ------------   -----------------  -----------------  -----------------  -----------------
      Gh(NA)          0.000000000000     0.000000000000     0.000000000000    22.989769282000
      Gh(O)           0.573445000000     0.522482000000    -2.425718000000    15.994914619570
      Gh(H)           0.565546000000    -0.283950000000    -2.909351000000     1.007825032230
      Gh(H)          -0.117345000000     1.111605000000    -2.808292000000     1.007825032230
         O           -1.679400000000    -0.610316000000     1.453133000000    15.994914619570
         H           -1.385658000000    -0.169377000000     2.284592000000     1.007825032230
         H           -1.324565000000    -1.507257000000     1.282268000000     1.007825032230
      Gh(O)           0.799290000000     2.100325000000     0.839463000000    15.994914619570
      Gh(H)           1.724281000000     2.237643000000     0.911781000000     1.007825032230
      Gh(H)           0.337870000000     2.956704000000     0.693773000000     1.007825032230
      Gh(O)           1.544445000000    -1.816388000000     0.444477000000    15.994914619570
      Gh(H)           2.490067000000    -1.614678000000     0.281276000000     1.007825032230
      Gh(H)           1.362461000000    -2.682268000000     0.137746000000     1.007825032230

  Running in c1 symmetry.

  Rotational constants: A =      0.06975  B =      0.05822  C =      0.04773 [cm^-1]
  Rotational constants: A =   2091.10239  B =   1745.49325  C =   1431.00383 [MHz]
  Nuclear repulsion =    8.931821667506147

  Charge       = 0
  Multiplicity = 1
  Electrons    = 10
  Nalpha       = 5
  Nbeta        = 5

  ==> Algorithm <==

  SCF Algorithm Type is DF.
  DIIS enabled.
  MOM disabled.
  Fractional occupation disabled.
  Guess Type is SAD.
  Energy threshold   = 1.00e-08
  Density threshold  = 1.00e-08
  Integral threshold = 1.00e-12

  ==> Primary Basis <==

  Basis Set: AUG-CC-PVTZ
    Blend: AUG-CC-PVTZ
    Number of shells: 144
    Number of basis functions: 418
    Number of Cartesian functions: 479
    Spherical Harmonics?: true
    Max angular momentum: 3

   => Loading Basis Set <=

    Name: (AUG-CC-PVTZ AUX)
    Role: JKFIT
    Keyword: DF_BASIS_SCF
    atoms 1                     entry NA         line   498 file /ddmfs1b/softs/psi4conda/share/psi4/basis/def2-universal-jkfit.gbs 
    atoms 2, 5, 8, 11           entry O          line   286 file /ddmfs1b/softs/psi4conda/share/psi4/basis/aug-cc-pvtz-jkfit.gbs 
    atoms 3-4, 6-7, 9-10, 12-13 entry H          line    70 file /ddmfs1b/softs/psi4conda/share/psi4/basis/aug-cc-pvtz-jkfit.gbs 

  ==> Integral Setup <==

  DFHelper Memory: AOs need 1.135 GiB; user supplied 41.910 GiB. 
  Using in-core AOs.

  ==> MemDFJK: Density-Fitted J/K Matrices <==

    J tasked:                   Yes
    K tasked:                   Yes
    wK tasked:                   No
    OpenMP threads:              20
    Memory [MiB]:             42915
    Algorithm:                 Core
    Schwarz Cutoff:           1E-12
    Mask sparsity (%):       8.4270
    Fitting Condition:        1E-10

   => Auxiliary Basis Set <=

  Basis Set: (AUG-CC-PVTZ AUX)
    Blend: AUG-CC-PVTZ-JKFIT + DEF2-UNIVERSAL-JKFIT
    Number of shells: 266
    Number of basis functions: 896
    Number of Cartesian functions: 1101
    Spherical Harmonics?: true
    Max angular momentum: 4

  Minimum eigenvalue in the overlap matrix is 4.4637662452E-05.
  Reciprocal condition number of the overlap matrix is 3.7645068428E-06.
    Using symmetric orthogonalization.

  ==> Pre-Iterations <==

  SCF Guess: Superposition of Atomic Densities via on-the-fly atomic UHF (no occupation information).

   -------------------------
    Irrep   Nso     Nmo    
   -------------------------
     A        418     418 
   -------------------------
    Total     418     418
   -------------------------

  ==> Iterations <==

                           Total Energy        Delta E     RMS |[F,P]|

   @DF-RHF iter SAD:   -75.43766867033320   -7.54377e+01   0.00000e+00 
   @DF-RHF iter   1:   -75.97019530507004   -5.32527e-01   1.11744e-03 DIIS/ADIIS
   @DF-RHF iter   2:   -76.02143826474008   -5.12430e-02   7.74102e-04 DIIS/ADIIS
   @DF-RHF iter   3:   -76.05396362237867   -3.25254e-02   5.24971e-05 DIIS
   @DF-RHF iter   4:   -76.05439758094263   -4.33959e-04   1.34642e-05 DIIS
   @DF-RHF iter   5:   -76.05442878433048   -3.12034e-05   3.16511e-06 DIIS
   @DF-RHF iter   6:   -76.05443159861652   -2.81429e-06   7.37051e-07 DIIS
   @DF-RHF iter   7:   -76.05443176622555   -1.67609e-07   1.44381e-07 DIIS
   @DF-RHF iter   8:   -76.05443177182224   -5.59669e-09   2.36867e-08 DIIS
   @DF-RHF iter   9:   -76.05443177194444   -1.22199e-10   6.05872e-09 DIIS
  Energy and wave function converged.


  ==> Post-Iterations <==

    Orbital Energies [Eh]
    ---------------------

    Doubly Occupied:                                                      

       1A    -20.565329     2A     -1.332766     3A     -0.724394  
       4A     -0.556951     5A     -0.504317  

    Virtual:                                                              

       6A      0.007281     7A      0.016406     8A      0.016467  
       9A      0.018658    10A      0.038417    11A      0.052011  
      12A      0.052815    13A      0.055477    14A      0.056696  
      15A      0.058790    16A      0.061193    17A      0.062757  
      18A      0.066445    19A      0.080923    20A      0.084593  
      21A      0.088284    22A      0.088858    23A      0.094337  
      24A      0.102293    25A      0.110498    26A      0.117412  
      27A      0.133742    28A      0.135007    29A      0.145570  
      30A      0.151114    31A      0.163778    32A      0.171747  
      33A      0.175350    34A      0.179988    35A      0.187837  
      36A      0.198197    37A      0.205223    38A      0.206985  
      39A      0.211793    40A      0.217184    41A      0.225345  
      42A      0.231454    43A      0.243702    44A      0.249440  
      45A      0.256647    46A      0.275997    47A      0.283166  
      48A      0.284631    49A      0.290389    50A      0.302922  
      51A      0.305628    52A      0.311366    53A      0.320721  
      54A      0.330311    55A      0.334916    56A      0.342353  
      57A      0.344772    58A      0.353151    59A      0.358350  
      60A      0.363806    61A      0.367698    62A      0.376006  
      63A      0.384634    64A      0.390951    65A      0.404798  
      66A      0.408813    67A      0.414861    68A      0.418465  
      69A      0.422826    70A      0.430145    71A      0.438283  
      72A      0.442382    73A      0.445929    74A      0.450775  
      75A      0.455839    76A      0.463143    77A      0.468159  
      78A      0.474875    79A      0.477306    80A      0.483401  
      81A      0.491426    82A      0.498800    83A      0.508638  
      84A      0.512532    85A      0.526156    86A      0.531978  
      87A      0.538162    88A      0.541167    89A      0.561716  
      90A      0.577791    91A      0.600348    92A      0.612893  
      93A      0.639714    94A      0.674410    95A      0.701300  
      96A      0.707463    97A      0.715737    98A      0.728260  
      99A      0.735397   100A      0.739038   101A      0.749112  
     102A      0.766859   103A      0.782225   104A      0.786484  
     105A      0.790044   106A      0.797997   107A      0.812027  
     108A      0.813981   109A      0.823627   110A      0.825901  
     111A      0.842185   112A      0.842978   113A      0.845830  
     114A      0.858281   115A      0.874553   116A      0.877496  
     117A      0.902381   118A      0.909995   119A      0.922748  
     120A      0.925683   121A      0.928070   122A      0.933431  
     123A      0.946889   124A      0.952207   125A      0.953495  
     126A      0.954498   127A      0.973866   128A      0.981717  
     129A      0.992792   130A      0.995348   131A      1.002443  
     132A      1.009307   133A      1.018714   134A      1.032513  
     135A      1.036489   136A      1.043513   137A      1.052023  
     138A      1.055882   139A      1.064754   140A      1.068899  
     141A      1.076652   142A      1.079678   143A      1.092985  
     144A      1.101715   145A      1.106680   146A      1.113854  
     147A      1.123500   148A      1.132495   149A      1.139660  
     150A      1.153457   151A      1.162591   152A      1.170655  
     153A      1.182457   154A      1.188839   155A      1.195297  
     156A      1.208935   157A      1.216800   158A      1.227904  
     159A      1.240888   160A      1.246440   161A      1.259416  
     162A      1.266386   163A      1.279978   164A      1.290289  
     165A      1.291731   166A      1.307220   167A      1.329275  
     168A      1.341051   169A      1.347035   170A      1.354755  
     171A      1.365624   172A      1.376705   173A      1.395519  
     174A      1.401437   175A      1.406386   176A      1.426718  
     177A      1.436621   178A      1.455595   179A      1.471977  
     180A      1.495174   181A      1.518685   182A      1.556323  
     183A      1.587302   184A      1.608841   185A      1.640656  
     186A      1.660397   187A      1.678947   188A      1.708242  
     189A      1.721606   190A      1.735964   191A      1.751355  
     192A      1.792402   193A      1.801058   194A      1.817645  
     195A      1.828642   196A      1.842280   197A      1.850048  
     198A      1.871717   199A      1.900405   200A      1.914105  
     201A      1.923389   202A      1.938262   203A      1.952805  
     204A      1.984212   205A      1.990484   206A      1.999006  
     207A      2.015058   208A      2.035644   209A      2.046978  
     210A      2.054715   211A      2.065414   212A      2.081086  
     213A      2.107387   214A      2.278435   215A      2.363005  
     216A      2.416796   217A      2.444851   218A      2.455404  
     219A      2.471389   220A      2.485099   221A      2.515199  
     222A      2.519910   223A      2.523195   224A      2.545285  
     225A      2.555612   226A      2.570194   227A      2.573238  
     228A      2.581589   229A      2.608874   230A      2.612163  
     231A      2.617957   232A      2.629289   233A      2.648617  
     234A      2.661164   235A      2.685077   236A      2.694357  
     237A      2.713739   238A      2.730259   239A      2.735611  
     240A      2.814700   241A      2.837459   242A      2.855288  
     243A      2.863670   244A      2.884299   245A      2.913766  
     246A      2.938734   247A      2.947251   248A      2.964891  
     249A      2.967575   250A      2.973134   251A      2.994053  
     252A      3.018252   253A      3.076429   254A      3.219563  
     255A      3.223552   256A      3.230899   257A      3.258904  
     258A      3.265110   259A      3.291511   260A      3.314563  
     261A      3.316967   262A      3.320265   263A      3.360539  
     264A      3.364696   265A      3.376615   266A      3.387020  
     267A      3.391807   268A      3.425800   269A      3.574661  
     270A      3.584208   271A      3.615608   272A      3.714850  
     273A      3.721365   274A      3.744730   275A      3.762398  
     276A      3.935883   277A      4.112739   278A      4.267796  
     279A      4.327115   280A      4.359968   281A      4.374026  
     282A      4.386466   283A      4.398424   284A      4.421723  
     285A      4.445441   286A      4.499190   287A      4.511961  
     288A      4.530649   289A      4.551794   290A      4.580617  
     291A      4.584468   292A      4.587956   293A      4.622055  
     294A      4.651754   295A      4.675632   296A      4.677189  
     297A      4.692538   298A      4.701507   299A      4.714618  
     300A      4.715769   301A      4.730107   302A      4.757982  
     303A      4.763014   304A      4.786850   305A      4.814094  
     306A      4.978080   307A      4.990502   308A      4.997986  
     309A      5.012168   310A      5.024020   311A      5.030085  
     312A      5.049829   313A      5.079622   314A      5.091193  
     315A      5.148882   316A      5.167038   317A      5.174629  
     318A      5.209617   319A      5.220114   320A      5.284528  
     321A      5.418211   322A      5.443578   323A      5.500375  
     324A      5.518648   325A      5.531943   326A      5.570669  
     327A      5.580281   328A      5.588722   329A      5.671196  
     330A      5.744020   331A      5.755856   332A      5.764207  
     333A      5.802192   334A      5.817533   335A      5.831457  
     336A      5.915696   337A      6.078335   338A      6.181924  
     339A      6.216564   340A      6.238429   341A      6.377220  
     342A      6.382362   343A      6.396256   344A      6.633224  
     345A      6.688956   346A      6.727519   347A      6.743362  
     348A      6.771509   349A      6.839256   350A      6.931205  
     351A      7.042136   352A      7.080849   353A      7.127143  
     354A      7.143382   355A      7.169530   356A      7.240960  
     357A      7.295858   358A      7.344683   359A      7.443580  
     360A      7.461014   361A      7.505389   362A      7.633346  
     363A      7.708059   364A      7.713348   365A      7.722815  
     366A      7.793542   367A      7.816178   368A      7.827703  
     369A      7.857741   370A      8.024820   371A      8.119473  
     372A      8.127111   373A      8.135965   374A      8.247694  
     375A      8.270391   376A      8.274923   377A      8.284059  
     378A      8.300368   379A      8.304807   380A      8.681605  
     381A      8.787869   382A      8.804831   383A      8.819713  
     384A      8.843355   385A      8.865891   386A      8.874699  
     387A      9.819359   388A      9.875896   389A      9.933761  
     390A      9.971439   391A      9.974286   392A      9.989221  
     393A     10.036263   394A     10.039644   395A     10.054355  
     396A     10.204294   397A     10.207273   398A     10.211575  
     399A     11.137467   400A     11.149983   401A     11.171564  
     402A     11.768346   403A     11.800765   404A     11.853792  
     405A     12.213414   406A     12.278942   407A     12.337092  
     408A     13.529205   409A     13.560928   410A     13.613103  
     411A     13.873912   412A     13.890508   413A     13.917229  
     414A     15.614459   415A     64.790224   416A     64.983964  
     417A     65.318492   418A     65.580789  

    Final Occupation by Irrep:
              A 
    DOCC [     5 ]
    NA   [     5 ]
    NB   [     5 ]

  @DF-RHF Final Energy:   -76.05443177194444

   => Energetics <=

    Nuclear Repulsion Energy =              8.9318216675061475
    One-Electron Energy =                -122.6049866011043150
    Two-Electron Energy =                  37.6187331616537364
    Total Energy =                        -76.0544317719444365

Computation Completed


Properties will be evaluated at   0.000000,   0.000000,   0.000000 [a0]

Properties computed using the SCF density matrix


 Multipole Moments:

 ------------------------------------------------------------------------------------
     Multipole            Electronic (a.u.)      Nuclear  (a.u.)        Total (a.u.)
 ------------------------------------------------------------------------------------

 L = 1.  Multiply by 2.5417464519 to convert [e a0] to [Debye]
 Dipole X            :         30.9515450          -30.5104276            0.4411174
 Dipole Y            :         12.0841620          -12.3950198           -0.3108578
 Dipole Z            :        -28.2594130           28.7085757            0.4491627
 Magnitude           :                                                    0.7021141

 ------------------------------------------------------------------------------------

*** tstop() called on ddmfs1 at Mon Jan 22 15:16:59 2024
Module time:
	user time   =      61.73 seconds =       1.03 minutes
	system time =       4.44 seconds =       0.07 minutes
	total time  =          4 seconds =       0.07 minutes
Total time:
	user time   =      61.73 seconds =       1.03 minutes
	system time =       4.44 seconds =       0.07 minutes
	total time  =          4 seconds =       0.07 minutes

*** tstart() called on ddmfs1
*** at Mon Jan 22 15:16:59 2024


  //>>>>>>>>>>>>>>>>>>>>>>>>>>>>>>>>>>>//
  //               DFMP2               //
  //<<<<<<<<<<<<<<<<<<<<<<<<<<<<<<<<<<<//

   => Loading Basis Set <=

    Name: (AUG-CC-PVTZ AUX)
    Role: RIFIT
    Keyword: DF_BASIS_MP2
    atoms 1                     entry NA         line   610 file /ddmfs1b/softs/psi4conda/share/psi4/basis/def2-qzvpp-ri.gbs 
    atoms 2, 5, 8, 11           entry O          line   264 file /ddmfs1b/softs/psi4conda/share/psi4/basis/aug-cc-pvtz-ri.gbs 
    atoms 3-4, 6-7, 9-10, 12-13 entry H          line    30 file /ddmfs1b/softs/psi4conda/share/psi4/basis/aug-cc-pvtz-ri.gbs 

	 --------------------------------------------------------
	                          DF-MP2                         
	      2nd-Order Density-Fitted Moller-Plesset Theory     
	              RMP2 Wavefunction,  20 Threads             
	                                                         
	        Rob Parrish, Justin Turney, Andy Simmonett,      
	           Ed Hohenstein, and C. David Sherrill          
	 --------------------------------------------------------

   => Auxiliary Basis Set <=

  Basis Set: (AUG-CC-PVTZ AUX)
    Blend: AUG-CC-PVTZ-RI + DEF2-QZVPP-RI
    Number of shells: 266
    Number of basis functions: 958
    Number of Cartesian functions: 1198
    Spherical Harmonics?: true
    Max angular momentum: 4

	 --------------------------------------------------------
	                 NBF =   418, NAUX =   958
	 --------------------------------------------------------
	   CLASS    FOCC     OCC    AOCC    AVIR     VIR    FVIR
	   PAIRS       0       5       5     413     413       0
	 --------------------------------------------------------

	-----------------------------------------------------------
	 ==================> DF-MP2 Energies <==================== 
	-----------------------------------------------------------
	 Reference Energy          =     -76.0544317719444365 [Eh]
	 Singles Energy            =      -0.0000000000000000 [Eh]
	 Same-Spin Energy          =      -0.0687834954963283 [Eh]
	 Opposite-Spin Energy      =      -0.2166741855685123 [Eh]
	 Correlation Energy        =      -0.2854576810648405 [Eh]
	 Total Energy              =     -76.3398894530092775 [Eh]
	-----------------------------------------------------------
	 ================> DF-SCS-MP2 Energies <================== 
	-----------------------------------------------------------
	 SCS Same-Spin Scale       =       0.3333333333333333 [-]
	 SCS Opposite-Spin Scale   =       1.2000000000000000 [-]
	 SCS Same-Spin Energy      =      -0.0229278318321094 [Eh]
	 SCS Opposite-Spin Energy  =      -0.2600090226822147 [Eh]
	 SCS Correlation Energy    =      -0.2829368545143242 [Eh]
	 SCS Total Energy          =     -76.3373686264587548 [Eh]
	-----------------------------------------------------------


*** tstop() called on ddmfs1 at Mon Jan 22 15:17:05 2024
Module time:
	user time   =      21.31 seconds =       0.36 minutes
	system time =       1.65 seconds =       0.03 minutes
	total time  =          6 seconds =       0.10 minutes
Total time:
	user time   =      83.06 seconds =       1.38 minutes
	system time =       6.09 seconds =       0.10 minutes
	total time  =         10 seconds =       0.17 minutes

    Psi4 stopped on: Monday, 22 January 2024 03:17PM
    Psi4 wall time for execution: 0:00:09.73

*** Psi4 exiting successfully. Buy a developer a beer!
