
    -----------------------------------------------------------------------
          Psi4: An Open-Source Ab Initio Electronic Structure Package
                               Psi4 1.8.2 release

                         Git: Rev {} zzzzzzz 


    D. G. A. Smith, L. A. Burns, A. C. Simmonett, R. M. Parrish,
    M. C. Schieber, R. Galvelis, P. Kraus, H. Kruse, R. Di Remigio,
    A. Alenaizan, A. M. James, S. Lehtola, J. P. Misiewicz, M. Scheurer,
    R. A. Shaw, J. B. Schriber, Y. Xie, Z. L. Glick, D. A. Sirianni,
    J. S. O'Brien, J. M. Waldrop, A. Kumar, E. G. Hohenstein,
    B. P. Pritchard, B. R. Brooks, H. F. Schaefer III, A. Yu. Sokolov,
    K. Patkowski, A. E. DePrince III, U. Bozkaya, R. A. King,
    F. A. Evangelista, J. M. Turney, T. D. Crawford, C. D. Sherrill,
    J. Chem. Phys. 152(18) 184108 (2020). https://doi.org/10.1063/5.0006002

                            Additional Code Authors
    E. T. Seidl, C. L. Janssen, E. F. Valeev, M. L. Leininger,
    J. F. Gonthier, R. M. Richard, H. R. McAlexander, M. Saitow, X. Wang,
    P. Verma, M. H. Lechner, A. Jiang, S. Behnle, A. G. Heide,
    M. F. Herbst, and D. L. Poole

             Previous Authors, Complete List of Code Contributors,
                       and Citations for Specific Modules
    https://github.com/psi4/psi4/blob/master/codemeta.json
    https://github.com/psi4/psi4/graphs/contributors
    http://psicode.org/psi4manual/master/introduction.html#citing-psifour

    -----------------------------------------------------------------------


    Psi4 started on: Monday, 22 January 2024 02:27PM

    Process ID: 66827
    Host:       ddmfs1
    PSIDATADIR: /ddmfs1b/softs/psi4conda/share/psi4
    Memory:     500.0 MiB
    Threads:    20
    
  ==> Input File <==

--------------------------------------------------------------------------
MEMORY 60 GB

molecule dimer {
0 1
Gh(Na)     0.000000     0.000000     0.000000
Gh(O)     -0.634954     2.413494    -0.469274
Gh(H)     -0.282418     2.529735     0.411993
Gh(H)      0.141916     2.156275    -1.092832
Gh(O)      1.214648     0.775486     1.918368
Gh(H)      0.880044     0.448486     2.755494
Gh(H)      1.217297     1.754919     1.974001
Gh(O)     -0.701755    -1.577387     1.746965
Gh(H)      0.074402    -2.165534     1.642667
Gh(H)     -1.200487    -1.862180     2.524719
O         -0.775218    -1.328748    -1.945209
H         -1.162383    -1.989746    -1.350365
H         -0.197621    -1.804248    -2.558987
Gh(O)      1.999358    -1.188625    -0.266368
Gh(H)      1.946447    -1.713828    -1.091922
Gh(H)      2.822903    -0.667217    -0.248495
Gh(O)     -2.490267     0.426443     0.351436
Gh(H)     -2.601949     1.346809     0.579271
Gh(H)     -3.125572    -0.045171     0.927670

units ang
no_reorient
no_com
symmetry c1
}

set {
basis        aug-cc-pVTZ
scf_type     df
}

energy("mp2")
--------------------------------------------------------------------------

  Memory set to  55.879 GiB by Python driver.

Scratch directory: /ddmfs1a/scratch/
   => Libint2 <=

    Primary   basis highest AM E, G, H:  5, 4, 3
    Auxiliary basis highest AM E, G, H:  6, 5, 4
    Onebody   basis highest AM E, G, H:  6, 5, 4
    Solid Harmonics ordering:            gaussian

*** tstart() called on ddmfs1
*** at Mon Jan 22 14:27:08 2024

   => Loading Basis Set <=

    Name: AUG-CC-PVTZ
    Role: ORBITAL
    Keyword: BASIS
    atoms 1                                   entry NA         line   469 file /ddmfs1b/softs/psi4conda/share/psi4/basis/aug-cc-pvtz.gbs 
    atoms 2, 5, 8, 11, 14, 17                 entry O          line   331 file /ddmfs1b/softs/psi4conda/share/psi4/basis/aug-cc-pvtz.gbs 
    atoms 3-4, 6-7, 9-10, 12-13, 15-16, 18-19 entry H          line    40 file /ddmfs1b/softs/psi4conda/share/psi4/basis/aug-cc-pvtz.gbs 


         ---------------------------------------------------------
                                   SCF
               by Justin Turney, Rob Parrish, Andy Simmonett
                          and Daniel G. A. Smith
                              RHF Reference
                       20 Threads,  57220 MiB Core
         ---------------------------------------------------------

  ==> Geometry <==

    Molecular point group: c1
    Full point group: C1

    Geometry (in Angstrom), charge = 0, multiplicity = 1:

       Center              X                  Y                   Z               Mass       
    ------------   -----------------  -----------------  -----------------  -----------------
      Gh(NA)          0.000000000000     0.000000000000     0.000000000000    22.989769282000
      Gh(O)          -0.634954000000     2.413494000000    -0.469274000000    15.994914619570
      Gh(H)          -0.282418000000     2.529735000000     0.411993000000     1.007825032230
      Gh(H)           0.141916000000     2.156275000000    -1.092832000000     1.007825032230
      Gh(O)           1.214648000000     0.775486000000     1.918368000000    15.994914619570
      Gh(H)           0.880044000000     0.448486000000     2.755494000000     1.007825032230
      Gh(H)           1.217297000000     1.754919000000     1.974001000000     1.007825032230
      Gh(O)          -0.701755000000    -1.577387000000     1.746965000000    15.994914619570
      Gh(H)           0.074402000000    -2.165534000000     1.642667000000     1.007825032230
      Gh(H)          -1.200487000000    -1.862180000000     2.524719000000     1.007825032230
         O           -0.775218000000    -1.328748000000    -1.945209000000    15.994914619570
         H           -1.162383000000    -1.989746000000    -1.350365000000     1.007825032230
         H           -0.197621000000    -1.804248000000    -2.558987000000     1.007825032230
      Gh(O)           1.999358000000    -1.188625000000    -0.266368000000    15.994914619570
      Gh(H)           1.946447000000    -1.713828000000    -1.091922000000     1.007825032230
      Gh(H)           2.822903000000    -0.667217000000    -0.248495000000     1.007825032230
      Gh(O)          -2.490267000000     0.426443000000     0.351436000000    15.994914619570
      Gh(H)          -2.601949000000     1.346809000000     0.579271000000     1.007825032230
      Gh(H)          -3.125572000000    -0.045171000000     0.927670000000     1.007825032230

  Running in c1 symmetry.

  Rotational constants: A =      0.04087  B =      0.03725  C =      0.03355 [cm^-1]
  Rotational constants: A =   1225.13964  B =   1116.80167  C =   1005.74369 [MHz]
  Nuclear repulsion =    9.079393028437110

  Charge       = 0
  Multiplicity = 1
  Electrons    = 10
  Nalpha       = 5
  Nbeta        = 5

  ==> Algorithm <==

  SCF Algorithm Type is DF.
  DIIS enabled.
  MOM disabled.
  Fractional occupation disabled.
  Guess Type is SAD.
  Energy threshold   = 1.00e-08
  Density threshold  = 1.00e-08
  Integral threshold = 1.00e-12

  ==> Primary Basis <==

  Basis Set: AUG-CC-PVTZ
    Blend: AUG-CC-PVTZ
    Number of shells: 208
    Number of basis functions: 602
    Number of Cartesian functions: 689
    Spherical Harmonics?: true
    Max angular momentum: 3

   => Loading Basis Set <=

    Name: (AUG-CC-PVTZ AUX)
    Role: JKFIT
    Keyword: DF_BASIS_SCF
    atoms 1                                   entry NA         line   498 file /ddmfs1b/softs/psi4conda/share/psi4/basis/def2-universal-jkfit.gbs 
    atoms 2, 5, 8, 11, 14, 17                 entry O          line   286 file /ddmfs1b/softs/psi4conda/share/psi4/basis/aug-cc-pvtz-jkfit.gbs 
    atoms 3-4, 6-7, 9-10, 12-13, 15-16, 18-19 entry H          line    70 file /ddmfs1b/softs/psi4conda/share/psi4/basis/aug-cc-pvtz-jkfit.gbs 

  ==> Integral Setup <==

  DFHelper Memory: AOs need 3.306 GiB; user supplied 41.910 GiB. 
  Using in-core AOs.

  ==> MemDFJK: Density-Fitted J/K Matrices <==

    J tasked:                   Yes
    K tasked:                   Yes
    wK tasked:                   No
    OpenMP threads:              20
    Memory [MiB]:             42915
    Algorithm:                 Core
    Schwarz Cutoff:           1E-12
    Mask sparsity (%):       8.9558
    Fitting Condition:        1E-10

   => Auxiliary Basis Set <=

  Basis Set: (AUG-CC-PVTZ AUX)
    Blend: AUG-CC-PVTZ-JKFIT + DEF2-UNIVERSAL-JKFIT
    Number of shells: 382
    Number of basis functions: 1288
    Number of Cartesian functions: 1583
    Spherical Harmonics?: true
    Max angular momentum: 4

  Minimum eigenvalue in the overlap matrix is 1.9231335108E-05.
  Reciprocal condition number of the overlap matrix is 1.2210152658E-06.
    Using symmetric orthogonalization.

  ==> Pre-Iterations <==

  SCF Guess: Superposition of Atomic Densities via on-the-fly atomic UHF (no occupation information).

   -------------------------
    Irrep   Nso     Nmo    
   -------------------------
     A        602     602 
   -------------------------
    Total     602     602
   -------------------------

  ==> Iterations <==

                           Total Energy        Delta E     RMS |[F,P]|

   @DF-RHF iter SAD:   -75.46222936194931   -7.54622e+01   0.00000e+00 
   @DF-RHF iter   1:   -75.97521236765068   -5.12983e-01   7.76807e-04 ADIIS/DIIS
   @DF-RHF iter   2:   -76.02731941503210   -5.21070e-02   5.33672e-04 ADIIS/DIIS
   @DF-RHF iter   3:   -76.05925005480889   -3.19306e-02   3.63512e-05 DIIS
   @DF-RHF iter   4:   -76.05965513903433   -4.05084e-04   8.88788e-06 DIIS
   @DF-RHF iter   5:   -76.05968157514440   -2.64361e-05   2.02925e-06 DIIS
   @DF-RHF iter   6:   -76.05968377449250   -2.19935e-06   4.50794e-07 DIIS
   @DF-RHF iter   7:   -76.05968389418121   -1.19689e-07   8.33197e-08 DIIS
   @DF-RHF iter   8:   -76.05968389777519   -3.59398e-09   1.40725e-08 DIIS
   @DF-RHF iter   9:   -76.05968389785745   -8.22666e-11   3.57109e-09 DIIS
  Energy and wave function converged.


  ==> Post-Iterations <==

    Orbital Energies [Eh]
    ---------------------

    Doubly Occupied:                                                      

       1A    -20.567855     2A     -1.345836     3A     -0.716059  
       4A     -0.577781     5A     -0.508625  

    Virtual:                                                              

       6A      0.007253     7A      0.015750     8A      0.016710  
       9A      0.017991    10A      0.037202    11A      0.049029  
      12A      0.050571    13A      0.052602    14A      0.054647  
      15A      0.056085    16A      0.057734    17A      0.058468  
      18A      0.063181    19A      0.077219    20A      0.078380  
      21A      0.081616    22A      0.083020    23A      0.089494  
      24A      0.092192    25A      0.096324    26A      0.097139  
      27A      0.109487    28A      0.110166    29A      0.118732  
      30A      0.119239    31A      0.133303    32A      0.139843  
      33A      0.149622    34A      0.155958    35A      0.162091  
      36A      0.170553    37A      0.173360    38A      0.175853  
      39A      0.179183    40A      0.182000    41A      0.195190  
      42A      0.198935    43A      0.204135    44A      0.205646  
      45A      0.209179    46A      0.213995    47A      0.218222  
      48A      0.228598    49A      0.231260    50A      0.237044  
      51A      0.240527    52A      0.249762    53A      0.261708  
      54A      0.262551    55A      0.273703    56A      0.282409  
      57A      0.284172    58A      0.286850    59A      0.298266  
      60A      0.307256    61A      0.314448    62A      0.320681  
      63A      0.327892    64A      0.331771    65A      0.338668  
      66A      0.340378    67A      0.349229    68A      0.354168  
      69A      0.359784    70A      0.366514    71A      0.371762  
      72A      0.377064    73A      0.381516    74A      0.389249  
      75A      0.393250    76A      0.396911    77A      0.409780  
      78A      0.414712    79A      0.419080    80A      0.422830  
      81A      0.428763    82A      0.433196    83A      0.437379  
      84A      0.443977    85A      0.446921    86A      0.450450  
      87A      0.454345    88A      0.456985    89A      0.464955  
      90A      0.468657    91A      0.470932    92A      0.475104  
      93A      0.481010    94A      0.485710    95A      0.487928  
      96A      0.489804    97A      0.501756    98A      0.507736  
      99A      0.510269   100A      0.514876   101A      0.520172  
     102A      0.522075   103A      0.523903   104A      0.533118  
     105A      0.538709   106A      0.549925   107A      0.550480  
     108A      0.556994   109A      0.561207   110A      0.563570  
     111A      0.571643   112A      0.580327   113A      0.585730  
     114A      0.591926   115A      0.598347   116A      0.615941  
     117A      0.620767   118A      0.643114   119A      0.652560  
     120A      0.677447   121A      0.682161   122A      0.707190  
     123A      0.718155   124A      0.727279   125A      0.734643  
     126A      0.740846   127A      0.749315   128A      0.764503  
     129A      0.769162   130A      0.778909   131A      0.790167  
     132A      0.798565   133A      0.804378   134A      0.811725  
     135A      0.824300   136A      0.827302   137A      0.835260  
     138A      0.843561   139A      0.852004   140A      0.856496  
     141A      0.862901   142A      0.867716   143A      0.871233  
     144A      0.878665   145A      0.880246   146A      0.884166  
     147A      0.895761   148A      0.905785   149A      0.912847  
     150A      0.918440   151A      0.921676   152A      0.934147  
     153A      0.938376   154A      0.942305   155A      0.954047  
     156A      0.958826   157A      0.963270   158A      0.970264  
     159A      0.978617   160A      0.980741   161A      0.991656  
     162A      0.995904   163A      0.999456   164A      1.003766  
     165A      1.008774   166A      1.013262   167A      1.017405  
     168A      1.019745   169A      1.029140   170A      1.040489  
     171A      1.044802   172A      1.053161   173A      1.055126  
     174A      1.061105   175A      1.066182   176A      1.073052  
     177A      1.074646   178A      1.080330   179A      1.084384  
     180A      1.098755   181A      1.108645   182A      1.116156  
     183A      1.118426   184A      1.123968   185A      1.127756  
     186A      1.134245   187A      1.136779   188A      1.148946  
     189A      1.154188   190A      1.164138   191A      1.170397  
     192A      1.170972   193A      1.180546   194A      1.183208  
     195A      1.185215   196A      1.198843   197A      1.200942  
     198A      1.208743   199A      1.223687   200A      1.226641  
     201A      1.235186   202A      1.244717   203A      1.256008  
     204A      1.257970   205A      1.268840   206A      1.277141  
     207A      1.287227   208A      1.287627   209A      1.295259  
     210A      1.309595   211A      1.319180   212A      1.324995  
     213A      1.332226   214A      1.345553   215A      1.353546  
     216A      1.368993   217A      1.374080   218A      1.378276  
     219A      1.379365   220A      1.386819   221A      1.406521  
     222A      1.407039   223A      1.410447   224A      1.424574  
     225A      1.428529   226A      1.439206   227A      1.448304  
     228A      1.458299   229A      1.460697   230A      1.472240  
     231A      1.480035   232A      1.486487   233A      1.495947  
     234A      1.524655   235A      1.537759   236A      1.544838  
     237A      1.551507   238A      1.557285   239A      1.560636  
     240A      1.583325   241A      1.587944   242A      1.602972  
     243A      1.613381   244A      1.615268   245A      1.630743  
     246A      1.646074   247A      1.653196   248A      1.656487  
     249A      1.678194   250A      1.684441   251A      1.699075  
     252A      1.720315   253A      1.728623   254A      1.733732  
     255A      1.754587   256A      1.762627   257A      1.788095  
     258A      1.806282   259A      1.815631   260A      1.825371  
     261A      1.845034   262A      1.851608   263A      1.862281  
     264A      1.870789   265A      1.874920   266A      1.881458  
     267A      1.893004   268A      1.909906   269A      1.917036  
     270A      1.927584   271A      1.945582   272A      1.959590  
     273A      1.968846   274A      1.980921   275A      1.985367  
     276A      1.991126   277A      2.004822   278A      2.015855  
     279A      2.022681   280A      2.036465   281A      2.041213  
     282A      2.052409   283A      2.061860   284A      2.072637  
     285A      2.082375   286A      2.087507   287A      2.107598  
     288A      2.121075   289A      2.124399   290A      2.140591  
     291A      2.153690   292A      2.164456   293A      2.193271  
     294A      2.201637   295A      2.223859   296A      2.257698  
     297A      2.423388   298A      2.461508   299A      2.468304  
     300A      2.483887   301A      2.517358   302A      2.525764  
     303A      2.543918   304A      2.558923   305A      2.567756  
     306A      2.580280   307A      2.597461   308A      2.605663  
     309A      2.620464   310A      2.625092   311A      2.630505  
     312A      2.639977   313A      2.648309   314A      2.663405  
     315A      2.679480   316A      2.681077   317A      2.686864  
     318A      2.701090   319A      2.719498   320A      2.733685  
     321A      2.742611   322A      2.754304   323A      2.756830  
     324A      2.774877   325A      2.784988   326A      2.787086  
     327A      2.808957   328A      2.815669   329A      2.827811  
     330A      2.841968   331A      2.859307   332A      2.868170  
     333A      2.876207   334A      2.887534   335A      2.895630  
     336A      2.918035   337A      2.942329   338A      2.954897  
     339A      2.962270   340A      2.964207   341A      2.997693  
     342A      3.002933   343A      3.014509   344A      3.015683  
     345A      3.029894   346A      3.039185   347A      3.074680  
     348A      3.098493   349A      3.115661   350A      3.151033  
     351A      3.183200   352A      3.199465   353A      3.214801  
     354A      3.238338   355A      3.241794   356A      3.246630  
     357A      3.273898   358A      3.281390   359A      3.292234  
     360A      3.297775   361A      3.302199   362A      3.315974  
     363A      3.327339   364A      3.338853   365A      3.352323  
     366A      3.357824   367A      3.385055   368A      3.389807  
     369A      3.404254   370A      3.418780   371A      3.437721  
     372A      3.447377   373A      3.455030   374A      3.480167  
     375A      3.493110   376A      3.523477   377A      3.537326  
     378A      3.566704   379A      3.647583   380A      3.669188  
     381A      3.699317   382A      3.729080   383A      3.757914  
     384A      3.786323   385A      3.811137   386A      3.827260  
     387A      3.854504   388A      3.864184   389A      3.900483  
     390A      3.970706   391A      4.149509   392A      4.304970  
     393A      4.319211   394A      4.365382   395A      4.400805  
     396A      4.445029   397A      4.461646   398A      4.476207  
     399A      4.492641   400A      4.514004   401A      4.534062  
     402A      4.543325   403A      4.545530   404A      4.575011  
     405A      4.587431   406A      4.594558   407A      4.601672  
     408A      4.618252   409A      4.621706   410A      4.639922  
     411A      4.653892   412A      4.657080   413A      4.659310  
     414A      4.689446   415A      4.703904   416A      4.708865  
     417A      4.738574   418A      4.756070   419A      4.765064  
     420A      4.776102   421A      4.783723   422A      4.793754  
     423A      4.808912   424A      4.812744   425A      4.827719  
     426A      4.837609   427A      4.862083   428A      4.865255  
     429A      4.879432   430A      4.909000   431A      4.911994  
     432A      5.036776   433A      5.042267   434A      5.058297  
     435A      5.074733   436A      5.079122   437A      5.102899  
     438A      5.110225   439A      5.128536   440A      5.135526  
     441A      5.148058   442A      5.163516   443A      5.182366  
     444A      5.196965   445A      5.206812   446A      5.229907  
     447A      5.233221   448A      5.239341   449A      5.256521  
     450A      5.261839   451A      5.281014   452A      5.306667  
     453A      5.342344   454A      5.356719   455A      5.397720  
     456A      5.437885   457A      5.486872   458A      5.515361  
     459A      5.529400   460A      5.534717   461A      5.548271  
     462A      5.595803   463A      5.614392   464A      5.626503  
     465A      5.648041   466A      5.672733   467A      5.692305  
     468A      5.701182   469A      5.722635   470A      5.731461  
     471A      5.752040   472A      5.799615   473A      5.836120  
     474A      5.875941   475A      5.882541   476A      5.918627  
     477A      5.948188   478A      6.145113   479A      6.231062  
     480A      6.244038   481A      6.264683   482A      6.320855  
     483A      6.333720   484A      6.379314   485A      6.394094  
     486A      6.418354   487A      6.435570   488A      6.437803  
     489A      6.453394   490A      6.649833   491A      6.671120  
     492A      6.752054   493A      6.765152   494A      6.805502  
     495A      6.825675   496A      6.873535   497A      6.953198  
     498A      7.055083   499A      7.064634   500A      7.071960  
     501A      7.106556   502A      7.119123   503A      7.211024  
     504A      7.331329   505A      7.375588   506A      7.386489  
     507A      7.404374   508A      7.436336   509A      7.464931  
     510A      7.500638   511A      7.537225   512A      7.711239  
     513A      7.748555   514A      7.761802   515A      7.793410  
     516A      7.825791   517A      7.844892   518A      7.855846  
     519A      7.880280   520A      7.898351   521A      7.924692  
     522A      7.949337   523A      7.967745   524A      7.974834  
     525A      8.119084   526A      8.129811   527A      8.143890  
     528A      8.153792   529A      8.176399   530A      8.231977  
     531A      8.250179   532A      8.252464   533A      8.267887  
     534A      8.271539   535A      8.292280   536A      8.303317  
     537A      8.330493   538A      8.351683   539A      8.364313  
     540A      8.708707   541A      8.762199   542A      8.779233  
     543A      8.788696   544A      8.799402   545A      8.814244  
     546A      8.818530   547A      8.829565   548A      8.831119  
     549A      8.846725   550A      8.884454   551A      9.879890  
     552A      9.926078   553A      9.960517   554A      9.975415  
     555A      9.984961   556A      9.993222   557A     10.000071  
     558A     10.023152   559A     10.043486   560A     10.047435  
     561A     10.061178   562A     10.089312   563A     10.102245  
     564A     10.129848   565A     10.149667   566A     10.223296  
     567A     10.251523   568A     10.256794   569A     10.289651  
     570A     10.298630   571A     10.938240   572A     11.091880  
     573A     11.154867   574A     11.165920   575A     11.222309  
     576A     11.785378   577A     11.844981   578A     11.926524  
     579A     11.942175   580A     11.980500   581A     12.092443  
     582A     12.154286   583A     12.201198   584A     12.232104  
     585A     12.245726   586A     13.493588   587A     13.549759  
     588A     13.574703   589A     13.593485   590A     13.624691  
     591A     13.966226   592A     14.003465   593A     14.037393  
     594A     14.054406   595A     14.081102   596A     16.049265  
     597A     64.678414   598A     64.878630   599A     64.970718  
     600A     65.278202   601A     65.315515   602A     65.715825  

    Final Occupation by Irrep:
              A 
    DOCC [     5 ]
    NA   [     5 ]
    NB   [     5 ]

  @DF-RHF Final Energy:   -76.05968389785745

   => Energetics <=

    Nuclear Repulsion Energy =              9.0793930284371100
    One-Electron Energy =                -122.8458377655035036
    Two-Electron Energy =                  37.7067608392089468
    Total Energy =                        -76.0596838978574397

Computation Completed


Properties will be evaluated at   0.000000,   0.000000,   0.000000 [a0]

Properties computed using the SCF density matrix


 Multipole Moments:

 ------------------------------------------------------------------------------------
     Multipole            Electronic (a.u.)      Nuclear  (a.u.)        Total (a.u.)
 ------------------------------------------------------------------------------------

 L = 1.  Multiply by 2.5417464519 to convert [e a0] to [Debye]
 Dipole X            :         14.4162992          -14.2896327            0.1266665
 Dipole Y            :         26.5014165          -27.2573681           -0.7559516
 Dipole Z            :         36.7819235          -36.7949027           -0.0129793
 Magnitude           :                                                    0.7666001

 ------------------------------------------------------------------------------------

*** tstop() called on ddmfs1 at Mon Jan 22 14:27:17 2024
Module time:
	user time   =     133.47 seconds =       2.22 minutes
	system time =       7.39 seconds =       0.12 minutes
	total time  =          9 seconds =       0.15 minutes
Total time:
	user time   =     133.47 seconds =       2.22 minutes
	system time =       7.39 seconds =       0.12 minutes
	total time  =          9 seconds =       0.15 minutes

*** tstart() called on ddmfs1
*** at Mon Jan 22 14:27:18 2024


  //>>>>>>>>>>>>>>>>>>>>>>>>>>>>>>>>>>>//
  //               DFMP2               //
  //<<<<<<<<<<<<<<<<<<<<<<<<<<<<<<<<<<<//

   => Loading Basis Set <=

    Name: (AUG-CC-PVTZ AUX)
    Role: RIFIT
    Keyword: DF_BASIS_MP2
    atoms 1                                   entry NA         line   610 file /ddmfs1b/softs/psi4conda/share/psi4/basis/def2-qzvpp-ri.gbs 
    atoms 2, 5, 8, 11, 14, 17                 entry O          line   264 file /ddmfs1b/softs/psi4conda/share/psi4/basis/aug-cc-pvtz-ri.gbs 
    atoms 3-4, 6-7, 9-10, 12-13, 15-16, 18-19 entry H          line    30 file /ddmfs1b/softs/psi4conda/share/psi4/basis/aug-cc-pvtz-ri.gbs 

	 --------------------------------------------------------
	                          DF-MP2                         
	      2nd-Order Density-Fitted Moller-Plesset Theory     
	              RMP2 Wavefunction,  20 Threads             
	                                                         
	        Rob Parrish, Justin Turney, Andy Simmonett,      
	           Ed Hohenstein, and C. David Sherrill          
	 --------------------------------------------------------

   => Auxiliary Basis Set <=

  Basis Set: (AUG-CC-PVTZ AUX)
    Blend: AUG-CC-PVTZ-RI + DEF2-QZVPP-RI
    Number of shells: 378
    Number of basis functions: 1354
    Number of Cartesian functions: 1690
    Spherical Harmonics?: true
    Max angular momentum: 4

	 --------------------------------------------------------
	                 NBF =   602, NAUX =  1354
	 --------------------------------------------------------
	   CLASS    FOCC     OCC    AOCC    AVIR     VIR    FVIR
	   PAIRS       0       5       5     597     597       0
	 --------------------------------------------------------

	-----------------------------------------------------------
	 ==================> DF-MP2 Energies <==================== 
	-----------------------------------------------------------
	 Reference Energy          =     -76.0596838978574539 [Eh]
	 Singles Energy            =      -0.0000000000000000 [Eh]
	 Same-Spin Energy          =      -0.0685799226378841 [Eh]
	 Opposite-Spin Energy      =      -0.2163996467509741 [Eh]
	 Correlation Energy        =      -0.2849795693888582 [Eh]
	 Total Energy              =     -76.3446634672463063 [Eh]
	-----------------------------------------------------------
	 ================> DF-SCS-MP2 Energies <================== 
	-----------------------------------------------------------
	 SCS Same-Spin Scale       =       0.3333333333333333 [-]
	 SCS Opposite-Spin Scale   =       1.2000000000000000 [-]
	 SCS Same-Spin Energy      =      -0.0228599742126280 [Eh]
	 SCS Opposite-Spin Energy  =      -0.2596795761011689 [Eh]
	 SCS Correlation Energy    =      -0.2825395503137969 [Eh]
	 SCS Total Energy          =     -76.3422234481712536 [Eh]
	-----------------------------------------------------------


*** tstop() called on ddmfs1 at Mon Jan 22 14:27:26 2024
Module time:
	user time   =      37.94 seconds =       0.63 minutes
	system time =       2.66 seconds =       0.04 minutes
	total time  =          8 seconds =       0.13 minutes
Total time:
	user time   =     171.43 seconds =       2.86 minutes
	system time =      10.05 seconds =       0.17 minutes
	total time  =         18 seconds =       0.30 minutes

    Psi4 stopped on: Monday, 22 January 2024 02:27PM
    Psi4 wall time for execution: 0:00:18.09

*** Psi4 exiting successfully. Buy a developer a beer!
