
    -----------------------------------------------------------------------
          Psi4: An Open-Source Ab Initio Electronic Structure Package
                               Psi4 1.8.2 release

                         Git: Rev {} zzzzzzz 


    D. G. A. Smith, L. A. Burns, A. C. Simmonett, R. M. Parrish,
    M. C. Schieber, R. Galvelis, P. Kraus, H. Kruse, R. Di Remigio,
    A. Alenaizan, A. M. James, S. Lehtola, J. P. Misiewicz, M. Scheurer,
    R. A. Shaw, J. B. Schriber, Y. Xie, Z. L. Glick, D. A. Sirianni,
    J. S. O'Brien, J. M. Waldrop, A. Kumar, E. G. Hohenstein,
    B. P. Pritchard, B. R. Brooks, H. F. Schaefer III, A. Yu. Sokolov,
    K. Patkowski, A. E. DePrince III, U. Bozkaya, R. A. King,
    F. A. Evangelista, J. M. Turney, T. D. Crawford, C. D. Sherrill,
    J. Chem. Phys. 152(18) 184108 (2020). https://doi.org/10.1063/5.0006002

                            Additional Code Authors
    E. T. Seidl, C. L. Janssen, E. F. Valeev, M. L. Leininger,
    J. F. Gonthier, R. M. Richard, H. R. McAlexander, M. Saitow, X. Wang,
    P. Verma, M. H. Lechner, A. Jiang, S. Behnle, A. G. Heide,
    M. F. Herbst, and D. L. Poole

             Previous Authors, Complete List of Code Contributors,
                       and Citations for Specific Modules
    https://github.com/psi4/psi4/blob/master/codemeta.json
    https://github.com/psi4/psi4/graphs/contributors
    http://psicode.org/psi4manual/master/introduction.html#citing-psifour

    -----------------------------------------------------------------------


    Psi4 started on: Monday, 22 January 2024 03:19PM

    Process ID: 71782
    Host:       ddmfs1
    PSIDATADIR: /ddmfs1b/softs/psi4conda/share/psi4
    Memory:     500.0 MiB
    Threads:    20
    
  ==> Input File <==

--------------------------------------------------------------------------
MEMORY 60 GB

molecule dimer {
1 1
Na         0.000000     0.000000     0.000000
O         -1.169214     0.675061    -1.965345
H         -1.806908    -0.031789    -2.222785
H         -1.605764     1.457733    -2.244370
O         -0.030340    -2.107786    -1.084587
H          0.207561    -2.894411    -0.558114
H          0.618974    -2.140900    -1.742073
O          0.692412     0.310337     2.464985
H         -0.299640     0.237282     2.718297
H          1.167970    -0.408106     2.881909
O         -2.120624    -0.497677     1.271846
H         -2.415073     0.222634     1.817307
H         -2.903605    -0.836519     0.750395
O          0.425403     2.480866     0.024064
H          0.339669     3.168213     0.657297
H         -0.465816     2.494236    -0.380434
O          2.583179    -0.496408    -0.190695
H          2.787887    -0.734051    -1.155683
H          2.934192     0.414483    -0.062159

units ang
no_reorient
no_com
symmetry c1
}

set {
basis        aug-cc-pVTZ
scf_type     df
}

energy("mp2")
--------------------------------------------------------------------------

  Memory set to  55.879 GiB by Python driver.

Scratch directory: /ddmfs1a/scratch/
   => Libint2 <=

    Primary   basis highest AM E, G, H:  5, 4, 3
    Auxiliary basis highest AM E, G, H:  6, 5, 4
    Onebody   basis highest AM E, G, H:  6, 5, 4
    Solid Harmonics ordering:            gaussian

*** tstart() called on ddmfs1
*** at Mon Jan 22 15:19:48 2024

   => Loading Basis Set <=

    Name: AUG-CC-PVTZ
    Role: ORBITAL
    Keyword: BASIS
    atoms 1                                   entry NA         line   469 file /ddmfs1b/softs/psi4conda/share/psi4/basis/aug-cc-pvtz.gbs 
    atoms 2, 5, 8, 11, 14, 17                 entry O          line   331 file /ddmfs1b/softs/psi4conda/share/psi4/basis/aug-cc-pvtz.gbs 
    atoms 3-4, 6-7, 9-10, 12-13, 15-16, 18-19 entry H          line    40 file /ddmfs1b/softs/psi4conda/share/psi4/basis/aug-cc-pvtz.gbs 


         ---------------------------------------------------------
                                   SCF
               by Justin Turney, Rob Parrish, Andy Simmonett
                          and Daniel G. A. Smith
                              RHF Reference
                       20 Threads,  57220 MiB Core
         ---------------------------------------------------------

  ==> Geometry <==

    Molecular point group: c1
    Full point group: C1

    Geometry (in Angstrom), charge = 1, multiplicity = 1:

       Center              X                  Y                   Z               Mass       
    ------------   -----------------  -----------------  -----------------  -----------------
         NA           0.000000000000     0.000000000000     0.000000000000    22.989769282000
         O           -1.169214000000     0.675061000000    -1.965345000000    15.994914619570
         H           -1.806908000000    -0.031789000000    -2.222785000000     1.007825032230
         H           -1.605764000000     1.457733000000    -2.244370000000     1.007825032230
         O           -0.030340000000    -2.107786000000    -1.084587000000    15.994914619570
         H            0.207561000000    -2.894411000000    -0.558114000000     1.007825032230
         H            0.618974000000    -2.140900000000    -1.742073000000     1.007825032230
         O            0.692412000000     0.310337000000     2.464985000000    15.994914619570
         H           -0.299640000000     0.237282000000     2.718297000000     1.007825032230
         H            1.167970000000    -0.408106000000     2.881909000000     1.007825032230
         O           -2.120624000000    -0.497677000000     1.271846000000    15.994914619570
         H           -2.415073000000     0.222634000000     1.817307000000     1.007825032230
         H           -2.903605000000    -0.836519000000     0.750395000000     1.007825032230
         O            0.425403000000     2.480866000000     0.024064000000    15.994914619570
         H            0.339669000000     3.168213000000     0.657297000000     1.007825032230
         H           -0.465816000000     2.494236000000    -0.380434000000     1.007825032230
         O            2.583179000000    -0.496408000000    -0.190695000000    15.994914619570
         H            2.787887000000    -0.734051000000    -1.155683000000     1.007825032230
         H            2.934192000000     0.414483000000    -0.062159000000     1.007825032230

  Running in c1 symmetry.

  Rotational constants: A =      0.03793  B =      0.03604  C =      0.03333 [cm^-1]
  Rotational constants: A =   1137.22662  B =   1080.31623  C =    999.34808 [MHz]
  Nuclear repulsion =  396.948289786485361

  Charge       = 1
  Multiplicity = 1
  Electrons    = 70
  Nalpha       = 35
  Nbeta        = 35

  ==> Algorithm <==

  SCF Algorithm Type is DF.
  DIIS enabled.
  MOM disabled.
  Fractional occupation disabled.
  Guess Type is SAD.
  Energy threshold   = 1.00e-08
  Density threshold  = 1.00e-08
  Integral threshold = 1.00e-12

  ==> Primary Basis <==

  Basis Set: AUG-CC-PVTZ
    Blend: AUG-CC-PVTZ
    Number of shells: 208
    Number of basis functions: 602
    Number of Cartesian functions: 689
    Spherical Harmonics?: true
    Max angular momentum: 3

   => Loading Basis Set <=

    Name: (AUG-CC-PVTZ AUX)
    Role: JKFIT
    Keyword: DF_BASIS_SCF
    atoms 1                                   entry NA         line   498 file /ddmfs1b/softs/psi4conda/share/psi4/basis/def2-universal-jkfit.gbs 
    atoms 2, 5, 8, 11, 14, 17                 entry O          line   286 file /ddmfs1b/softs/psi4conda/share/psi4/basis/aug-cc-pvtz-jkfit.gbs 
    atoms 3-4, 6-7, 9-10, 12-13, 15-16, 18-19 entry H          line    70 file /ddmfs1b/softs/psi4conda/share/psi4/basis/aug-cc-pvtz-jkfit.gbs 

  ==> Integral Setup <==

  DFHelper Memory: AOs need 3.272 GiB; user supplied 41.910 GiB. 
  Using in-core AOs.

  ==> MemDFJK: Density-Fitted J/K Matrices <==

    J tasked:                   Yes
    K tasked:                   Yes
    wK tasked:                   No
    OpenMP threads:              20
    Memory [MiB]:             42915
    Algorithm:                 Core
    Schwarz Cutoff:           1E-12
    Mask sparsity (%):       9.9259
    Fitting Condition:        1E-10

   => Auxiliary Basis Set <=

  Basis Set: (AUG-CC-PVTZ AUX)
    Blend: AUG-CC-PVTZ-JKFIT + DEF2-UNIVERSAL-JKFIT
    Number of shells: 382
    Number of basis functions: 1288
    Number of Cartesian functions: 1583
    Spherical Harmonics?: true
    Max angular momentum: 4

  Minimum eigenvalue in the overlap matrix is 2.9490393121E-05.
  Reciprocal condition number of the overlap matrix is 1.9611419781E-06.
    Using symmetric orthogonalization.

  ==> Pre-Iterations <==

  SCF Guess: Superposition of Atomic Densities via on-the-fly atomic UHF (no occupation information).

   -------------------------
    Irrep   Nso     Nmo    
   -------------------------
     A        602     602 
   -------------------------
    Total     602     602
   -------------------------

  ==> Iterations <==

                           Total Energy        Delta E     RMS |[F,P]|

   @DF-RHF iter SAD:  -614.96226031176536   -6.14962e+02   0.00000e+00 
   @DF-RHF iter   1:  -617.63484578345299   -2.67259e+00   1.89883e-03 DIIS/ADIIS
   @DF-RHF iter   2:  -617.95895631634835   -3.24111e-01   1.26924e-03 DIIS/ADIIS
   @DF-RHF iter   3:  -618.13994439230476   -1.80988e-01   9.40895e-05 DIIS
   @DF-RHF iter   4:  -618.14257162274293   -2.62723e-03   2.47032e-05 DIIS
   @DF-RHF iter   5:  -618.14274692083688   -1.75298e-04   7.92496e-06 DIIS
   @DF-RHF iter   6:  -618.14276470707318   -1.77862e-05   3.34264e-06 DIIS
   @DF-RHF iter   7:  -618.14276741341928   -2.70635e-06   6.36972e-07 DIIS
   @DF-RHF iter   8:  -618.14276761663791   -2.03219e-07   1.35154e-07 DIIS
   @DF-RHF iter   9:  -618.14276762358122   -6.94331e-09   5.07726e-08 DIIS
   @DF-RHF iter  10:  -618.14276762414363   -5.62409e-10   1.45743e-08 DIIS
   @DF-RHF iter  11:  -618.14276762420377   -6.01403e-11   3.85323e-09 DIIS
  Energy and wave function converged.


  ==> Post-Iterations <==

    Orbital Energies [Eh]
    ---------------------

    Doubly Occupied:                                                      

       1A    -40.552843     2A    -20.731902     3A    -20.731470  
       4A    -20.719451     5A    -20.710929     6A    -20.705979  
       7A    -20.702439     8A     -2.873666     9A     -1.598700  
      10A     -1.598340    11A     -1.597466    12A     -1.519352  
      13A     -1.515774    14A     -1.509276    15A     -1.500141  
      16A     -1.469077    17A     -1.466464    18A     -0.883207  
      19A     -0.879873    20A     -0.868085    21A     -0.853735  
      22A     -0.840328    23A     -0.830544    24A     -0.766393  
      25A     -0.755720    26A     -0.747309    27A     -0.740702  
      28A     -0.714895    29A     -0.705601    30A     -0.684230  
      31A     -0.673029    32A     -0.672253    33A     -0.657012  
      34A     -0.644774    35A     -0.640844  

    Virtual:                                                              

      36A     -0.093306    37A     -0.073345    38A     -0.068243  
      39A     -0.065525    40A     -0.046590    41A     -0.043628  
      42A     -0.041888    43A     -0.037957    44A     -0.035596  
      45A     -0.032410    46A     -0.029355    47A     -0.024568  
      48A     -0.021746    49A     -0.015137    50A     -0.011013  
      51A     -0.009555    52A     -0.008567    53A     -0.004418  
      54A     -0.001015    55A      0.002082    56A      0.013229  
      57A      0.019541    58A      0.022581    59A      0.025161  
      60A      0.026322    61A      0.043920    62A      0.048590  
      63A      0.055569    64A      0.064012    65A      0.068615  
      66A      0.071356    67A      0.071708    68A      0.074886  
      69A      0.083569    70A      0.089024    71A      0.090808  
      72A      0.099061    73A      0.101392    74A      0.103396  
      75A      0.107027    76A      0.108732    77A      0.119024  
      78A      0.120406    79A      0.125686    80A      0.129458  
      81A      0.131775    82A      0.135979    83A      0.136846  
      84A      0.143537    85A      0.155445    86A      0.158521  
      87A      0.161922    88A      0.167834    89A      0.178343  
      90A      0.182196    91A      0.193535    92A      0.195095  
      93A      0.197932    94A      0.201167    95A      0.203323  
      96A      0.214750    97A      0.216519    98A      0.225273  
      99A      0.232562   100A      0.236126   101A      0.240695  
     102A      0.250738   103A      0.262335   104A      0.272927  
     105A      0.283207   106A      0.291973   107A      0.295606  
     108A      0.301458   109A      0.302063   110A      0.313379  
     111A      0.318646   112A      0.320445   113A      0.321573  
     114A      0.327682   115A      0.331271   116A      0.336461  
     117A      0.337581   118A      0.342949   119A      0.345834  
     120A      0.349428   121A      0.351847   122A      0.357356  
     123A      0.361262   124A      0.362482   125A      0.367830  
     126A      0.369543   127A      0.373368   128A      0.377795  
     129A      0.381724   130A      0.385625   131A      0.389163  
     132A      0.391763   133A      0.395954   134A      0.399368  
     135A      0.402733   136A      0.407175   137A      0.413121  
     138A      0.417753   139A      0.428605   140A      0.434466  
     141A      0.438194   142A      0.440586   143A      0.445082  
     144A      0.451226   145A      0.454954   146A      0.460927  
     147A      0.476907   148A      0.478621   149A      0.499689  
     150A      0.508301   151A      0.518274   152A      0.525772  
     153A      0.545731   154A      0.563636   155A      0.565259  
     156A      0.583446   157A      0.590865   158A      0.599849  
     159A      0.601357   160A      0.610629   161A      0.615041  
     162A      0.620771   163A      0.633006   164A      0.636454  
     165A      0.653748   166A      0.654388   167A      0.658257  
     168A      0.666020   169A      0.682416   170A      0.689260  
     171A      0.697329   172A      0.703727   173A      0.711392  
     174A      0.717625   175A      0.729260   176A      0.729992  
     177A      0.740969   178A      0.749884   179A      0.759270  
     180A      0.768309   181A      0.771292   182A      0.776901  
     183A      0.780903   184A      0.790702   185A      0.794714  
     186A      0.803617   187A      0.807720   188A      0.812883  
     189A      0.817818   190A      0.824146   191A      0.830472  
     192A      0.837034   193A      0.840962   194A      0.854182  
     195A      0.855192   196A      0.858870   197A      0.869370  
     198A      0.871716   199A      0.877627   200A      0.882764  
     201A      0.887050   202A      0.896001   203A      0.897019  
     204A      0.902869   205A      0.908110   206A      0.913019  
     207A      0.916246   208A      0.925307   209A      0.936022  
     210A      0.937563   211A      0.938580   212A      0.950257  
     213A      0.953069   214A      0.957454   215A      0.962351  
     216A      0.969813   217A      0.974341   218A      0.979547  
     219A      0.988932   220A      0.998792   221A      0.999966  
     222A      1.003442   223A      1.018836   224A      1.020892  
     225A      1.024000   226A      1.029961   227A      1.045493  
     228A      1.051776   229A      1.053835   230A      1.060570  
     231A      1.071976   232A      1.074230   233A      1.083459  
     234A      1.095594   235A      1.098663   236A      1.102133  
     237A      1.109986   238A      1.112292   239A      1.124604  
     240A      1.135907   241A      1.138914   242A      1.143313  
     243A      1.151137   244A      1.161050   245A      1.169056  
     246A      1.179174   247A      1.185881   248A      1.186540  
     249A      1.190555   250A      1.204135   251A      1.207870  
     252A      1.219887   253A      1.231063   254A      1.236020  
     255A      1.248064   256A      1.251172   257A      1.267614  
     258A      1.273330   259A      1.280148   260A      1.301544  
     261A      1.306834   262A      1.310542   263A      1.331623  
     264A      1.336305   265A      1.349582   266A      1.357793  
     267A      1.373028   268A      1.380548   269A      1.389781  
     270A      1.395599   271A      1.408420   272A      1.419021  
     273A      1.421132   274A      1.440150   275A      1.459568  
     276A      1.465977   277A      1.474791   278A      1.488513  
     279A      1.502634   280A      1.526193   281A      1.528100  
     282A      1.549259   283A      1.558534   284A      1.566055  
     285A      1.572693   286A      1.583458   287A      1.594319  
     288A      1.598306   289A      1.616482   290A      1.628048  
     291A      1.649785   292A      1.653704   293A      1.672380  
     294A      1.682141   295A      1.683734   296A      1.693058  
     297A      1.698691   298A      1.711560   299A      1.714231  
     300A      1.733270   301A      1.738928   302A      1.766252  
     303A      1.769236   304A      1.788125   305A      1.799457  
     306A      1.808306   307A      1.855287   308A      1.870686  
     309A      1.877489   310A      1.891640   311A      1.907142  
     312A      1.922959   313A      1.939083   314A      1.948549  
     315A      1.957591   316A      1.967484   317A      1.975001  
     318A      1.990361   319A      2.018856   320A      2.045621  
     321A      2.057315   322A      2.077824   323A      2.100393  
     324A      2.123786   325A      2.142442   326A      2.207713  
     327A      2.222059   328A      2.231889   329A      2.243457  
     330A      2.254774   331A      2.264781   332A      2.283222  
     333A      2.286933   334A      2.301480   335A      2.308092  
     336A      2.315095   337A      2.320463   338A      2.343010  
     339A      2.343179   340A      2.357689   341A      2.370616  
     342A      2.375549   343A      2.388252   344A      2.395233  
     345A      2.410944   346A      2.426164   347A      2.432195  
     348A      2.439668   349A      2.450622   350A      2.471709  
     351A      2.484746   352A      2.486612   353A      2.508836  
     354A      2.513287   355A      2.515817   356A      2.530641  
     357A      2.540205   358A      2.552382   359A      2.560695  
     360A      2.564119   361A      2.588244   362A      2.596868  
     363A      2.608784   364A      2.623074   365A      2.625823  
     366A      2.636132   367A      2.637997   368A      2.657092  
     369A      2.665985   370A      2.682685   371A      2.685226  
     372A      2.687121   373A      2.696756   374A      2.709442  
     375A      2.717958   376A      2.732795   377A      2.738096  
     378A      2.751405   379A      2.767007   380A      2.783605  
     381A      2.795906   382A      2.806456   383A      2.807543  
     384A      2.819798   385A      2.825125   386A      2.838741  
     387A      2.840100   388A      2.855098   389A      2.862982  
     390A      2.882001   391A      2.885404   392A      2.900791  
     393A      2.908829   394A      2.925080   395A      2.935218  
     396A      2.942539   397A      3.012484   398A      3.371586  
     399A      3.642180   400A      3.646601   401A      3.666702  
     402A      3.673803   403A      3.703217   404A      3.724466  
     405A      3.751958   406A      3.783820   407A      3.792187  
     408A      3.802669   409A      3.814165   410A      3.863337  
     411A      3.968948   412A      3.990659   413A      4.003128  
     414A      4.019126   415A      4.034325   416A      4.047839  
     417A      4.052106   418A      4.090974   419A      4.098245  
     420A      4.111453   421A      4.127621   422A      4.144101  
     423A      4.148293   424A      4.161387   425A      4.170350  
     426A      4.173800   427A      4.191134   428A      4.205487  
     429A      4.212198   430A      4.226038   431A      4.230160  
     432A      4.249381   433A      4.269532   434A      4.285718  
     435A      4.287895   436A      4.299184   437A      4.301981  
     438A      4.318764   439A      4.332131   440A      4.352170  
     441A      4.364169   442A      4.367973   443A      4.375431  
     444A      4.388158   445A      4.390773   446A      4.401811  
     447A      4.426467   448A      4.431296   449A      4.446238  
     450A      4.446963   451A      4.461944   452A      4.464184  
     453A      4.470871   454A      4.477148   455A      4.477580  
     456A      4.502956   457A      4.512519   458A      4.515233  
     459A      4.528022   460A      4.535889   461A      4.549255  
     462A      4.585066   463A      4.590733   464A      4.619327  
     465A      4.643437   466A      4.648082   467A      4.678656  
     468A      4.688471   469A      4.709093   470A      4.721751  
     471A      4.760628   472A      4.766560   473A      4.784740  
     474A      4.828031   475A      4.838519   476A      4.855377  
     477A      4.930574   478A      4.961074   479A      4.972105  
     480A      4.975346   481A      4.996117   482A      5.022402  
     483A      5.041345   484A      5.051977   485A      5.058550  
     486A      5.099628   487A      5.110322   488A      5.121261  
     489A      5.124806   490A      5.131024   491A      5.160869  
     492A      5.179690   493A      5.200374   494A      5.202910  
     495A      5.211816   496A      5.237765   497A      5.275207  
     498A      5.289518   499A      5.313492   500A      5.354868  
     501A      5.365763   502A      5.374815   503A      5.404580  
     504A      5.441005   505A      5.462908   506A      5.520642  
     507A      5.602077   508A      5.626435   509A      5.658708  
     510A      5.669860   511A      5.694645   512A      5.716026  
     513A      6.110720   514A      6.120032   515A      6.128147  
     516A      6.205170   517A      6.231940   518A      6.247862  
     519A      6.454783   520A      6.468382   521A      6.505602  
     522A      6.530028   523A      6.535324   524A      6.557299  
     525A      6.617795   526A      6.635763   527A      6.648627  
     528A      6.658999   529A      6.675004   530A      6.688638  
     531A      6.752408   532A      6.773480   533A      6.793933  
     534A      6.839032   535A      6.888102   536A      6.903533  
     537A      7.008225   538A      7.015308   539A      7.026287  
     540A      7.043188   541A      7.047098   542A      7.066028  
     543A      7.142003   544A      7.149405   545A      7.152073  
     546A      7.161441   547A      7.166594   548A      7.169909  
     549A      7.182397   550A      7.186513   551A      7.208906  
     552A      7.218641   553A      7.227518   554A      7.229550  
     555A      7.240101   556A      7.242481   557A      7.245775  
     558A      7.252820   559A      7.263947   560A      7.274621  
     561A      7.281475   562A      7.282114   563A      7.291016  
     564A      7.303852   565A      7.321440   566A      7.324055  
     567A      7.324953   568A      7.338214   569A      7.351030  
     570A      7.380008   571A      7.386778   572A      7.411685  
     573A      7.460356   574A      7.484690   575A      7.547831  
     576A      7.560066   577A      7.582550   578A      7.628304  
     579A      7.723633   580A      7.744602   581A      7.758848  
     582A      7.766734   583A      7.789457   584A      7.797671  
     585A      7.830187   586A      7.846802   587A      7.865970  
     588A      7.902634   589A      7.932803   590A      7.968215  
     591A      8.529543   592A      8.548402   593A      8.638928  
     594A      8.731486   595A      8.802986   596A      8.835298  
     597A     14.894781   598A     15.320434   599A     15.665845  
     600A     16.079831   601A     16.324559   602A     16.567744  

    Final Occupation by Irrep:
              A 
    DOCC [    35 ]
    NA   [    35 ]
    NB   [    35 ]

  @DF-RHF Final Energy:  -618.14276762420377

   => Energetics <=

    Nuclear Repulsion Energy =            396.9482897864853612
    One-Electron Energy =               -1640.0585029683934408
    Two-Electron Energy =                 624.9674455577041954
    Total Energy =                       -618.1427676242037705

Computation Completed


Properties will be evaluated at   0.000000,   0.000000,   0.000000 [a0]

Properties computed using the SCF density matrix


 Multipole Moments:

 ------------------------------------------------------------------------------------
     Multipole            Electronic (a.u.)      Nuclear  (a.u.)        Total (a.u.)
 ------------------------------------------------------------------------------------

 L = 1.  Multiply by 2.5417464519 to convert [e a0] to [Debye]
 Dipole X            :         -4.4920072            3.0348529           -1.4571543
 Dipole Y            :         -7.2045699            7.3018054            0.0972354
 Dipole Z            :         -9.1235176            8.7338058           -0.3897118
 Magnitude           :                                                    1.5114988

 ------------------------------------------------------------------------------------

*** tstop() called on ddmfs1 at Mon Jan 22 15:20:02 2024
Module time:
	user time   =     208.66 seconds =       3.48 minutes
	system time =      13.19 seconds =       0.22 minutes
	total time  =         14 seconds =       0.23 minutes
Total time:
	user time   =     208.66 seconds =       3.48 minutes
	system time =      13.19 seconds =       0.22 minutes
	total time  =         14 seconds =       0.23 minutes

*** tstart() called on ddmfs1
*** at Mon Jan 22 15:20:02 2024


  //>>>>>>>>>>>>>>>>>>>>>>>>>>>>>>>>>>>//
  //               DFMP2               //
  //<<<<<<<<<<<<<<<<<<<<<<<<<<<<<<<<<<<//

   => Loading Basis Set <=

    Name: (AUG-CC-PVTZ AUX)
    Role: RIFIT
    Keyword: DF_BASIS_MP2
    atoms 1                                   entry NA         line   610 file /ddmfs1b/softs/psi4conda/share/psi4/basis/def2-qzvpp-ri.gbs 
    atoms 2, 5, 8, 11, 14, 17                 entry O          line   264 file /ddmfs1b/softs/psi4conda/share/psi4/basis/aug-cc-pvtz-ri.gbs 
    atoms 3-4, 6-7, 9-10, 12-13, 15-16, 18-19 entry H          line    30 file /ddmfs1b/softs/psi4conda/share/psi4/basis/aug-cc-pvtz-ri.gbs 

	 --------------------------------------------------------
	                          DF-MP2                         
	      2nd-Order Density-Fitted Moller-Plesset Theory     
	              RMP2 Wavefunction,  20 Threads             
	                                                         
	        Rob Parrish, Justin Turney, Andy Simmonett,      
	           Ed Hohenstein, and C. David Sherrill          
	 --------------------------------------------------------

   => Auxiliary Basis Set <=

  Basis Set: (AUG-CC-PVTZ AUX)
    Blend: AUG-CC-PVTZ-RI + DEF2-QZVPP-RI
    Number of shells: 378
    Number of basis functions: 1354
    Number of Cartesian functions: 1690
    Spherical Harmonics?: true
    Max angular momentum: 4

	 --------------------------------------------------------
	                 NBF =   602, NAUX =  1354
	 --------------------------------------------------------
	   CLASS    FOCC     OCC    AOCC    AVIR     VIR    FVIR
	   PAIRS       0      35      35     567     567       0
	 --------------------------------------------------------

	-----------------------------------------------------------
	 ==================> DF-MP2 Energies <==================== 
	-----------------------------------------------------------
	 Reference Energy          =    -618.1427676242037705 [Eh]
	 Singles Energy            =      -0.0000000000000000 [Eh]
	 Same-Spin Energy          =      -0.4219550908490181 [Eh]
	 Opposite-Spin Energy      =      -1.3198808087228828 [Eh]
	 Correlation Energy        =      -1.7418358995719010 [Eh]
	 Total Energy              =    -619.8846035237756951 [Eh]
	-----------------------------------------------------------
	 ================> DF-SCS-MP2 Energies <================== 
	-----------------------------------------------------------
	 SCS Same-Spin Scale       =       0.3333333333333333 [-]
	 SCS Opposite-Spin Scale   =       1.2000000000000000 [-]
	 SCS Same-Spin Energy      =      -0.1406516969496727 [Eh]
	 SCS Opposite-Spin Energy  =      -1.5838569704674594 [Eh]
	 SCS Correlation Energy    =      -1.7245086674171322 [Eh]
	 SCS Total Energy          =    -619.8672762916208967 [Eh]
	-----------------------------------------------------------


*** tstop() called on ddmfs1 at Mon Jan 22 15:20:13 2024
Module time:
	user time   =      71.10 seconds =       1.18 minutes
	system time =       3.27 seconds =       0.05 minutes
	total time  =         11 seconds =       0.18 minutes
Total time:
	user time   =     279.77 seconds =       4.66 minutes
	system time =      16.46 seconds =       0.27 minutes
	total time  =         25 seconds =       0.42 minutes

    Psi4 stopped on: Monday, 22 January 2024 03:20PM
    Psi4 wall time for execution: 0:00:24.15

*** Psi4 exiting successfully. Buy a developer a beer!
