
    -----------------------------------------------------------------------
          Psi4: An Open-Source Ab Initio Electronic Structure Package
                               Psi4 1.8.2 release

                         Git: Rev {} zzzzzzz 


    D. G. A. Smith, L. A. Burns, A. C. Simmonett, R. M. Parrish,
    M. C. Schieber, R. Galvelis, P. Kraus, H. Kruse, R. Di Remigio,
    A. Alenaizan, A. M. James, S. Lehtola, J. P. Misiewicz, M. Scheurer,
    R. A. Shaw, J. B. Schriber, Y. Xie, Z. L. Glick, D. A. Sirianni,
    J. S. O'Brien, J. M. Waldrop, A. Kumar, E. G. Hohenstein,
    B. P. Pritchard, B. R. Brooks, H. F. Schaefer III, A. Yu. Sokolov,
    K. Patkowski, A. E. DePrince III, U. Bozkaya, R. A. King,
    F. A. Evangelista, J. M. Turney, T. D. Crawford, C. D. Sherrill,
    J. Chem. Phys. 152(18) 184108 (2020). https://doi.org/10.1063/5.0006002

                            Additional Code Authors
    E. T. Seidl, C. L. Janssen, E. F. Valeev, M. L. Leininger,
    J. F. Gonthier, R. M. Richard, H. R. McAlexander, M. Saitow, X. Wang,
    P. Verma, M. H. Lechner, A. Jiang, S. Behnle, A. G. Heide,
    M. F. Herbst, and D. L. Poole

             Previous Authors, Complete List of Code Contributors,
                       and Citations for Specific Modules
    https://github.com/psi4/psi4/blob/master/codemeta.json
    https://github.com/psi4/psi4/graphs/contributors
    http://psicode.org/psi4manual/master/introduction.html#citing-psifour

    -----------------------------------------------------------------------


    Psi4 started on: Monday, 22 January 2024 04:28PM

    Process ID: 78060
    Host:       ddmfs1
    PSIDATADIR: /ddmfs1b/softs/psi4conda/share/psi4
    Memory:     500.0 MiB
    Threads:    20
    
  ==> Input File <==

--------------------------------------------------------------------------
MEMORY 60 GB

molecule dimer {
0 1
Gh(Na)     0.000000     0.000000     0.000000
O         -0.673232    -1.361551     1.844656
H         -1.547116    -1.792032     1.858565
H         -0.316973    -1.439934     2.743867
Gh(O)      0.336907     1.936373     1.176897
Gh(H)      0.697941     1.645446     2.028898
Gh(H)     -0.264584     2.611499     1.395482
Gh(O)      2.529759    -0.112909    -0.584417
Gh(H)      2.441833     0.580572    -1.291541
Gh(H)      2.910429    -0.881984    -1.056684
Gh(O)     -0.010284    -1.811195    -1.348257
Gh(H)      0.547324    -2.624263    -1.265891
Gh(H)     -0.939829    -2.087539    -1.346780
Gh(O)     -2.278247     0.340150    -0.389340
Gh(H)     -3.045876     0.723307     0.114275
Gh(H)     -2.643174    -0.488879    -0.716904

units ang
no_reorient
no_com
symmetry c1
}

set {
basis        aug-cc-pVTZ
scf_type     df
}

energy("mp2")
--------------------------------------------------------------------------

  Memory set to  55.879 GiB by Python driver.

Scratch directory: /ddmfs1a/scratch/
   => Libint2 <=

    Primary   basis highest AM E, G, H:  5, 4, 3
    Auxiliary basis highest AM E, G, H:  6, 5, 4
    Onebody   basis highest AM E, G, H:  6, 5, 4
    Solid Harmonics ordering:            gaussian

*** tstart() called on ddmfs1
*** at Mon Jan 22 16:28:34 2024

   => Loading Basis Set <=

    Name: AUG-CC-PVTZ
    Role: ORBITAL
    Keyword: BASIS
    atoms 1                            entry NA         line   469 file /ddmfs1b/softs/psi4conda/share/psi4/basis/aug-cc-pvtz.gbs 
    atoms 2, 5, 8, 11, 14              entry O          line   331 file /ddmfs1b/softs/psi4conda/share/psi4/basis/aug-cc-pvtz.gbs 
    atoms 3-4, 6-7, 9-10, 12-13, 15-16 entry H          line    40 file /ddmfs1b/softs/psi4conda/share/psi4/basis/aug-cc-pvtz.gbs 


         ---------------------------------------------------------
                                   SCF
               by Justin Turney, Rob Parrish, Andy Simmonett
                          and Daniel G. A. Smith
                              RHF Reference
                       20 Threads,  57220 MiB Core
         ---------------------------------------------------------

  ==> Geometry <==

    Molecular point group: c1
    Full point group: C1

    Geometry (in Angstrom), charge = 0, multiplicity = 1:

       Center              X                  Y                   Z               Mass       
    ------------   -----------------  -----------------  -----------------  -----------------
      Gh(NA)          0.000000000000     0.000000000000     0.000000000000    22.989769282000
         O           -0.673232000000    -1.361551000000     1.844656000000    15.994914619570
         H           -1.547116000000    -1.792032000000     1.858565000000     1.007825032230
         H           -0.316973000000    -1.439934000000     2.743867000000     1.007825032230
      Gh(O)           0.336907000000     1.936373000000     1.176897000000    15.994914619570
      Gh(H)           0.697941000000     1.645446000000     2.028898000000     1.007825032230
      Gh(H)          -0.264584000000     2.611499000000     1.395482000000     1.007825032230
      Gh(O)           2.529759000000    -0.112909000000    -0.584417000000    15.994914619570
      Gh(H)           2.441833000000     0.580572000000    -1.291541000000     1.007825032230
      Gh(H)           2.910429000000    -0.881984000000    -1.056684000000     1.007825032230
      Gh(O)          -0.010284000000    -1.811195000000    -1.348257000000    15.994914619570
      Gh(H)           0.547324000000    -2.624263000000    -1.265891000000     1.007825032230
      Gh(H)          -0.939829000000    -2.087539000000    -1.346780000000     1.007825032230
      Gh(O)          -2.278247000000     0.340150000000    -0.389340000000    15.994914619570
      Gh(H)          -3.045876000000     0.723307000000     0.114275000000     1.007825032230
      Gh(H)          -2.643174000000    -0.488879000000    -0.716904000000     1.007825032230

  Running in c1 symmetry.

  Rotational constants: A =      0.05599  B =      0.04936  C =      0.03864 [cm^-1]
  Rotational constants: A =   1678.59546  B =   1479.68530  C =   1158.31685 [MHz]
  Nuclear repulsion =    9.047989894211643

  Charge       = 0
  Multiplicity = 1
  Electrons    = 10
  Nalpha       = 5
  Nbeta        = 5

  ==> Algorithm <==

  SCF Algorithm Type is DF.
  DIIS enabled.
  MOM disabled.
  Fractional occupation disabled.
  Guess Type is SAD.
  Energy threshold   = 1.00e-08
  Density threshold  = 1.00e-08
  Integral threshold = 1.00e-12

  ==> Primary Basis <==

  Basis Set: AUG-CC-PVTZ
    Blend: AUG-CC-PVTZ
    Number of shells: 176
    Number of basis functions: 510
    Number of Cartesian functions: 584
    Spherical Harmonics?: true
    Max angular momentum: 3

   => Loading Basis Set <=

    Name: (AUG-CC-PVTZ AUX)
    Role: JKFIT
    Keyword: DF_BASIS_SCF
    atoms 1                            entry NA         line   498 file /ddmfs1b/softs/psi4conda/share/psi4/basis/def2-universal-jkfit.gbs 
    atoms 2, 5, 8, 11, 14              entry O          line   286 file /ddmfs1b/softs/psi4conda/share/psi4/basis/aug-cc-pvtz-jkfit.gbs 
    atoms 3-4, 6-7, 9-10, 12-13, 15-16 entry H          line    70 file /ddmfs1b/softs/psi4conda/share/psi4/basis/aug-cc-pvtz-jkfit.gbs 

  ==> Integral Setup <==

  DFHelper Memory: AOs need 2.038 GiB; user supplied 41.910 GiB. 
  Using in-core AOs.

  ==> MemDFJK: Density-Fitted J/K Matrices <==

    J tasked:                   Yes
    K tasked:                   Yes
    wK tasked:                   No
    OpenMP threads:              20
    Memory [MiB]:             42915
    Algorithm:                 Core
    Schwarz Cutoff:           1E-12
    Mask sparsity (%):       8.4344
    Fitting Condition:        1E-10

   => Auxiliary Basis Set <=

  Basis Set: (AUG-CC-PVTZ AUX)
    Blend: AUG-CC-PVTZ-JKFIT + DEF2-UNIVERSAL-JKFIT
    Number of shells: 324
    Number of basis functions: 1092
    Number of Cartesian functions: 1342
    Spherical Harmonics?: true
    Max angular momentum: 4

  Minimum eigenvalue in the overlap matrix is 3.3434373784E-05.
  Reciprocal condition number of the overlap matrix is 2.4049294986E-06.
    Using symmetric orthogonalization.

  ==> Pre-Iterations <==

  SCF Guess: Superposition of Atomic Densities via on-the-fly atomic UHF (no occupation information).

   -------------------------
    Irrep   Nso     Nmo    
   -------------------------
     A        510     510 
   -------------------------
    Total     510     510
   -------------------------

  ==> Iterations <==

                           Total Energy        Delta E     RMS |[F,P]|

   @DF-RHF iter SAD:   -75.45879032942244   -7.54588e+01   0.00000e+00 
   @DF-RHF iter   1:   -75.97456223892154   -5.15772e-01   9.16403e-04 ADIIS/DIIS
   @DF-RHF iter   2:   -76.02657754662049   -5.20153e-02   6.32567e-04 ADIIS/DIIS
   @DF-RHF iter   3:   -76.05884274478504   -3.22652e-02   4.31115e-05 DIIS
   @DF-RHF iter   4:   -76.05925238545399   -4.09641e-04   1.06154e-05 DIIS
   @DF-RHF iter   5:   -76.05927960401840   -2.72186e-05   2.43384e-06 DIIS
   @DF-RHF iter   6:   -76.05928187875249   -2.27473e-06   5.38840e-07 DIIS
   @DF-RHF iter   7:   -76.05928200115927   -1.22407e-07   9.85327e-08 DIIS
   @DF-RHF iter   8:   -76.05928200474450   -3.58523e-09   1.67528e-08 DIIS
   @DF-RHF iter   9:   -76.05928200482775   -8.32472e-11   4.27074e-09 DIIS
  Energy and wave function converged.


  ==> Post-Iterations <==

    Orbital Energies [Eh]
    ---------------------

    Doubly Occupied:                                                      

       1A    -20.568844     2A     -1.344596     3A     -0.712830  
       4A     -0.578539     5A     -0.508532  

    Virtual:                                                              

       6A      0.008071     7A      0.016429     8A      0.016934  
       9A      0.018255    10A      0.040441    11A      0.051565  
      12A      0.052778    13A      0.054776    14A      0.057260  
      15A      0.058492    16A      0.059078    17A      0.060093  
      18A      0.065060    19A      0.079669    20A      0.081386  
      21A      0.082787    22A      0.087249    23A      0.089298  
      24A      0.092486    25A      0.099928    26A      0.109522  
      27A      0.115726    28A      0.121863    29A      0.138142  
      30A      0.142141    31A      0.147517    32A      0.162924  
      33A      0.170475    34A      0.175362    35A      0.178073  
      36A      0.180805    37A      0.184926    38A      0.190922  
      39A      0.201374    40A      0.205528    41A      0.209374  
      42A      0.214150    43A      0.216618    44A      0.223072  
      45A      0.226905    46A      0.235634    47A      0.244370  
      48A      0.247207    49A      0.266039    50A      0.268946  
      51A      0.274947    52A      0.281704    53A      0.289494  
      54A      0.292118    55A      0.313158    56A      0.319083  
      57A      0.324318    58A      0.328349    59A      0.336975  
      60A      0.337616    61A      0.352902    62A      0.355551  
      63A      0.362641    64A      0.371674    65A      0.372233  
      66A      0.374867    67A      0.386453    68A      0.393977  
      69A      0.399811    70A      0.403362    71A      0.410261  
      72A      0.416343    73A      0.419539    74A      0.421020  
      75A      0.428744    76A      0.431921    77A      0.436536  
      78A      0.441502    79A      0.450468    80A      0.450849  
      81A      0.451633    82A      0.457267    83A      0.462779  
      84A      0.467121    85A      0.472864    86A      0.477327  
      87A      0.483383    88A      0.485950    89A      0.488873  
      90A      0.497523    91A      0.499015    92A      0.506936  
      93A      0.511556    94A      0.513776    95A      0.528201  
      96A      0.536055    97A      0.547586    98A      0.559254  
      99A      0.567439   100A      0.575298   101A      0.584168  
     102A      0.597502   103A      0.615643   104A      0.624459  
     105A      0.645449   106A      0.650932   107A      0.668705  
     108A      0.701366   109A      0.716991   110A      0.727849  
     111A      0.733882   112A      0.741979   113A      0.751601  
     114A      0.752594   115A      0.758195   116A      0.781527  
     117A      0.791791   118A      0.795837   119A      0.803888  
     120A      0.807360   121A      0.810972   122A      0.823052  
     123A      0.827815   124A      0.845016   125A      0.852331  
     126A      0.853648   127A      0.861438   128A      0.870168  
     129A      0.876023   130A      0.881544   131A      0.889502  
     132A      0.893570   133A      0.903149   134A      0.910320  
     135A      0.919435   136A      0.923862   137A      0.931879  
     138A      0.943384   139A      0.945919   140A      0.945971  
     141A      0.957460   142A      0.964552   143A      0.970494  
     144A      0.983847   145A      0.988385   146A      0.993820  
     147A      1.007585   148A      1.014890   149A      1.016753  
     150A      1.025671   151A      1.029450   152A      1.037043  
     153A      1.046980   154A      1.049693   155A      1.056356  
     156A      1.060248   157A      1.066451   158A      1.072193  
     159A      1.075301   160A      1.088965   161A      1.096686  
     162A      1.107397   163A      1.113805   164A      1.121116  
     165A      1.123486   166A      1.134719   167A      1.135323  
     168A      1.144985   169A      1.146735   170A      1.164753  
     171A      1.166160   172A      1.176614   173A      1.179532  
     174A      1.188134   175A      1.199851   176A      1.207546  
     177A      1.211987   178A      1.216945   179A      1.225386  
     180A      1.232482   181A      1.241507   182A      1.253185  
     183A      1.270219   184A      1.275312   185A      1.288746  
     186A      1.295576   187A      1.304683   188A      1.312535  
     189A      1.318898   190A      1.326805   191A      1.338541  
     192A      1.346749   193A      1.358067   194A      1.371103  
     195A      1.375419   196A      1.382616   197A      1.391438  
     198A      1.401783   199A      1.410462   200A      1.416050  
     201A      1.429380   202A      1.441316   203A      1.463292  
     204A      1.469794   205A      1.484177   206A      1.490285  
     207A      1.508114   208A      1.524908   209A      1.537206  
     210A      1.545759   211A      1.565109   212A      1.570609  
     213A      1.584120   214A      1.595776   215A      1.615082  
     216A      1.623975   217A      1.644298   218A      1.669464  
     219A      1.683255   220A      1.694365   221A      1.699681  
     222A      1.737344   223A      1.749875   224A      1.760922  
     225A      1.762539   226A      1.801389   227A      1.829686  
     228A      1.843826   229A      1.854621   230A      1.865855  
     231A      1.871153   232A      1.874978   233A      1.886571  
     234A      1.903368   235A      1.907006   236A      1.924092  
     237A      1.931311   238A      1.939134   239A      1.947475  
     240A      1.970582   241A      1.984833   242A      1.993202  
     243A      1.998157   244A      2.014434   245A      2.041591  
     246A      2.045824   247A      2.061502   248A      2.073769  
     249A      2.100881   250A      2.113040   251A      2.124077  
     252A      2.156469   253A      2.190032   254A      2.211771  
     255A      2.287422   256A      2.381434   257A      2.425158  
     258A      2.455900   259A      2.465290   260A      2.478286  
     261A      2.491002   262A      2.527572   263A      2.531755  
     264A      2.548079   265A      2.561387   266A      2.582214  
     267A      2.587247   268A      2.603931   269A      2.608159  
     270A      2.628032   271A      2.639425   272A      2.647213  
     273A      2.654658   274A      2.662789   275A      2.672739  
     276A      2.676277   277A      2.696116   278A      2.708183  
     279A      2.718821   280A      2.756207   281A      2.773229  
     282A      2.775946   283A      2.790089   284A      2.793378  
     285A      2.813101   286A      2.826258   287A      2.857823  
     288A      2.877176   289A      2.902653   290A      2.909815  
     291A      2.918013   292A      2.929246   293A      2.945682  
     294A      2.950745   295A      2.978660   296A      2.983582  
     297A      3.017169   298A      3.056814   299A      3.120964  
     300A      3.131606   301A      3.149491   302A      3.176952  
     303A      3.200710   304A      3.213157   305A      3.217430  
     306A      3.235425   307A      3.259677   308A      3.270321  
     309A      3.290278   310A      3.298899   311A      3.322331  
     312A      3.335174   313A      3.347491   314A      3.362932  
     315A      3.381877   316A      3.394351   317A      3.410448  
     318A      3.413801   319A      3.428847   320A      3.445737  
     321A      3.446598   322A      3.490937   323A      3.513081  
     324A      3.627814   325A      3.635311   326A      3.648214  
     327A      3.686676   328A      3.755588   329A      3.770745  
     330A      3.788108   331A      3.817603   332A      3.852576  
     333A      3.900795   334A      4.117257   335A      4.262783  
     336A      4.275758   337A      4.301097   338A      4.383258  
     339A      4.415985   340A      4.428961   341A      4.449154  
     342A      4.461234   343A      4.499627   344A      4.513500  
     345A      4.517762   346A      4.539956   347A      4.547931  
     348A      4.562918   349A      4.577971   350A      4.596615  
     351A      4.604807   352A      4.619753   353A      4.635080  
     354A      4.639210   355A      4.655188   356A      4.671668  
     357A      4.686933   358A      4.703180   359A      4.713963  
     360A      4.740576   361A      4.767026   362A      4.772183  
     363A      4.781296   364A      4.814998   365A      4.830661  
     366A      4.846335   367A      4.856671   368A      4.877373  
     369A      4.967667   370A      5.005054   371A      5.015749  
     372A      5.038038   373A      5.046399   374A      5.048298  
     375A      5.060685   376A      5.084888   377A      5.112431  
     378A      5.121588   379A      5.142601   380A      5.171568  
     381A      5.200193   382A      5.216704   383A      5.251722  
     384A      5.259757   385A      5.277531   386A      5.328454  
     387A      5.340535   388A      5.368555   389A      5.464919  
     390A      5.497889   391A      5.509399   392A      5.553641  
     393A      5.564236   394A      5.593230   395A      5.600302  
     396A      5.619915   397A      5.630058   398A      5.650945  
     399A      5.662455   400A      5.700211   401A      5.758965  
     402A      5.814339   403A      5.856559   404A      5.870863  
     405A      5.886569   406A      5.959115   407A      5.982298  
     408A      6.216765   409A      6.245921   410A      6.273399  
     411A      6.297415   412A      6.331523   413A      6.339594  
     414A      6.354048   415A      6.389275   416A      6.496317  
     417A      6.603010   418A      6.609436   419A      6.649194  
     420A      6.742221   421A      6.773763   422A      6.800857  
     423A      6.945225   424A      6.984194   425A      6.995276  
     426A      7.059271   427A      7.129186   428A      7.185175  
     429A      7.200944   430A      7.311173   431A      7.339480  
     432A      7.393666   433A      7.404583   434A      7.472496  
     435A      7.523265   436A      7.580782   437A      7.688979  
     438A      7.726228   439A      7.758368   440A      7.765857  
     441A      7.792378   442A      7.855383   443A      7.863888  
     444A      7.888196   445A      7.916395   446A      7.942014  
     447A      7.972001   448A      8.097259   449A      8.110365  
     450A      8.145593   451A      8.154247   452A      8.168315  
     453A      8.170678   454A      8.249707   455A      8.256811  
     456A      8.285182   457A      8.295065   458A      8.303662  
     459A      8.365970   460A      8.617052   461A      8.717379  
     462A      8.751751   463A      8.775509   464A      8.798209  
     465A      8.824219   466A      8.847437   467A      8.898089  
     468A      8.955340   469A      9.846193   470A      9.939795  
     471A      9.955075   472A      9.986155   473A     10.004645  
     474A     10.022529   475A     10.028645   476A     10.032692  
     477A     10.053874   478A     10.066941   479A     10.081814  
     480A     10.091536   481A     10.230919   482A     10.241015  
     483A     10.266557   484A     10.304977   485A     11.083812  
     486A     11.108118   487A     11.140304   488A     11.303494  
     489A     11.832708   490A     11.845423   491A     11.886846  
     492A     11.914803   493A     11.982228   494A     12.079130  
     495A     12.156302   496A     12.455171   497A     13.455354  
     498A     13.524840   499A     13.536291   500A     13.711231  
     501A     13.927879   502A     13.952381   503A     13.968237  
     504A     14.022087   505A     15.747825   506A     63.897330  
     507A     64.666788   508A     64.929494   509A     65.194722  
     510A     66.421534  

    Final Occupation by Irrep:
              A 
    DOCC [     5 ]
    NA   [     5 ]
    NB   [     5 ]

  @DF-RHF Final Energy:   -76.05928200482775

   => Energetics <=

    Nuclear Repulsion Energy =              9.0479898942116428
    One-Electron Energy =                -122.7878557740547620
    Two-Electron Energy =                  37.6805838750153725
    Total Energy =                        -76.0592820048277503

Computation Completed


Properties will be evaluated at   0.000000,   0.000000,   0.000000 [a0]

Properties computed using the SCF density matrix


 Multipole Moments:

 ------------------------------------------------------------------------------------
     Multipole            Electronic (a.u.)      Nuclear  (a.u.)        Total (a.u.)
 ------------------------------------------------------------------------------------

 L = 1.  Multiply by 2.5417464519 to convert [e a0] to [Debye]
 Dipole X            :         13.3581937          -13.7004105           -0.3422167
 Dipole Y            :         26.3543246          -26.6911986           -0.3368740
 Dipole Z            :        -35.9794972           36.5844931            0.6049959
 Magnitude           :                                                    0.7724095

 ------------------------------------------------------------------------------------

*** tstop() called on ddmfs1 at Mon Jan 22 16:28:40 2024
Module time:
	user time   =      92.61 seconds =       1.54 minutes
	system time =       5.61 seconds =       0.09 minutes
	total time  =          6 seconds =       0.10 minutes
Total time:
	user time   =      92.61 seconds =       1.54 minutes
	system time =       5.61 seconds =       0.09 minutes
	total time  =          6 seconds =       0.10 minutes

*** tstart() called on ddmfs1
*** at Mon Jan 22 16:28:40 2024


  //>>>>>>>>>>>>>>>>>>>>>>>>>>>>>>>>>>>//
  //               DFMP2               //
  //<<<<<<<<<<<<<<<<<<<<<<<<<<<<<<<<<<<//

   => Loading Basis Set <=

    Name: (AUG-CC-PVTZ AUX)
    Role: RIFIT
    Keyword: DF_BASIS_MP2
    atoms 1                            entry NA         line   610 file /ddmfs1b/softs/psi4conda/share/psi4/basis/def2-qzvpp-ri.gbs 
    atoms 2, 5, 8, 11, 14              entry O          line   264 file /ddmfs1b/softs/psi4conda/share/psi4/basis/aug-cc-pvtz-ri.gbs 
    atoms 3-4, 6-7, 9-10, 12-13, 15-16 entry H          line    30 file /ddmfs1b/softs/psi4conda/share/psi4/basis/aug-cc-pvtz-ri.gbs 

	 --------------------------------------------------------
	                          DF-MP2                         
	      2nd-Order Density-Fitted Moller-Plesset Theory     
	              RMP2 Wavefunction,  20 Threads             
	                                                         
	        Rob Parrish, Justin Turney, Andy Simmonett,      
	           Ed Hohenstein, and C. David Sherrill          
	 --------------------------------------------------------

   => Auxiliary Basis Set <=

  Basis Set: (AUG-CC-PVTZ AUX)
    Blend: AUG-CC-PVTZ-RI + DEF2-QZVPP-RI
    Number of shells: 322
    Number of basis functions: 1156
    Number of Cartesian functions: 1444
    Spherical Harmonics?: true
    Max angular momentum: 4

	 --------------------------------------------------------
	                 NBF =   510, NAUX =  1156
	 --------------------------------------------------------
	   CLASS    FOCC     OCC    AOCC    AVIR     VIR    FVIR
	   PAIRS       0       5       5     505     505       0
	 --------------------------------------------------------

	-----------------------------------------------------------
	 ==================> DF-MP2 Energies <==================== 
	-----------------------------------------------------------
	 Reference Energy          =     -76.0592820048277503 [Eh]
	 Singles Energy            =      -0.0000000000000000 [Eh]
	 Same-Spin Energy          =      -0.0686331604263328 [Eh]
	 Opposite-Spin Energy      =      -0.2164716741892711 [Eh]
	 Correlation Energy        =      -0.2851048346156039 [Eh]
	 Total Energy              =     -76.3443868394433593 [Eh]
	-----------------------------------------------------------
	 ================> DF-SCS-MP2 Energies <================== 
	-----------------------------------------------------------
	 SCS Same-Spin Scale       =       0.3333333333333333 [-]
	 SCS Opposite-Spin Scale   =       1.2000000000000000 [-]
	 SCS Same-Spin Energy      =      -0.0228777201421109 [Eh]
	 SCS Opposite-Spin Energy  =      -0.2597660090271253 [Eh]
	 SCS Correlation Energy    =      -0.2826437291692362 [Eh]
	 SCS Total Energy          =     -76.3419257339969874 [Eh]
	-----------------------------------------------------------


*** tstop() called on ddmfs1 at Mon Jan 22 16:28:47 2024
Module time:
	user time   =      28.72 seconds =       0.48 minutes
	system time =       1.99 seconds =       0.03 minutes
	total time  =          7 seconds =       0.12 minutes
Total time:
	user time   =     121.35 seconds =       2.02 minutes
	system time =       7.60 seconds =       0.13 minutes
	total time  =         13 seconds =       0.22 minutes

    Psi4 stopped on: Monday, 22 January 2024 04:28PM
    Psi4 wall time for execution: 0:00:13.32

*** Psi4 exiting successfully. Buy a developer a beer!
