
    -----------------------------------------------------------------------
          Psi4: An Open-Source Ab Initio Electronic Structure Package
                               Psi4 1.8.2 release

                         Git: Rev {} zzzzzzz 


    D. G. A. Smith, L. A. Burns, A. C. Simmonett, R. M. Parrish,
    M. C. Schieber, R. Galvelis, P. Kraus, H. Kruse, R. Di Remigio,
    A. Alenaizan, A. M. James, S. Lehtola, J. P. Misiewicz, M. Scheurer,
    R. A. Shaw, J. B. Schriber, Y. Xie, Z. L. Glick, D. A. Sirianni,
    J. S. O'Brien, J. M. Waldrop, A. Kumar, E. G. Hohenstein,
    B. P. Pritchard, B. R. Brooks, H. F. Schaefer III, A. Yu. Sokolov,
    K. Patkowski, A. E. DePrince III, U. Bozkaya, R. A. King,
    F. A. Evangelista, J. M. Turney, T. D. Crawford, C. D. Sherrill,
    J. Chem. Phys. 152(18) 184108 (2020). https://doi.org/10.1063/5.0006002

                            Additional Code Authors
    E. T. Seidl, C. L. Janssen, E. F. Valeev, M. L. Leininger,
    J. F. Gonthier, R. M. Richard, H. R. McAlexander, M. Saitow, X. Wang,
    P. Verma, M. H. Lechner, A. Jiang, S. Behnle, A. G. Heide,
    M. F. Herbst, and D. L. Poole

             Previous Authors, Complete List of Code Contributors,
                       and Citations for Specific Modules
    https://github.com/psi4/psi4/blob/master/codemeta.json
    https://github.com/psi4/psi4/graphs/contributors
    http://psicode.org/psi4manual/master/introduction.html#citing-psifour

    -----------------------------------------------------------------------


    Psi4 started on: Monday, 22 January 2024 04:04PM

    Process ID: 75801
    Host:       ddmfs1
    PSIDATADIR: /ddmfs1b/softs/psi4conda/share/psi4
    Memory:     500.0 MiB
    Threads:    20
    
  ==> Input File <==

--------------------------------------------------------------------------
MEMORY 60 GB

molecule dimer {
0 1
Gh(Na)     0.000000     0.000000     0.000000
Gh(O)     -0.846206     1.202595     1.854346
Gh(H)     -1.394373     1.995479     2.024959
Gh(H)     -0.648149     0.790331     2.691139
O         -1.309742     1.323778    -1.628410
H         -1.163522     2.267977    -1.422263
H         -1.147540     1.263131    -2.577035
Gh(O)      1.237480    -1.823391     0.446021
Gh(H)      0.963790    -2.734554     0.597322
Gh(H)      2.174011    -1.658736     0.605497
Gh(O)     -1.574568    -1.883367    -0.384367
Gh(H)     -1.498784    -2.289933    -1.277612
Gh(H)     -2.507560    -1.716692    -0.387422

units ang
no_reorient
no_com
symmetry c1
}

set {
basis        aug-cc-pVTZ
scf_type     df
}

energy("mp2")
--------------------------------------------------------------------------

  Memory set to  55.879 GiB by Python driver.

Scratch directory: /ddmfs1a/scratch/
   => Libint2 <=

    Primary   basis highest AM E, G, H:  5, 4, 3
    Auxiliary basis highest AM E, G, H:  6, 5, 4
    Onebody   basis highest AM E, G, H:  6, 5, 4
    Solid Harmonics ordering:            gaussian

*** tstart() called on ddmfs1
*** at Mon Jan 22 16:04:02 2024

   => Loading Basis Set <=

    Name: AUG-CC-PVTZ
    Role: ORBITAL
    Keyword: BASIS
    atoms 1                     entry NA         line   469 file /ddmfs1b/softs/psi4conda/share/psi4/basis/aug-cc-pvtz.gbs 
    atoms 2, 5, 8, 11           entry O          line   331 file /ddmfs1b/softs/psi4conda/share/psi4/basis/aug-cc-pvtz.gbs 
    atoms 3-4, 6-7, 9-10, 12-13 entry H          line    40 file /ddmfs1b/softs/psi4conda/share/psi4/basis/aug-cc-pvtz.gbs 


         ---------------------------------------------------------
                                   SCF
               by Justin Turney, Rob Parrish, Andy Simmonett
                          and Daniel G. A. Smith
                              RHF Reference
                       20 Threads,  57220 MiB Core
         ---------------------------------------------------------

  ==> Geometry <==

    Molecular point group: c1
    Full point group: C1

    Geometry (in Angstrom), charge = 0, multiplicity = 1:

       Center              X                  Y                   Z               Mass       
    ------------   -----------------  -----------------  -----------------  -----------------
      Gh(NA)          0.000000000000     0.000000000000     0.000000000000    22.989769282000
      Gh(O)          -0.846206000000     1.202595000000     1.854346000000    15.994914619570
      Gh(H)          -1.394373000000     1.995479000000     2.024959000000     1.007825032230
      Gh(H)          -0.648149000000     0.790331000000     2.691139000000     1.007825032230
         O           -1.309742000000     1.323778000000    -1.628410000000    15.994914619570
         H           -1.163522000000     2.267977000000    -1.422263000000     1.007825032230
         H           -1.147540000000     1.263131000000    -2.577035000000     1.007825032230
      Gh(O)           1.237480000000    -1.823391000000     0.446021000000    15.994914619570
      Gh(H)           0.963790000000    -2.734554000000     0.597322000000     1.007825032230
      Gh(H)           2.174011000000    -1.658736000000     0.605497000000     1.007825032230
      Gh(O)          -1.574568000000    -1.883367000000    -0.384367000000    15.994914619570
      Gh(H)          -1.498784000000    -2.289933000000    -1.277612000000     1.007825032230
      Gh(H)          -2.507560000000    -1.716692000000    -0.387422000000     1.007825032230

  Running in c1 symmetry.

  Rotational constants: A =      0.07375  B =      0.05733  C =      0.04740 [cm^-1]
  Rotational constants: A =   2211.11160  B =   1718.68387  C =   1420.94830 [MHz]
  Nuclear repulsion =    9.066946598630517

  Charge       = 0
  Multiplicity = 1
  Electrons    = 10
  Nalpha       = 5
  Nbeta        = 5

  ==> Algorithm <==

  SCF Algorithm Type is DF.
  DIIS enabled.
  MOM disabled.
  Fractional occupation disabled.
  Guess Type is SAD.
  Energy threshold   = 1.00e-08
  Density threshold  = 1.00e-08
  Integral threshold = 1.00e-12

  ==> Primary Basis <==

  Basis Set: AUG-CC-PVTZ
    Blend: AUG-CC-PVTZ
    Number of shells: 144
    Number of basis functions: 418
    Number of Cartesian functions: 479
    Spherical Harmonics?: true
    Max angular momentum: 3

   => Loading Basis Set <=

    Name: (AUG-CC-PVTZ AUX)
    Role: JKFIT
    Keyword: DF_BASIS_SCF
    atoms 1                     entry NA         line   498 file /ddmfs1b/softs/psi4conda/share/psi4/basis/def2-universal-jkfit.gbs 
    atoms 2, 5, 8, 11           entry O          line   286 file /ddmfs1b/softs/psi4conda/share/psi4/basis/aug-cc-pvtz-jkfit.gbs 
    atoms 3-4, 6-7, 9-10, 12-13 entry H          line    70 file /ddmfs1b/softs/psi4conda/share/psi4/basis/aug-cc-pvtz-jkfit.gbs 

  ==> Integral Setup <==

  DFHelper Memory: AOs need 1.140 GiB; user supplied 41.910 GiB. 
  Using in-core AOs.

  ==> MemDFJK: Density-Fitted J/K Matrices <==

    J tasked:                   Yes
    K tasked:                   Yes
    wK tasked:                   No
    OpenMP threads:              20
    Memory [MiB]:             42915
    Algorithm:                 Core
    Schwarz Cutoff:           1E-12
    Mask sparsity (%):       8.0653
    Fitting Condition:        1E-10

   => Auxiliary Basis Set <=

  Basis Set: (AUG-CC-PVTZ AUX)
    Blend: AUG-CC-PVTZ-JKFIT + DEF2-UNIVERSAL-JKFIT
    Number of shells: 266
    Number of basis functions: 896
    Number of Cartesian functions: 1101
    Spherical Harmonics?: true
    Max angular momentum: 4

  Minimum eigenvalue in the overlap matrix is 3.8050913565E-05.
  Reciprocal condition number of the overlap matrix is 3.1673129381E-06.
    Using symmetric orthogonalization.

  ==> Pre-Iterations <==

  SCF Guess: Superposition of Atomic Densities via on-the-fly atomic UHF (no occupation information).

   -------------------------
    Irrep   Nso     Nmo    
   -------------------------
     A        418     418 
   -------------------------
    Total     418     418
   -------------------------

  ==> Iterations <==

                           Total Energy        Delta E     RMS |[F,P]|

   @DF-RHF iter SAD:   -75.46266573709335   -7.54627e+01   0.00000e+00 
   @DF-RHF iter   1:   -75.97446770196196   -5.11802e-01   1.11857e-03 DIIS/ADIIS
   @DF-RHF iter   2:   -76.02660936917015   -5.21417e-02   7.72527e-04 DIIS/ADIIS
   @DF-RHF iter   3:   -76.05893884075162   -3.23295e-02   5.26148e-05 DIIS
   @DF-RHF iter   4:   -76.05934465168741   -4.05811e-04   1.29085e-05 DIIS
   @DF-RHF iter   5:   -76.05937155702071   -2.69053e-05   2.97048e-06 DIIS
   @DF-RHF iter   6:   -76.05937380489624   -2.24788e-06   6.52053e-07 DIIS
   @DF-RHF iter   7:   -76.05937392320281   -1.18307e-07   1.16208e-07 DIIS
   @DF-RHF iter   8:   -76.05937392648062   -3.27780e-09   1.97361e-08 DIIS
   @DF-RHF iter   9:   -76.05937392655586   -7.52465e-11   4.96266e-09 DIIS
  Energy and wave function converged.


  ==> Post-Iterations <==

    Orbital Energies [Eh]
    ---------------------

    Doubly Occupied:                                                      

       1A    -20.569574     2A     -1.346896     3A     -0.709480  
       4A     -0.583083     5A     -0.509354  

    Virtual:                                                              

       6A      0.007969     7A      0.016406     8A      0.017169  
       9A      0.018785    10A      0.040474    11A      0.053037  
      12A      0.054211    13A      0.056015    14A      0.056719  
      15A      0.058249    16A      0.061173    17A      0.065586  
      18A      0.066392    19A      0.078917    20A      0.087604  
      21A      0.090106    22A      0.091424    23A      0.092194  
      24A      0.097519    25A      0.108708    26A      0.115314  
      27A      0.138057    28A      0.140132    29A      0.144998  
      30A      0.160947    31A      0.166286    32A      0.173771  
      33A      0.175847    34A      0.182904    35A      0.188379  
      36A      0.199070    37A      0.205733    38A      0.210383  
      39A      0.212975    40A      0.216836    41A      0.229356  
      42A      0.234416    43A      0.243958    44A      0.264022  
      45A      0.274714    46A      0.283328    47A      0.288826  
      48A      0.289031    49A      0.297230    50A      0.301617  
      51A      0.308753    52A      0.312020    53A      0.320212  
      54A      0.325662    55A      0.337186    56A      0.348167  
      57A      0.354178    58A      0.360048    59A      0.362674  
      60A      0.376119    61A      0.380199    62A      0.385837  
      63A      0.393906    64A      0.398192    65A      0.402386  
      66A      0.408529    67A      0.413388    68A      0.419727  
      69A      0.423554    70A      0.425053    71A      0.428988  
      72A      0.436573    73A      0.450099    74A      0.453900  
      75A      0.457548    76A      0.463971    77A      0.468618  
      78A      0.477299    79A      0.478867    80A      0.490741  
      81A      0.491795    82A      0.497573    83A      0.510769  
      84A      0.512750    85A      0.517197    86A      0.524631  
      87A      0.541585    88A      0.554731    89A      0.561692  
      90A      0.573865    91A      0.580422    92A      0.609108  
      93A      0.676086    94A      0.686235    95A      0.695951  
      96A      0.705286    97A      0.713691    98A      0.732029  
      99A      0.741739   100A      0.753727   101A      0.762518  
     102A      0.771632   103A      0.775035   104A      0.790917  
     105A      0.796836   106A      0.803615   107A      0.808294  
     108A      0.817771   109A      0.825775   110A      0.830995  
     111A      0.846423   112A      0.852959   113A      0.868042  
     114A      0.869833   115A      0.879378   116A      0.884945  
     117A      0.894892   118A      0.899206   119A      0.908032  
     120A      0.917670   121A      0.922647   122A      0.927256  
     123A      0.940577   124A      0.948210   125A      0.960385  
     126A      0.973302   127A      0.980610   128A      0.991682  
     129A      0.994032   130A      1.003826   131A      1.016533  
     132A      1.021913   133A      1.024662   134A      1.035779  
     135A      1.042098   136A      1.047134   137A      1.050849  
     138A      1.054490   139A      1.065375   140A      1.083459  
     141A      1.087244   142A      1.092096   143A      1.106174  
     144A      1.108988   145A      1.115793   146A      1.121559  
     147A      1.128296   148A      1.138875   149A      1.149141  
     150A      1.150689   151A      1.165429   152A      1.174136  
     153A      1.183666   154A      1.197167   155A      1.208493  
     156A      1.214779   157A      1.222226   158A      1.236728  
     159A      1.243309   160A      1.250540   161A      1.261571  
     162A      1.282102   163A      1.295003   164A      1.301611  
     165A      1.303634   166A      1.311765   167A      1.328945  
     168A      1.330034   169A      1.345711   170A      1.351390  
     171A      1.363839   172A      1.375513   173A      1.390479  
     174A      1.411112   175A      1.428276   176A      1.441472  
     177A      1.459485   178A      1.463010   179A      1.481543  
     180A      1.483943   181A      1.513895   182A      1.534436  
     183A      1.614950   184A      1.637785   185A      1.664033  
     186A      1.685250   187A      1.705070   188A      1.723324  
     189A      1.744165   190A      1.766463   191A      1.778212  
     192A      1.821595   193A      1.825203   194A      1.839562  
     195A      1.851668   196A      1.855348   197A      1.863385  
     198A      1.883021   199A      1.885464   200A      1.905198  
     201A      1.922790   202A      1.926826   203A      1.950645  
     204A      1.977029   205A      1.986061   206A      2.007505  
     207A      2.016754   208A      2.035091   209A      2.050544  
     210A      2.063492   211A      2.071196   212A      2.153506  
     213A      2.162139   214A      2.164153   215A      2.375429  
     216A      2.394238   217A      2.453647   218A      2.463112  
     219A      2.482778   220A      2.493225   221A      2.513755  
     222A      2.524816   223A      2.546505   224A      2.562608  
     225A      2.568723   226A      2.576833   227A      2.585497  
     228A      2.600793   229A      2.604330   230A      2.614799  
     231A      2.625352   232A      2.637897   233A      2.659596  
     234A      2.674777   235A      2.690419   236A      2.707953  
     237A      2.734373   238A      2.752359   239A      2.776423  
     240A      2.794764   241A      2.806405   242A      2.824857  
     243A      2.859796   244A      2.866618   245A      2.884614  
     246A      2.912508   247A      2.934656   248A      2.952492  
     249A      2.976807   250A      3.010200   251A      3.053661  
     252A      3.094887   253A      3.106870   254A      3.223024  
     255A      3.237573   256A      3.253782   257A      3.272384  
     258A      3.279413   259A      3.305171   260A      3.319799  
     261A      3.331565   262A      3.343647   263A      3.349634  
     264A      3.380417   265A      3.404076   266A      3.428871  
     267A      3.443590   268A      3.494977   269A      3.607510  
     270A      3.640395   271A      3.677483   272A      3.720603  
     273A      3.735397   274A      3.754099   275A      3.800461  
     276A      3.844356   277A      4.093114   278A      4.209316  
     279A      4.279846   280A      4.287987   281A      4.354265  
     282A      4.364270   283A      4.437019   284A      4.454857  
     285A      4.464422   286A      4.488268   287A      4.507381  
     288A      4.519154   289A      4.527079   290A      4.539700  
     291A      4.557258   292A      4.569516   293A      4.581705  
     294A      4.591119   295A      4.623227   296A      4.691107  
     297A      4.723059   298A      4.726875   299A      4.750174  
     300A      4.769552   301A      4.797970   302A      4.809892  
     303A      4.828584   304A      4.875333   305A      4.886957  
     306A      4.957693   307A      4.971764   308A      4.990065  
     309A      5.006987   310A      5.023720   311A      5.043856  
     312A      5.064189   313A      5.072143   314A      5.108990  
     315A      5.155345   316A      5.157608   317A      5.180910  
     318A      5.212248   319A      5.278333   320A      5.308453  
     321A      5.329005   322A      5.463457   323A      5.532973  
     324A      5.537614   325A      5.583377   326A      5.603455  
     327A      5.607101   328A      5.634393   329A      5.639393  
     330A      5.699008   331A      5.720866   332A      5.746435  
     333A      5.776254   334A      5.849896   335A      5.905106  
     336A      5.969496   337A      6.152100   338A      6.197757  
     339A      6.219693   340A      6.231336   341A      6.316082  
     342A      6.345908   343A      6.380194   344A      6.614828  
     345A      6.637266   346A      6.731569   347A      6.761977  
     348A      6.866741   349A      6.932839   350A      6.934990  
     351A      7.013498   352A      7.083070   353A      7.130098  
     354A      7.187559   355A      7.219849   356A      7.290289  
     357A      7.319196   358A      7.359844   359A      7.410090  
     360A      7.433122   361A      7.531738   362A      7.646274  
     363A      7.699711   364A      7.703466   365A      7.754942  
     366A      7.815554   367A      7.854077   368A      7.904461  
     369A      7.941937   370A      7.968000   371A      8.094165  
     372A      8.107684   373A      8.123434   374A      8.170297  
     375A      8.233391   376A      8.267931   377A      8.279370  
     378A      8.329856   379A      8.380544   380A      8.696426  
     381A      8.784500   382A      8.793076   383A      8.810962  
     384A      8.839991   385A      8.906350   386A      8.929469  
     387A      9.883813   388A      9.923166   389A      9.962203  
     390A      9.969474   391A      9.983889   392A     10.023474  
     393A     10.030661   394A     10.040108   395A     10.051845  
     396A     10.186261   397A     10.223893   398A     10.277706  
     399A     11.123843   400A     11.164651   401A     11.263042  
     402A     11.688052   403A     11.735904   404A     11.861228  
     405A     12.173456   406A     12.214362   407A     12.326060  
     408A     13.549033   409A     13.573970   410A     13.636414  
     411A     13.879798   412A     13.887297   413A     13.927801  
     414A     15.676387   415A     64.810903   416A     64.923060  
     417A     65.052861   418A     65.546143  

    Final Occupation by Irrep:
              A 
    DOCC [     5 ]
    NA   [     5 ]
    NB   [     5 ]

  @DF-RHF Final Energy:   -76.05937392655586

   => Energetics <=

    Nuclear Repulsion Energy =              9.0669465986305173
    One-Electron Energy =                -122.8158628430701640
    Two-Electron Energy =                  37.6895423178837774
    Total Energy =                        -76.0593739265558639

Computation Completed


Properties will be evaluated at   0.000000,   0.000000,   0.000000 [a0]

Properties computed using the SCF density matrix


 Multipole Moments:

 ------------------------------------------------------------------------------------
     Multipole            Electronic (a.u.)      Nuclear  (a.u.)        Total (a.u.)
 ------------------------------------------------------------------------------------

 L = 1.  Multiply by 2.5417464519 to convert [e a0] to [Debye]
 Dipole X            :         24.3704302          -24.1677036            0.2027265
 Dipole Y            :        -26.1052101           26.6854500            0.5802399
 Dipole Z            :         31.6849291          -32.1755693           -0.4906401
 Magnitude           :                                                    0.7864504

 ------------------------------------------------------------------------------------

*** tstop() called on ddmfs1 at Mon Jan 22 16:04:06 2024
Module time:
	user time   =      62.19 seconds =       1.04 minutes
	system time =       4.81 seconds =       0.08 minutes
	total time  =          4 seconds =       0.07 minutes
Total time:
	user time   =      62.19 seconds =       1.04 minutes
	system time =       4.81 seconds =       0.08 minutes
	total time  =          4 seconds =       0.07 minutes

*** tstart() called on ddmfs1
*** at Mon Jan 22 16:04:06 2024


  //>>>>>>>>>>>>>>>>>>>>>>>>>>>>>>>>>>>//
  //               DFMP2               //
  //<<<<<<<<<<<<<<<<<<<<<<<<<<<<<<<<<<<//

   => Loading Basis Set <=

    Name: (AUG-CC-PVTZ AUX)
    Role: RIFIT
    Keyword: DF_BASIS_MP2
    atoms 1                     entry NA         line   610 file /ddmfs1b/softs/psi4conda/share/psi4/basis/def2-qzvpp-ri.gbs 
    atoms 2, 5, 8, 11           entry O          line   264 file /ddmfs1b/softs/psi4conda/share/psi4/basis/aug-cc-pvtz-ri.gbs 
    atoms 3-4, 6-7, 9-10, 12-13 entry H          line    30 file /ddmfs1b/softs/psi4conda/share/psi4/basis/aug-cc-pvtz-ri.gbs 

	 --------------------------------------------------------
	                          DF-MP2                         
	      2nd-Order Density-Fitted Moller-Plesset Theory     
	              RMP2 Wavefunction,  20 Threads             
	                                                         
	        Rob Parrish, Justin Turney, Andy Simmonett,      
	           Ed Hohenstein, and C. David Sherrill          
	 --------------------------------------------------------

   => Auxiliary Basis Set <=

  Basis Set: (AUG-CC-PVTZ AUX)
    Blend: AUG-CC-PVTZ-RI + DEF2-QZVPP-RI
    Number of shells: 266
    Number of basis functions: 958
    Number of Cartesian functions: 1198
    Spherical Harmonics?: true
    Max angular momentum: 4

	 --------------------------------------------------------
	                 NBF =   418, NAUX =   958
	 --------------------------------------------------------
	   CLASS    FOCC     OCC    AOCC    AVIR     VIR    FVIR
	   PAIRS       0       5       5     413     413       0
	 --------------------------------------------------------

	-----------------------------------------------------------
	 ==================> DF-MP2 Energies <==================== 
	-----------------------------------------------------------
	 Reference Energy          =     -76.0593739265558639 [Eh]
	 Singles Energy            =      -0.0000000000000000 [Eh]
	 Same-Spin Energy          =      -0.0686396191868687 [Eh]
	 Opposite-Spin Energy      =      -0.2163881375010041 [Eh]
	 Correlation Energy        =      -0.2850277566878728 [Eh]
	 Total Energy              =     -76.3444016832437313 [Eh]
	-----------------------------------------------------------
	 ================> DF-SCS-MP2 Energies <================== 
	-----------------------------------------------------------
	 SCS Same-Spin Scale       =       0.3333333333333333 [-]
	 SCS Opposite-Spin Scale   =       1.2000000000000000 [-]
	 SCS Same-Spin Energy      =      -0.0228798730622896 [Eh]
	 SCS Opposite-Spin Energy  =      -0.2596657650012050 [Eh]
	 SCS Correlation Energy    =      -0.2825456380634945 [Eh]
	 SCS Total Energy          =     -76.3419195646193600 [Eh]
	-----------------------------------------------------------


*** tstop() called on ddmfs1 at Mon Jan 22 16:04:11 2024
Module time:
	user time   =      21.74 seconds =       0.36 minutes
	system time =       1.55 seconds =       0.03 minutes
	total time  =          5 seconds =       0.08 minutes
Total time:
	user time   =      83.95 seconds =       1.40 minutes
	system time =       6.36 seconds =       0.11 minutes
	total time  =          9 seconds =       0.15 minutes

    Psi4 stopped on: Monday, 22 January 2024 04:04PM
    Psi4 wall time for execution: 0:00:09.74

*** Psi4 exiting successfully. Buy a developer a beer!
