
    -----------------------------------------------------------------------
          Psi4: An Open-Source Ab Initio Electronic Structure Package
                               Psi4 1.8.2 release

                         Git: Rev {} zzzzzzz 


    D. G. A. Smith, L. A. Burns, A. C. Simmonett, R. M. Parrish,
    M. C. Schieber, R. Galvelis, P. Kraus, H. Kruse, R. Di Remigio,
    A. Alenaizan, A. M. James, S. Lehtola, J. P. Misiewicz, M. Scheurer,
    R. A. Shaw, J. B. Schriber, Y. Xie, Z. L. Glick, D. A. Sirianni,
    J. S. O'Brien, J. M. Waldrop, A. Kumar, E. G. Hohenstein,
    B. P. Pritchard, B. R. Brooks, H. F. Schaefer III, A. Yu. Sokolov,
    K. Patkowski, A. E. DePrince III, U. Bozkaya, R. A. King,
    F. A. Evangelista, J. M. Turney, T. D. Crawford, C. D. Sherrill,
    J. Chem. Phys. 152(18) 184108 (2020). https://doi.org/10.1063/5.0006002

                            Additional Code Authors
    E. T. Seidl, C. L. Janssen, E. F. Valeev, M. L. Leininger,
    J. F. Gonthier, R. M. Richard, H. R. McAlexander, M. Saitow, X. Wang,
    P. Verma, M. H. Lechner, A. Jiang, S. Behnle, A. G. Heide,
    M. F. Herbst, and D. L. Poole

             Previous Authors, Complete List of Code Contributors,
                       and Citations for Specific Modules
    https://github.com/psi4/psi4/blob/master/codemeta.json
    https://github.com/psi4/psi4/graphs/contributors
    http://psicode.org/psi4manual/master/introduction.html#citing-psifour

    -----------------------------------------------------------------------


    Psi4 started on: Monday, 22 January 2024 02:12PM

    Process ID: 65524
    Host:       ddmfs1
    PSIDATADIR: /ddmfs1b/softs/psi4conda/share/psi4
    Memory:     500.0 MiB
    Threads:    20
    
  ==> Input File <==

--------------------------------------------------------------------------
MEMORY 60 GB

molecule dimer {
1 1
Na         0.000000     0.000000     0.000000
Gh(O)     -2.261961     1.217191     0.375676
Gh(H)     -2.319771     0.725206     1.230404
Gh(H)     -2.115469     2.079564     0.782307
Gh(O)      0.486184     1.167985    -1.873883
Gh(H)      1.475220     1.083745    -1.817610
Gh(H)      0.344352     2.132995    -1.761720
Gh(O)      0.722217     0.847010     2.215250
Gh(H)      1.295874     1.594855     2.044533
Gh(H)      1.115391     0.266313     2.859288
Gh(O)      2.364881    -0.815744    -0.208489
Gh(H)      2.395551    -1.654726     0.299478
Gh(H)      2.540953    -0.931226    -1.162329
Gh(O)     -1.292387    -1.428775     1.297161
Gh(H)     -1.008717    -1.931975     2.092847
Gh(H)     -1.907300    -1.938032     0.765697

units ang
no_reorient
no_com
symmetry c1
}

set {
basis        aug-cc-pVTZ
scf_type     df
}

energy("mp2")
--------------------------------------------------------------------------

  Memory set to  55.879 GiB by Python driver.

Scratch directory: /ddmfs1a/scratch/
   => Libint2 <=

    Primary   basis highest AM E, G, H:  5, 4, 3
    Auxiliary basis highest AM E, G, H:  6, 5, 4
    Onebody   basis highest AM E, G, H:  6, 5, 4
    Solid Harmonics ordering:            gaussian

*** tstart() called on ddmfs1
*** at Mon Jan 22 14:12:44 2024

   => Loading Basis Set <=

    Name: AUG-CC-PVTZ
    Role: ORBITAL
    Keyword: BASIS
    atoms 1                            entry NA         line   469 file /ddmfs1b/softs/psi4conda/share/psi4/basis/aug-cc-pvtz.gbs 
    atoms 2, 5, 8, 11, 14              entry O          line   331 file /ddmfs1b/softs/psi4conda/share/psi4/basis/aug-cc-pvtz.gbs 
    atoms 3-4, 6-7, 9-10, 12-13, 15-16 entry H          line    40 file /ddmfs1b/softs/psi4conda/share/psi4/basis/aug-cc-pvtz.gbs 


         ---------------------------------------------------------
                                   SCF
               by Justin Turney, Rob Parrish, Andy Simmonett
                          and Daniel G. A. Smith
                              RHF Reference
                       20 Threads,  57220 MiB Core
         ---------------------------------------------------------

  ==> Geometry <==

    Molecular point group: c1
    Full point group: C1

    Geometry (in Angstrom), charge = 1, multiplicity = 1:

       Center              X                  Y                   Z               Mass       
    ------------   -----------------  -----------------  -----------------  -----------------
         NA           0.000000000000     0.000000000000     0.000000000000    22.989769282000
      Gh(O)          -2.261961000000     1.217191000000     0.375676000000    15.994914619570
      Gh(H)          -2.319771000000     0.725206000000     1.230404000000     1.007825032230
      Gh(H)          -2.115469000000     2.079564000000     0.782307000000     1.007825032230
      Gh(O)           0.486184000000     1.167985000000    -1.873883000000    15.994914619570
      Gh(H)           1.475220000000     1.083745000000    -1.817610000000     1.007825032230
      Gh(H)           0.344352000000     2.132995000000    -1.761720000000     1.007825032230
      Gh(O)           0.722217000000     0.847010000000     2.215250000000    15.994914619570
      Gh(H)           1.295874000000     1.594855000000     2.044533000000     1.007825032230
      Gh(H)           1.115391000000     0.266313000000     2.859288000000     1.007825032230
      Gh(O)           2.364881000000    -0.815744000000    -0.208489000000    15.994914619570
      Gh(H)           2.395551000000    -1.654726000000     0.299478000000     1.007825032230
      Gh(H)           2.540953000000    -0.931226000000    -1.162329000000     1.007825032230
      Gh(O)          -1.292387000000    -1.428775000000     1.297161000000    15.994914619570
      Gh(H)          -1.008717000000    -1.931975000000     2.092847000000     1.007825032230
      Gh(H)          -1.907300000000    -1.938032000000     0.765697000000     1.007825032230

  Running in c1 symmetry.

  Rotational constants: A =      0.05823  B =      0.04556  C =      0.03676 [cm^-1]
  Rotational constants: A =   1745.59028  B =   1365.74939  C =   1101.89507 [MHz]
  Nuclear repulsion =    0.000000000000000

  Charge       = 1
  Multiplicity = 1
  Electrons    = 10
  Nalpha       = 5
  Nbeta        = 5

  ==> Algorithm <==

  SCF Algorithm Type is DF.
  DIIS enabled.
  MOM disabled.
  Fractional occupation disabled.
  Guess Type is SAD.
  Energy threshold   = 1.00e-08
  Density threshold  = 1.00e-08
  Integral threshold = 1.00e-12

  ==> Primary Basis <==

  Basis Set: AUG-CC-PVTZ
    Blend: AUG-CC-PVTZ
    Number of shells: 176
    Number of basis functions: 510
    Number of Cartesian functions: 584
    Spherical Harmonics?: true
    Max angular momentum: 3

   => Loading Basis Set <=

    Name: (AUG-CC-PVTZ AUX)
    Role: JKFIT
    Keyword: DF_BASIS_SCF
    atoms 1                            entry NA         line   498 file /ddmfs1b/softs/psi4conda/share/psi4/basis/def2-universal-jkfit.gbs 
    atoms 2, 5, 8, 11, 14              entry O          line   286 file /ddmfs1b/softs/psi4conda/share/psi4/basis/aug-cc-pvtz-jkfit.gbs 
    atoms 3-4, 6-7, 9-10, 12-13, 15-16 entry H          line    70 file /ddmfs1b/softs/psi4conda/share/psi4/basis/aug-cc-pvtz-jkfit.gbs 

  ==> Integral Setup <==

  DFHelper Memory: AOs need 2.039 GiB; user supplied 41.910 GiB. 
  Using in-core AOs.

  ==> MemDFJK: Density-Fitted J/K Matrices <==

    J tasked:                   Yes
    K tasked:                   Yes
    wK tasked:                   No
    OpenMP threads:              20
    Memory [MiB]:             42915
    Algorithm:                 Core
    Schwarz Cutoff:           1E-12
    Mask sparsity (%):       8.3668
    Fitting Condition:        1E-10

   => Auxiliary Basis Set <=

  Basis Set: (AUG-CC-PVTZ AUX)
    Blend: AUG-CC-PVTZ-JKFIT + DEF2-UNIVERSAL-JKFIT
    Number of shells: 324
    Number of basis functions: 1092
    Number of Cartesian functions: 1342
    Spherical Harmonics?: true
    Max angular momentum: 4

  Minimum eigenvalue in the overlap matrix is 2.9209246084E-05.
  Reciprocal condition number of the overlap matrix is 2.0755674289E-06.
    Using symmetric orthogonalization.

  ==> Pre-Iterations <==

  SCF Guess: Superposition of Atomic Densities via on-the-fly atomic UHF (no occupation information).

   -------------------------
    Irrep   Nso     Nmo    
   -------------------------
     A        510     510 
   -------------------------
    Total     510     510
   -------------------------

  ==> Iterations <==

                           Total Energy        Delta E     RMS |[F,P]|

   @DF-RHF iter SAD:  -161.74574637272227   -1.61746e+02   0.00000e+00 
   @DF-RHF iter   1:  -161.67607113262619    6.96752e-02   1.24539e-05 DIIS
   @DF-RHF iter   2:  -161.67608946679195   -1.83342e-05   2.33092e-06 DIIS
   @DF-RHF iter   3:  -161.67608997177049   -5.04979e-07   1.20041e-07 DIIS
   @DF-RHF iter   4:  -161.67608997278569   -1.01520e-09   1.50269e-08 DIIS
   @DF-RHF iter   5:  -161.67608997280161   -1.59162e-11   5.79854e-10 DIIS
  Energy and wave function converged.


  ==> Post-Iterations <==

    Orbital Energies [Eh]
    ---------------------

    Doubly Occupied:                                                      

       1A    -40.760452     2A     -3.073802     3A     -1.797165  
       4A     -1.797153     5A     -1.797106  

    Virtual:                                                              

       6A     -0.181805     7A     -0.109439     8A     -0.109434  
       9A     -0.109429    10A     -0.070087    11A     -0.052434  
      12A     -0.052042    13A     -0.051519    14A     -0.051389  
      15A     -0.051182    16A     -0.049286    17A     -0.049231  
      18A     -0.049183    19A     -0.027357    20A     -0.013919  
      21A     -0.013473    22A     -0.012035    23A     -0.010332  
      24A     -0.007941    25A     -0.007702    26A     -0.004810  
      27A     -0.003269    28A     -0.001365    29A      0.008461  
      30A      0.013238    31A      0.018012    32A      0.025847  
      33A      0.026600    34A      0.032820    35A      0.036218  
      36A      0.041602    37A      0.048376    38A      0.057930  
      39A      0.072244    40A      0.074232    41A      0.074568  
      42A      0.078958    43A      0.081973    44A      0.090710  
      45A      0.094436    46A      0.096314    47A      0.100166  
      48A      0.101948    49A      0.107853    50A      0.118490  
      51A      0.120841    52A      0.124861    53A      0.127678  
      54A      0.134624    55A      0.146052    56A      0.152916  
      57A      0.169323    58A      0.176422    59A      0.189763  
      60A      0.193435    61A      0.194314    62A      0.203770  
      63A      0.208957    64A      0.212587    65A      0.220940  
      66A      0.221312    67A      0.231495    68A      0.232514  
      69A      0.236490    70A      0.240517    71A      0.246881  
      72A      0.253567    73A      0.254916    74A      0.264052  
      75A      0.274474    76A      0.280217    77A      0.283735  
      78A      0.286911    79A      0.292438    80A      0.293876  
      81A      0.300360    82A      0.303907    83A      0.312492  
      84A      0.316892    85A      0.319199    86A      0.324333  
      87A      0.333640    88A      0.336639    89A      0.338766  
      90A      0.341365    91A      0.344881    92A      0.355826  
      93A      0.359286    94A      0.364284    95A      0.371386  
      96A      0.375443    97A      0.382383    98A      0.384014  
      99A      0.391158   100A      0.401525   101A      0.405017  
     102A      0.406725   103A      0.418167   104A      0.422765  
     105A      0.436032   106A      0.451965   107A      0.471736  
     108A      0.482040   109A      0.490731   110A      0.501796  
     111A      0.528112   112A      0.532287   113A      0.542758  
     114A      0.550333   115A      0.558158   116A      0.563705  
     117A      0.574081   118A      0.581130   119A      0.598683  
     120A      0.605491   121A      0.613718   122A      0.618597  
     123A      0.620218   124A      0.645686   125A      0.659686  
     126A      0.672726   127A      0.676131   128A      0.687506  
     129A      0.690828   130A      0.705721   131A      0.708252  
     132A      0.716417   133A      0.719825   134A      0.727646  
     135A      0.732700   136A      0.739949   137A      0.747021  
     138A      0.754338   139A      0.759887   140A      0.772591  
     141A      0.774029   142A      0.778858   143A      0.787136  
     144A      0.796202   145A      0.800847   146A      0.810226  
     147A      0.816803   148A      0.821489   149A      0.824391  
     150A      0.835769   151A      0.846853   152A      0.852197  
     153A      0.858577   154A      0.869362   155A      0.876793  
     156A      0.880756   157A      0.884008   158A      0.895783  
     159A      0.904869   160A      0.912404   161A      0.921912  
     162A      0.926138   163A      0.929975   164A      0.942589  
     165A      0.952686   166A      0.954758   167A      0.960031  
     168A      0.966553   169A      0.980571   170A      0.986592  
     171A      0.989470   172A      0.998547   173A      1.014748  
     174A      1.017227   175A      1.028874   176A      1.033849  
     177A      1.039802   178A      1.048089   179A      1.061343  
     180A      1.068036   181A      1.076907   182A      1.086114  
     183A      1.093334   184A      1.101584   185A      1.107398  
     186A      1.119977   187A      1.129710   188A      1.138670  
     189A      1.140628   190A      1.150139   191A      1.156393  
     192A      1.165184   193A      1.170240   194A      1.182056  
     195A      1.191257   196A      1.196829   197A      1.212356  
     198A      1.217163   199A      1.231354   200A      1.234232  
     201A      1.242850   202A      1.249459   203A      1.257092  
     204A      1.262383   205A      1.285550   206A      1.294996  
     207A      1.309573   208A      1.316825   209A      1.327894  
     210A      1.338760   211A      1.355177   212A      1.375402  
     213A      1.382382   214A      1.399976   215A      1.422002  
     216A      1.451571   217A      1.466722   218A      1.470224  
     219A      1.482836   220A      1.510343   221A      1.529369  
     222A      1.546747   223A      1.565180   224A      1.588376  
     225A      1.612258   226A      1.655208   227A      1.663628  
     228A      1.667993   229A      1.686463   230A      1.690157  
     231A      1.709853   232A      1.712566   233A      1.716016  
     234A      1.725219   235A      1.739226   236A      1.747664  
     237A      1.755000   238A      1.756574   239A      1.783155  
     240A      1.788285   241A      1.791116   242A      1.805351  
     243A      1.822457   244A      1.828688   245A      1.836965  
     246A      1.849458   247A      1.861229   248A      1.877805  
     249A      1.896118   250A      1.923189   251A      1.937058  
     252A      1.944551   253A      2.006682   254A      2.073164  
     255A      2.211604   256A      2.242584   257A      2.255382  
     258A      2.266944   259A      2.289547   260A      2.290791  
     261A      2.319498   262A      2.323141   263A      2.345661  
     264A      2.359009   265A      2.372180   266A      2.380746  
     267A      2.404875   268A      2.407223   269A      2.422099  
     270A      2.437963   271A      2.445371   272A      2.456746  
     273A      2.460168   274A      2.467411   275A      2.479885  
     276A      2.485648   277A      2.494286   278A      2.504772  
     279A      2.539183   280A      2.553499   281A      2.574804  
     282A      2.597833   283A      2.607650   284A      2.654386  
     285A      2.657812   286A      2.668461   287A      2.690779  
     288A      2.693974   289A      2.728100   290A      2.737280  
     291A      2.751325   292A      2.766986   293A      2.782384  
     294A      2.796996   295A      2.813638   296A      2.835181  
     297A      2.854706   298A      2.890398   299A      2.925084  
     300A      2.978094   301A      2.997990   302A      3.005427  
     303A      3.015826   304A      3.036673   305A      3.046600  
     306A      3.057342   307A      3.069675   308A      3.081984  
     309A      3.111479   310A      3.118766   311A      3.129398  
     312A      3.141557   313A      3.142778   314A      3.159729  
     315A      3.171011   316A      3.183864   317A      3.198901  
     318A      3.208038   319A      3.212129   320A      3.233405  
     321A      3.257137   322A      3.274082   323A      3.298268  
     324A      3.303673   325A      3.385224   326A      3.409837  
     327A      3.432020   328A      3.465996   329A      3.483063  
     330A      3.524498   331A      3.554729   332A      3.569045  
     333A      3.589798   334A      3.619724   335A      3.643792  
     336A      4.219958   337A      4.228813   338A      4.257854  
     339A      4.261330   340A      4.280135   341A      4.337281  
     342A      4.343603   343A      4.362881   344A      4.371991  
     345A      4.383063   346A      4.393173   347A      4.403764  
     348A      4.422749   349A      4.433475   350A      4.434194  
     351A      4.468851   352A      4.486438   353A      4.513268  
     354A      4.516475   355A      4.536934   356A      4.549200  
     357A      4.563853   358A      4.582053   359A      4.601188  
     360A      4.614989   361A      4.619441   362A      4.645275  
     363A      4.650284   364A      4.678988   365A      4.701754  
     366A      4.746781   367A      4.834637   368A      4.841423  
     369A      4.853308   370A      4.855792   371A      4.873343  
     372A      4.898396   373A      4.919447   374A      4.932094  
     375A      4.949147   376A      4.959391   377A      4.979120  
     378A      4.990659   379A      5.008085   380A      5.022215  
     381A      5.044290   382A      5.067916   383A      5.100568  
     384A      5.134123   385A      5.171981   386A      5.282479  
     387A      5.320050   388A      5.323757   389A      5.352306  
     390A      5.369913   391A      5.376304   392A      5.393390  
     393A      5.403425   394A      5.410827   395A      5.460342  
     396A      5.467440   397A      5.489193   398A      5.520718  
     399A      5.535077   400A      5.566299   401A      5.593355  
     402A      5.645162   403A      5.690311   404A      5.710160  
     405A      5.808806   406A      6.025494   407A      6.031639  
     408A      6.062642   409A      6.068597   410A      6.082159  
     411A      6.105710   412A      6.134717   413A      6.156038  
     414A      6.181300   415A      6.227089   416A      6.374732  
     417A      6.439477   418A      6.672044   419A      6.679519  
     420A      6.712073   421A      6.762336   422A      6.837144  
     423A      6.855135   424A      6.897619   425A      6.966417  
     426A      7.484448   427A      7.503418   428A      7.528809  
     429A      7.543085   430A      7.554173   431A      7.568719  
     432A      7.605842   433A      7.627997   434A      7.632586  
     435A      7.774147   436A      7.847642   437A      7.858116  
     438A      7.904757   439A      7.908243   440A      7.926769  
     441A      7.964343   442A      7.965922   443A      8.032775  
     444A      8.038709   445A      8.050493   446A      8.088116  
     447A      8.099093   448A      8.107873   449A      8.110381  
     450A      8.123823   451A      8.454352   452A      8.487180  
     453A      8.515729   454A      8.549163   455A      8.559683  
     456A      8.561033   457A      8.612194   458A      8.643436  
     459A      8.657829   460A      8.689631   461A      9.584340  
     462A      9.642332   463A      9.658264   464A      9.699533  
     465A      9.727786   466A      9.761480   467A      9.770561  
     468A      9.772154   469A      9.785745   470A      9.812491  
     471A      9.821137   472A      9.833312   473A      9.849527  
     474A      9.853914   475A      9.885521   476A      9.944243  
     477A      9.969955   478A      9.998591   479A     10.038881  
     480A     10.085509   481A     10.826631   482A     10.860626  
     483A     10.888556   484A     11.008882   485A     11.013603  
     486A     11.615212   487A     11.619262   488A     11.649322  
     489A     11.683348   490A     11.710186   491A     11.787459  
     492A     11.844467   493A     11.884994   494A     12.044569  
     495A     12.094278   496A     13.241356   497A     13.247093  
     498A     13.321964   499A     13.418946   500A     13.472718  
     501A     13.706458   502A     13.717892   503A     13.732333  
     504A     13.769510   505A     13.824190   506A     64.179035  
     507A     64.288563   508A     64.645488   509A     65.006068  
     510A     65.727544  

    Final Occupation by Irrep:
              A 
    DOCC [     5 ]
    NA   [     5 ]
    NB   [     5 ]

  @DF-RHF Final Energy:  -161.67608997280161

   => Energetics <=

    Nuclear Repulsion Energy =              0.0000000000000000
    One-Electron Energy =                -224.9008230087846130
    Two-Electron Energy =                  63.2247330359830073
    Total Energy =                       -161.6760899728016057

Computation Completed


Properties will be evaluated at   0.000000,   0.000000,   0.000000 [a0]

Properties computed using the SCF density matrix


 Multipole Moments:

 ------------------------------------------------------------------------------------
     Multipole            Electronic (a.u.)      Nuclear  (a.u.)        Total (a.u.)
 ------------------------------------------------------------------------------------

 L = 1.  Multiply by 2.5417464519 to convert [e a0] to [Debye]
 Dipole X            :         -0.0000267            0.0000000           -0.0000267
 Dipole Y            :          0.0000457            0.0000000            0.0000457
 Dipole Z            :          0.0000921            0.0000000            0.0000921
 Magnitude           :                                                    0.0001062

 ------------------------------------------------------------------------------------

*** tstop() called on ddmfs1 at Mon Jan 22 14:12:50 2024
Module time:
	user time   =      82.78 seconds =       1.38 minutes
	system time =       7.18 seconds =       0.12 minutes
	total time  =          6 seconds =       0.10 minutes
Total time:
	user time   =      82.78 seconds =       1.38 minutes
	system time =       7.18 seconds =       0.12 minutes
	total time  =          6 seconds =       0.10 minutes

*** tstart() called on ddmfs1
*** at Mon Jan 22 14:12:50 2024


  //>>>>>>>>>>>>>>>>>>>>>>>>>>>>>>>>>>>//
  //               DFMP2               //
  //<<<<<<<<<<<<<<<<<<<<<<<<<<<<<<<<<<<//

   => Loading Basis Set <=

    Name: (AUG-CC-PVTZ AUX)
    Role: RIFIT
    Keyword: DF_BASIS_MP2
    atoms 1                            entry NA         line   610 file /ddmfs1b/softs/psi4conda/share/psi4/basis/def2-qzvpp-ri.gbs 
    atoms 2, 5, 8, 11, 14              entry O          line   264 file /ddmfs1b/softs/psi4conda/share/psi4/basis/aug-cc-pvtz-ri.gbs 
    atoms 3-4, 6-7, 9-10, 12-13, 15-16 entry H          line    30 file /ddmfs1b/softs/psi4conda/share/psi4/basis/aug-cc-pvtz-ri.gbs 

	 --------------------------------------------------------
	                          DF-MP2                         
	      2nd-Order Density-Fitted Moller-Plesset Theory     
	              RMP2 Wavefunction,  20 Threads             
	                                                         
	        Rob Parrish, Justin Turney, Andy Simmonett,      
	           Ed Hohenstein, and C. David Sherrill          
	 --------------------------------------------------------

   => Auxiliary Basis Set <=

  Basis Set: (AUG-CC-PVTZ AUX)
    Blend: AUG-CC-PVTZ-RI + DEF2-QZVPP-RI
    Number of shells: 322
    Number of basis functions: 1156
    Number of Cartesian functions: 1444
    Spherical Harmonics?: true
    Max angular momentum: 4

	 --------------------------------------------------------
	                 NBF =   510, NAUX =  1156
	 --------------------------------------------------------
	   CLASS    FOCC     OCC    AOCC    AVIR     VIR    FVIR
	   PAIRS       0       5       5     505     505       0
	 --------------------------------------------------------

	-----------------------------------------------------------
	 ==================> DF-MP2 Energies <==================== 
	-----------------------------------------------------------
	 Reference Energy          =    -161.6760899728016057 [Eh]
	 Singles Energy            =      -0.0000000000000000 [Eh]
	 Same-Spin Energy          =      -0.0060992424342149 [Eh]
	 Opposite-Spin Energy      =      -0.0188745284026599 [Eh]
	 Correlation Energy        =      -0.0249737708368748 [Eh]
	 Total Energy              =    -161.7010637436384854 [Eh]
	-----------------------------------------------------------
	 ================> DF-SCS-MP2 Energies <================== 
	-----------------------------------------------------------
	 SCS Same-Spin Scale       =       0.3333333333333333 [-]
	 SCS Opposite-Spin Scale   =       1.2000000000000000 [-]
	 SCS Same-Spin Energy      =      -0.0020330808114050 [Eh]
	 SCS Opposite-Spin Energy  =      -0.0226494340831919 [Eh]
	 SCS Correlation Energy    =      -0.0246825148945968 [Eh]
	 SCS Total Energy          =    -161.7007724876962129 [Eh]
	-----------------------------------------------------------


*** tstop() called on ddmfs1 at Mon Jan 22 14:12:57 2024
Module time:
	user time   =      28.36 seconds =       0.47 minutes
	system time =       1.96 seconds =       0.03 minutes
	total time  =          7 seconds =       0.12 minutes
Total time:
	user time   =     111.16 seconds =       1.85 minutes
	system time =       9.14 seconds =       0.15 minutes
	total time  =         13 seconds =       0.22 minutes

    Psi4 stopped on: Monday, 22 January 2024 02:12PM
    Psi4 wall time for execution: 0:00:13.08

*** Psi4 exiting successfully. Buy a developer a beer!
