
    -----------------------------------------------------------------------
          Psi4: An Open-Source Ab Initio Electronic Structure Package
                               Psi4 1.8.2 release

                         Git: Rev {} zzzzzzz 


    D. G. A. Smith, L. A. Burns, A. C. Simmonett, R. M. Parrish,
    M. C. Schieber, R. Galvelis, P. Kraus, H. Kruse, R. Di Remigio,
    A. Alenaizan, A. M. James, S. Lehtola, J. P. Misiewicz, M. Scheurer,
    R. A. Shaw, J. B. Schriber, Y. Xie, Z. L. Glick, D. A. Sirianni,
    J. S. O'Brien, J. M. Waldrop, A. Kumar, E. G. Hohenstein,
    B. P. Pritchard, B. R. Brooks, H. F. Schaefer III, A. Yu. Sokolov,
    K. Patkowski, A. E. DePrince III, U. Bozkaya, R. A. King,
    F. A. Evangelista, J. M. Turney, T. D. Crawford, C. D. Sherrill,
    J. Chem. Phys. 152(18) 184108 (2020). https://doi.org/10.1063/5.0006002

                            Additional Code Authors
    E. T. Seidl, C. L. Janssen, E. F. Valeev, M. L. Leininger,
    J. F. Gonthier, R. M. Richard, H. R. McAlexander, M. Saitow, X. Wang,
    P. Verma, M. H. Lechner, A. Jiang, S. Behnle, A. G. Heide,
    M. F. Herbst, and D. L. Poole

             Previous Authors, Complete List of Code Contributors,
                       and Citations for Specific Modules
    https://github.com/psi4/psi4/blob/master/codemeta.json
    https://github.com/psi4/psi4/graphs/contributors
    http://psicode.org/psi4manual/master/introduction.html#citing-psifour

    -----------------------------------------------------------------------


    Psi4 started on: Monday, 22 January 2024 02:25PM

    Process ID: 66695
    Host:       ddmfs1
    PSIDATADIR: /ddmfs1b/softs/psi4conda/share/psi4
    Memory:     500.0 MiB
    Threads:    20
    
  ==> Input File <==

--------------------------------------------------------------------------
MEMORY 60 GB

molecule dimer {
0 1
Gh(Na)     0.000000     0.000000     0.000000
Gh(O)      0.985243     1.361756    -1.542488
Gh(H)      1.874246     1.350733    -1.934909
Gh(H)      0.414988     1.260066    -2.324670
Gh(O)      0.823978     0.878247     2.115655
Gh(H)      1.298081     1.751934     2.375790
Gh(H)      0.257828     0.586640     2.820213
Gh(O)     -0.226418    -1.408438    -1.797917
Gh(H)     -0.917865    -2.089083    -1.585986
Gh(H)      0.448556    -1.874981    -2.327105
O         -1.974562     0.901395    -0.277079
H         -2.014013     1.682929     0.320102
H         -2.637138     0.327502     0.068322

units ang
no_reorient
no_com
symmetry c1
}

set {
basis        aug-cc-pVTZ
scf_type     df
}

energy("mp2")
--------------------------------------------------------------------------

  Memory set to  55.879 GiB by Python driver.

Scratch directory: /ddmfs1a/scratch/
   => Libint2 <=

    Primary   basis highest AM E, G, H:  5, 4, 3
    Auxiliary basis highest AM E, G, H:  6, 5, 4
    Onebody   basis highest AM E, G, H:  6, 5, 4
    Solid Harmonics ordering:            gaussian

*** tstart() called on ddmfs1
*** at Mon Jan 22 14:25:31 2024

   => Loading Basis Set <=

    Name: AUG-CC-PVTZ
    Role: ORBITAL
    Keyword: BASIS
    atoms 1                     entry NA         line   469 file /ddmfs1b/softs/psi4conda/share/psi4/basis/aug-cc-pvtz.gbs 
    atoms 2, 5, 8, 11           entry O          line   331 file /ddmfs1b/softs/psi4conda/share/psi4/basis/aug-cc-pvtz.gbs 
    atoms 3-4, 6-7, 9-10, 12-13 entry H          line    40 file /ddmfs1b/softs/psi4conda/share/psi4/basis/aug-cc-pvtz.gbs 


         ---------------------------------------------------------
                                   SCF
               by Justin Turney, Rob Parrish, Andy Simmonett
                          and Daniel G. A. Smith
                              RHF Reference
                       20 Threads,  57220 MiB Core
         ---------------------------------------------------------

  ==> Geometry <==

    Molecular point group: c1
    Full point group: C1

    Geometry (in Angstrom), charge = 0, multiplicity = 1:

       Center              X                  Y                   Z               Mass       
    ------------   -----------------  -----------------  -----------------  -----------------
      Gh(NA)          0.000000000000     0.000000000000     0.000000000000    22.989769282000
      Gh(O)           0.985243000000     1.361756000000    -1.542488000000    15.994914619570
      Gh(H)           1.874246000000     1.350733000000    -1.934909000000     1.007825032230
      Gh(H)           0.414988000000     1.260066000000    -2.324670000000     1.007825032230
      Gh(O)           0.823978000000     0.878247000000     2.115655000000    15.994914619570
      Gh(H)           1.298081000000     1.751934000000     2.375790000000     1.007825032230
      Gh(H)           0.257828000000     0.586640000000     2.820213000000     1.007825032230
      Gh(O)          -0.226418000000    -1.408438000000    -1.797917000000    15.994914619570
      Gh(H)          -0.917865000000    -2.089083000000    -1.585986000000     1.007825032230
      Gh(H)           0.448556000000    -1.874981000000    -2.327105000000     1.007825032230
         O           -1.974562000000     0.901395000000    -0.277079000000    15.994914619570
         H           -2.014013000000     1.682929000000     0.320102000000     1.007825032230
         H           -2.637138000000     0.327502000000     0.068322000000     1.007825032230

  Running in c1 symmetry.

  Rotational constants: A =      0.08803  B =      0.05604  C =      0.05296 [cm^-1]
  Rotational constants: A =   2639.00625  B =   1679.95687  C =   1587.82524 [MHz]
  Nuclear repulsion =    9.143749796508541

  Charge       = 0
  Multiplicity = 1
  Electrons    = 10
  Nalpha       = 5
  Nbeta        = 5

  ==> Algorithm <==

  SCF Algorithm Type is DF.
  DIIS enabled.
  MOM disabled.
  Fractional occupation disabled.
  Guess Type is SAD.
  Energy threshold   = 1.00e-08
  Density threshold  = 1.00e-08
  Integral threshold = 1.00e-12

  ==> Primary Basis <==

  Basis Set: AUG-CC-PVTZ
    Blend: AUG-CC-PVTZ
    Number of shells: 144
    Number of basis functions: 418
    Number of Cartesian functions: 479
    Spherical Harmonics?: true
    Max angular momentum: 3

   => Loading Basis Set <=

    Name: (AUG-CC-PVTZ AUX)
    Role: JKFIT
    Keyword: DF_BASIS_SCF
    atoms 1                     entry NA         line   498 file /ddmfs1b/softs/psi4conda/share/psi4/basis/def2-universal-jkfit.gbs 
    atoms 2, 5, 8, 11           entry O          line   286 file /ddmfs1b/softs/psi4conda/share/psi4/basis/aug-cc-pvtz-jkfit.gbs 
    atoms 3-4, 6-7, 9-10, 12-13 entry H          line    70 file /ddmfs1b/softs/psi4conda/share/psi4/basis/aug-cc-pvtz-jkfit.gbs 

  ==> Integral Setup <==

  DFHelper Memory: AOs need 1.150 GiB; user supplied 41.910 GiB. 
  Using in-core AOs.

  ==> MemDFJK: Density-Fitted J/K Matrices <==

    J tasked:                   Yes
    K tasked:                   Yes
    wK tasked:                   No
    OpenMP threads:              20
    Memory [MiB]:             42915
    Algorithm:                 Core
    Schwarz Cutoff:           1E-12
    Mask sparsity (%):       7.1473
    Fitting Condition:        1E-10

   => Auxiliary Basis Set <=

  Basis Set: (AUG-CC-PVTZ AUX)
    Blend: AUG-CC-PVTZ-JKFIT + DEF2-UNIVERSAL-JKFIT
    Number of shells: 266
    Number of basis functions: 896
    Number of Cartesian functions: 1101
    Spherical Harmonics?: true
    Max angular momentum: 4

  Minimum eigenvalue in the overlap matrix is 4.4429000914E-05.
  Reciprocal condition number of the overlap matrix is 3.5558489957E-06.
    Using symmetric orthogonalization.

  ==> Pre-Iterations <==

  SCF Guess: Superposition of Atomic Densities via on-the-fly atomic UHF (no occupation information).

   -------------------------
    Irrep   Nso     Nmo    
   -------------------------
     A        418     418 
   -------------------------
    Total     418     418
   -------------------------

  ==> Iterations <==

                           Total Energy        Delta E     RMS |[F,P]|

   @DF-RHF iter SAD:   -75.47170419074369   -7.54717e+01   0.00000e+00 
   @DF-RHF iter   1:   -75.97447212224290   -5.02768e-01   1.12133e-03 DIIS/ADIIS
   @DF-RHF iter   2:   -76.02700447258870   -5.25324e-02   7.68580e-04 DIIS/ADIIS
   @DF-RHF iter   3:   -76.05888805328962   -3.18836e-02   5.23275e-05 DIIS
   @DF-RHF iter   4:   -76.05928600238087   -3.97949e-04   1.26706e-05 DIIS
   @DF-RHF iter   5:   -76.05931166231062   -2.56599e-05   2.91836e-06 DIIS
   @DF-RHF iter   6:   -76.05931380940550   -2.14709e-06   6.41441e-07 DIIS
   @DF-RHF iter   7:   -76.05931392289284   -1.13487e-07   1.14034e-07 DIIS
   @DF-RHF iter   8:   -76.05931392602822   -3.13538e-09   1.92446e-08 DIIS
   @DF-RHF iter   9:   -76.05931392609915   -7.09264e-11   4.82283e-09 DIIS
  Energy and wave function converged.


  ==> Post-Iterations <==

    Orbital Energies [Eh]
    ---------------------

    Doubly Occupied:                                                      

       1A    -20.568410     2A     -1.351560     3A     -0.712587  
       4A     -0.585563     5A     -0.510168  

    Virtual:                                                              

       6A      0.007464     7A      0.016425     8A      0.016879  
       9A      0.018551    10A      0.039589    11A      0.051954  
      12A      0.054314    13A      0.055983    14A      0.057479  
      15A      0.059217    16A      0.060500    17A      0.063210  
      18A      0.067557    19A      0.081490    20A      0.083976  
      21A      0.087946    22A      0.091058    23A      0.093062  
      24A      0.098448    25A      0.111313    26A      0.117030  
      27A      0.136544    28A      0.139962    29A      0.144891  
      30A      0.159757    31A      0.164367    32A      0.173496  
      33A      0.180156    34A      0.187633    35A      0.190772  
      36A      0.198546    37A      0.205705    38A      0.211520  
      39A      0.213286    40A      0.220532    41A      0.224547  
      42A      0.237265    43A      0.253596    44A      0.256644  
      45A      0.271253    46A      0.280089    47A      0.283656  
      48A      0.287447    49A      0.297468    50A      0.302042  
      51A      0.306751    52A      0.311742    53A      0.319878  
      54A      0.328194    55A      0.339707    56A      0.353497  
      57A      0.356691    58A      0.362614    59A      0.365883  
      60A      0.375409    61A      0.376063    62A      0.389984  
      63A      0.394074    64A      0.399152    65A      0.410765  
      66A      0.414588    67A      0.424279    68A      0.431200  
      69A      0.434626    70A      0.437440    71A      0.441084  
      72A      0.443667    73A      0.450810    74A      0.456154  
      75A      0.461520    76A      0.466175    77A      0.473067  
      78A      0.476965    79A      0.484082    80A      0.493476  
      81A      0.498862    82A      0.501619    83A      0.510669  
      84A      0.525550    85A      0.530117    86A      0.539532  
      87A      0.545008    88A      0.572214    89A      0.576911  
      90A      0.586076    91A      0.607957    92A      0.632718  
      93A      0.635151    94A      0.678372    95A      0.684400  
      96A      0.705879    97A      0.719249    98A      0.721762  
      99A      0.730377   100A      0.746906   101A      0.754324  
     102A      0.768331   103A      0.783034   104A      0.796853  
     105A      0.801661   106A      0.803908   107A      0.816562  
     108A      0.829291   109A      0.838831   110A      0.847890  
     111A      0.853172   112A      0.862547   113A      0.870054  
     114A      0.885737   115A      0.886807   116A      0.905226  
     117A      0.920619   118A      0.928763   119A      0.932273  
     120A      0.937005   121A      0.943938   122A      0.956942  
     123A      0.968647   124A      0.972342   125A      0.976246  
     126A      0.990089   127A      0.993455   128A      0.997982  
     129A      1.001819   130A      1.010443   131A      1.019491  
     132A      1.027466   133A      1.035855   134A      1.038873  
     135A      1.049254   136A      1.060029   137A      1.067404  
     138A      1.073674   139A      1.083640   140A      1.096733  
     141A      1.101279   142A      1.108309   143A      1.113108  
     144A      1.114493   145A      1.122558   146A      1.129331  
     147A      1.143950   148A      1.151299   149A      1.162510  
     150A      1.164882   151A      1.178911   152A      1.183717  
     153A      1.192545   154A      1.201467   155A      1.211431  
     156A      1.219000   157A      1.227621   158A      1.249792  
     159A      1.253723   160A      1.260943   161A      1.274373  
     162A      1.284130   163A      1.293887   164A      1.316802  
     165A      1.320449   166A      1.336452   167A      1.346768  
     168A      1.363854   169A      1.370794   170A      1.384347  
     171A      1.386958   172A      1.402577   173A      1.418512  
     174A      1.424116   175A      1.462042   176A      1.467874  
     177A      1.504899   178A      1.518255   179A      1.525292  
     180A      1.546713   181A      1.560733   182A      1.615352  
     183A      1.619750   184A      1.637513   185A      1.663683  
     186A      1.664337   187A      1.690557   188A      1.715385  
     189A      1.735067   190A      1.775209   191A      1.800511  
     192A      1.821029   193A      1.831433   194A      1.846163  
     195A      1.860705   196A      1.862722   197A      1.874657  
     198A      1.893931   199A      1.899959   200A      1.905386  
     201A      1.945706   202A      1.961242   203A      1.975861  
     204A      1.989501   205A      2.016354   206A      2.024614  
     207A      2.028119   208A      2.047294   209A      2.060877  
     210A      2.077353   211A      2.091064   212A      2.131910  
     213A      2.163933   214A      2.250690   215A      2.354317  
     216A      2.429379   217A      2.449675   218A      2.459022  
     219A      2.482744   220A      2.504509   221A      2.535729  
     222A      2.549262   223A      2.565678   224A      2.577476  
     225A      2.582570   226A      2.587731   227A      2.602337  
     228A      2.617403   229A      2.641130   230A      2.650428  
     231A      2.654348   232A      2.667218   233A      2.680631  
     234A      2.693335   235A      2.724023   236A      2.739414  
     237A      2.771820   238A      2.783320   239A      2.802835  
     240A      2.815247   241A      2.835460   242A      2.850246  
     243A      2.871946   244A      2.908309   245A      2.934982  
     246A      2.941643   247A      2.952579   248A      2.973045  
     249A      2.979535   250A      3.001376   251A      3.068046  
     252A      3.095164   253A      3.175616   254A      3.194942  
     255A      3.229976   256A      3.241135   257A      3.257381  
     258A      3.272605   259A      3.275708   260A      3.311781  
     261A      3.342162   262A      3.349699   263A      3.365116  
     264A      3.375328   265A      3.401755   266A      3.410647  
     267A      3.439496   268A      3.467072   269A      3.609833  
     270A      3.627306   271A      3.681684   272A      3.740787  
     273A      3.775915   274A      3.788748   275A      3.845292  
     276A      3.921349   277A      4.132321   278A      4.223141  
     279A      4.302405   280A      4.326760   281A      4.351261  
     282A      4.399234   283A      4.425950   284A      4.431959  
     285A      4.487396   286A      4.517130   287A      4.527472  
     288A      4.535792   289A      4.547107   290A      4.563611  
     291A      4.569128   292A      4.598304   293A      4.614769  
     294A      4.625161   295A      4.648978   296A      4.668761  
     297A      4.690300   298A      4.698560   299A      4.756503  
     300A      4.758018   301A      4.771647   302A      4.788379  
     303A      4.814557   304A      4.855849   305A      4.927160  
     306A      4.964393   307A      4.984732   308A      5.010661  
     309A      5.019579   310A      5.030752   311A      5.048604  
     312A      5.071494   313A      5.132326   314A      5.144958  
     315A      5.157369   316A      5.199754   317A      5.204706  
     318A      5.246555   319A      5.268547   320A      5.331222  
     321A      5.406948   322A      5.435820   323A      5.456386  
     324A      5.468575   325A      5.496096   326A      5.558890  
     327A      5.570033   328A      5.622332   329A      5.651111  
     330A      5.675019   331A      5.680088   332A      5.715308  
     333A      5.769911   334A      5.797741   335A      5.881653  
     336A      5.965229   337A      6.158315   338A      6.177799  
     339A      6.283646   340A      6.315528   341A      6.340010  
     342A      6.350955   343A      6.429077   344A      6.623935  
     345A      6.647018   346A      6.659896   347A      6.679420  
     348A      6.793823   349A      6.939648   350A      7.028060  
     351A      7.037884   352A      7.059559   353A      7.078158  
     354A      7.150995   355A      7.251496   356A      7.344002  
     357A      7.376690   358A      7.403832   359A      7.441588  
     360A      7.478909   361A      7.644921   362A      7.676695  
     363A      7.723512   364A      7.738926   365A      7.761036  
     366A      7.804873   367A      7.856050   368A      7.903810  
     369A      7.912206   370A      8.018825   371A      8.062564  
     372A      8.092624   373A      8.121147   374A      8.170687  
     375A      8.212020   376A      8.231877   377A      8.246124  
     378A      8.255789   379A      8.338910   380A      8.672674  
     381A      8.685482   382A      8.720738   383A      8.736005  
     384A      8.795789   385A      8.851743   386A      8.886876  
     387A      9.896749   388A      9.921654   389A      9.944220  
     390A      9.970062   391A     10.000028   392A     10.018611  
     393A     10.031649   394A     10.046527   395A     10.070555  
     396A     10.170416   397A     10.254302   398A     10.275736  
     399A     10.910018   400A     11.117406   401A     11.218896  
     402A     11.727010   403A     11.798711   404A     11.841431  
     405A     12.044239   406A     12.094948   407A     12.122451  
     408A     13.378394   409A     13.459568   410A     13.591758  
     411A     13.917732   412A     13.952271   413A     13.978739  
     414A     16.160113   415A     64.021271   416A     64.261945  
     417A     64.864372   418A     64.961713  

    Final Occupation by Irrep:
              A 
    DOCC [     5 ]
    NA   [     5 ]
    NB   [     5 ]

  @DF-RHF Final Energy:   -76.05931392609915

   => Energetics <=

    Nuclear Repulsion Energy =              9.1437497965085406
    One-Electron Energy =                -122.9495487519070309
    Two-Electron Energy =                  37.7464850292993361
    Total Energy =                        -76.0593139260991506

Computation Completed


Properties will be evaluated at   0.000000,   0.000000,   0.000000 [a0]

Properties computed using the SCF density matrix


 Multipole Moments:

 ------------------------------------------------------------------------------------
     Multipole            Electronic (a.u.)      Nuclear  (a.u.)        Total (a.u.)
 ------------------------------------------------------------------------------------

 L = 1.  Multiply by 2.5417464519 to convert [e a0] to [Debye]
 Dipole X            :         38.1733218          -38.6404527           -0.4671310
 Dipole Y            :        -17.2957262           17.4262814            0.1305552
 Dipole Z            :          4.0761677           -3.4548124            0.6213553
 Magnitude           :                                                    0.7882502

 ------------------------------------------------------------------------------------

*** tstop() called on ddmfs1 at Mon Jan 22 14:25:35 2024
Module time:
	user time   =      63.15 seconds =       1.05 minutes
	system time =       4.49 seconds =       0.07 minutes
	total time  =          4 seconds =       0.07 minutes
Total time:
	user time   =      63.15 seconds =       1.05 minutes
	system time =       4.49 seconds =       0.07 minutes
	total time  =          4 seconds =       0.07 minutes

*** tstart() called on ddmfs1
*** at Mon Jan 22 14:25:35 2024


  //>>>>>>>>>>>>>>>>>>>>>>>>>>>>>>>>>>>//
  //               DFMP2               //
  //<<<<<<<<<<<<<<<<<<<<<<<<<<<<<<<<<<<//

   => Loading Basis Set <=

    Name: (AUG-CC-PVTZ AUX)
    Role: RIFIT
    Keyword: DF_BASIS_MP2
    atoms 1                     entry NA         line   610 file /ddmfs1b/softs/psi4conda/share/psi4/basis/def2-qzvpp-ri.gbs 
    atoms 2, 5, 8, 11           entry O          line   264 file /ddmfs1b/softs/psi4conda/share/psi4/basis/aug-cc-pvtz-ri.gbs 
    atoms 3-4, 6-7, 9-10, 12-13 entry H          line    30 file /ddmfs1b/softs/psi4conda/share/psi4/basis/aug-cc-pvtz-ri.gbs 

	 --------------------------------------------------------
	                          DF-MP2                         
	      2nd-Order Density-Fitted Moller-Plesset Theory     
	              RMP2 Wavefunction,  20 Threads             
	                                                         
	        Rob Parrish, Justin Turney, Andy Simmonett,      
	           Ed Hohenstein, and C. David Sherrill          
	 --------------------------------------------------------

   => Auxiliary Basis Set <=

  Basis Set: (AUG-CC-PVTZ AUX)
    Blend: AUG-CC-PVTZ-RI + DEF2-QZVPP-RI
    Number of shells: 266
    Number of basis functions: 958
    Number of Cartesian functions: 1198
    Spherical Harmonics?: true
    Max angular momentum: 4

	 --------------------------------------------------------
	                 NBF =   418, NAUX =   958
	 --------------------------------------------------------
	   CLASS    FOCC     OCC    AOCC    AVIR     VIR    FVIR
	   PAIRS       0       5       5     413     413       0
	 --------------------------------------------------------

	-----------------------------------------------------------
	 ==================> DF-MP2 Energies <==================== 
	-----------------------------------------------------------
	 Reference Energy          =     -76.0593139260991506 [Eh]
	 Singles Energy            =      -0.0000000000000000 [Eh]
	 Same-Spin Energy          =      -0.0685338974203799 [Eh]
	 Opposite-Spin Energy      =      -0.2162241470071241 [Eh]
	 Correlation Energy        =      -0.2847580444275040 [Eh]
	 Total Energy              =     -76.3440719705266559 [Eh]
	-----------------------------------------------------------
	 ================> DF-SCS-MP2 Energies <================== 
	-----------------------------------------------------------
	 SCS Same-Spin Scale       =       0.3333333333333333 [-]
	 SCS Opposite-Spin Scale   =       1.2000000000000000 [-]
	 SCS Same-Spin Energy      =      -0.0228446324734600 [Eh]
	 SCS Opposite-Spin Energy  =      -0.2594689764085489 [Eh]
	 SCS Correlation Energy    =      -0.2823136088820089 [Eh]
	 SCS Total Energy          =     -76.3416275349811571 [Eh]
	-----------------------------------------------------------


*** tstop() called on ddmfs1 at Mon Jan 22 14:25:41 2024
Module time:
	user time   =      21.45 seconds =       0.36 minutes
	system time =       1.65 seconds =       0.03 minutes
	total time  =          6 seconds =       0.10 minutes
Total time:
	user time   =      84.62 seconds =       1.41 minutes
	system time =       6.14 seconds =       0.10 minutes
	total time  =         10 seconds =       0.17 minutes

    Psi4 stopped on: Monday, 22 January 2024 02:25PM
    Psi4 wall time for execution: 0:00:09.81

*** Psi4 exiting successfully. Buy a developer a beer!
