
    -----------------------------------------------------------------------
          Psi4: An Open-Source Ab Initio Electronic Structure Package
                               Psi4 1.8.2 release

                         Git: Rev {} zzzzzzz 


    D. G. A. Smith, L. A. Burns, A. C. Simmonett, R. M. Parrish,
    M. C. Schieber, R. Galvelis, P. Kraus, H. Kruse, R. Di Remigio,
    A. Alenaizan, A. M. James, S. Lehtola, J. P. Misiewicz, M. Scheurer,
    R. A. Shaw, J. B. Schriber, Y. Xie, Z. L. Glick, D. A. Sirianni,
    J. S. O'Brien, J. M. Waldrop, A. Kumar, E. G. Hohenstein,
    B. P. Pritchard, B. R. Brooks, H. F. Schaefer III, A. Yu. Sokolov,
    K. Patkowski, A. E. DePrince III, U. Bozkaya, R. A. King,
    F. A. Evangelista, J. M. Turney, T. D. Crawford, C. D. Sherrill,
    J. Chem. Phys. 152(18) 184108 (2020). https://doi.org/10.1063/5.0006002

                            Additional Code Authors
    E. T. Seidl, C. L. Janssen, E. F. Valeev, M. L. Leininger,
    J. F. Gonthier, R. M. Richard, H. R. McAlexander, M. Saitow, X. Wang,
    P. Verma, M. H. Lechner, A. Jiang, S. Behnle, A. G. Heide,
    M. F. Herbst, and D. L. Poole

             Previous Authors, Complete List of Code Contributors,
                       and Citations for Specific Modules
    https://github.com/psi4/psi4/blob/master/codemeta.json
    https://github.com/psi4/psi4/graphs/contributors
    http://psicode.org/psi4manual/master/introduction.html#citing-psifour

    -----------------------------------------------------------------------


    Psi4 started on: Monday, 22 January 2024 02:41PM

    Process ID: 68240
    Host:       ddmfs1
    PSIDATADIR: /ddmfs1b/softs/psi4conda/share/psi4
    Memory:     500.0 MiB
    Threads:    20
    
  ==> Input File <==

--------------------------------------------------------------------------
MEMORY 60 GB

molecule dimer {
0 1
Gh(Na)     0.000000     0.000000     0.000000
Gh(O)      2.278346     0.669364     0.093229
Gh(H)      2.155569     1.631124     0.248455
Gh(H)      2.996795     0.615513    -0.539242
O         -0.417855     2.173232    -1.030201
H         -1.263162     1.963044    -0.589085
H         -0.580901     2.219109    -2.006056
Gh(O)      0.265411     0.942068     2.195530
Gh(H)      0.357741     1.810493     2.531820
Gh(H)     -0.347040     0.368824     2.685547
Gh(O)     -2.262886     0.226621     0.167464
Gh(H)     -2.857538    -0.347387     0.685673
Gh(H)     -2.901645     0.732549    -0.387800
Gh(O)      0.439362    -2.429410     0.826166
Gh(H)      0.485462    -2.565000     1.758293
Gh(H)     -0.253748    -2.976041     0.529420
Gh(O)     -0.408571    -1.310127    -2.006589
Gh(H)     -1.342634    -1.270196    -2.124955
Gh(H)     -0.009102    -1.170847    -2.843478

units ang
no_reorient
no_com
symmetry c1
}

set {
basis        aug-cc-pVTZ
scf_type     df
}

energy("mp2")
--------------------------------------------------------------------------

  Memory set to  55.879 GiB by Python driver.

Scratch directory: /ddmfs1a/scratch/
   => Libint2 <=

    Primary   basis highest AM E, G, H:  5, 4, 3
    Auxiliary basis highest AM E, G, H:  6, 5, 4
    Onebody   basis highest AM E, G, H:  6, 5, 4
    Solid Harmonics ordering:            gaussian

*** tstart() called on ddmfs1
*** at Mon Jan 22 14:41:44 2024

   => Loading Basis Set <=

    Name: AUG-CC-PVTZ
    Role: ORBITAL
    Keyword: BASIS
    atoms 1                                   entry NA         line   469 file /ddmfs1b/softs/psi4conda/share/psi4/basis/aug-cc-pvtz.gbs 
    atoms 2, 5, 8, 11, 14, 17                 entry O          line   331 file /ddmfs1b/softs/psi4conda/share/psi4/basis/aug-cc-pvtz.gbs 
    atoms 3-4, 6-7, 9-10, 12-13, 15-16, 18-19 entry H          line    40 file /ddmfs1b/softs/psi4conda/share/psi4/basis/aug-cc-pvtz.gbs 


         ---------------------------------------------------------
                                   SCF
               by Justin Turney, Rob Parrish, Andy Simmonett
                          and Daniel G. A. Smith
                              RHF Reference
                       20 Threads,  57220 MiB Core
         ---------------------------------------------------------

  ==> Geometry <==

    Molecular point group: c1
    Full point group: C1

    Geometry (in Angstrom), charge = 0, multiplicity = 1:

       Center              X                  Y                   Z               Mass       
    ------------   -----------------  -----------------  -----------------  -----------------
      Gh(NA)          0.000000000000     0.000000000000     0.000000000000    22.989769282000
      Gh(O)           2.278346000000     0.669364000000     0.093229000000    15.994914619570
      Gh(H)           2.155569000000     1.631124000000     0.248455000000     1.007825032230
      Gh(H)           2.996795000000     0.615513000000    -0.539242000000     1.007825032230
         O           -0.417855000000     2.173232000000    -1.030201000000    15.994914619570
         H           -1.263162000000     1.963044000000    -0.589085000000     1.007825032230
         H           -0.580901000000     2.219109000000    -2.006056000000     1.007825032230
      Gh(O)           0.265411000000     0.942068000000     2.195530000000    15.994914619570
      Gh(H)           0.357741000000     1.810493000000     2.531820000000     1.007825032230
      Gh(H)          -0.347040000000     0.368824000000     2.685547000000     1.007825032230
      Gh(O)          -2.262886000000     0.226621000000     0.167464000000    15.994914619570
      Gh(H)          -2.857538000000    -0.347387000000     0.685673000000     1.007825032230
      Gh(H)          -2.901645000000     0.732549000000    -0.387800000000     1.007825032230
      Gh(O)           0.439362000000    -2.429410000000     0.826166000000    15.994914619570
      Gh(H)           0.485462000000    -2.565000000000     1.758293000000     1.007825032230
      Gh(H)          -0.253748000000    -2.976041000000     0.529420000000     1.007825032230
      Gh(O)          -0.408571000000    -1.310127000000    -2.006589000000    15.994914619570
      Gh(H)          -1.342634000000    -1.270196000000    -2.124955000000     1.007825032230
      Gh(H)          -0.009102000000    -1.170847000000    -2.843478000000     1.007825032230

  Running in c1 symmetry.

  Rotational constants: A =      0.04091  B =      0.03944  C =      0.03385 [cm^-1]
  Rotational constants: A =   1226.55831  B =   1182.53007  C =   1014.68858 [MHz]
  Nuclear repulsion =    8.942223998631372

  Charge       = 0
  Multiplicity = 1
  Electrons    = 10
  Nalpha       = 5
  Nbeta        = 5

  ==> Algorithm <==

  SCF Algorithm Type is DF.
  DIIS enabled.
  MOM disabled.
  Fractional occupation disabled.
  Guess Type is SAD.
  Energy threshold   = 1.00e-08
  Density threshold  = 1.00e-08
  Integral threshold = 1.00e-12

  ==> Primary Basis <==

  Basis Set: AUG-CC-PVTZ
    Blend: AUG-CC-PVTZ
    Number of shells: 208
    Number of basis functions: 602
    Number of Cartesian functions: 689
    Spherical Harmonics?: true
    Max angular momentum: 3

   => Loading Basis Set <=

    Name: (AUG-CC-PVTZ AUX)
    Role: JKFIT
    Keyword: DF_BASIS_SCF
    atoms 1                                   entry NA         line   498 file /ddmfs1b/softs/psi4conda/share/psi4/basis/def2-universal-jkfit.gbs 
    atoms 2, 5, 8, 11, 14, 17                 entry O          line   286 file /ddmfs1b/softs/psi4conda/share/psi4/basis/aug-cc-pvtz-jkfit.gbs 
    atoms 3-4, 6-7, 9-10, 12-13, 15-16, 18-19 entry H          line    70 file /ddmfs1b/softs/psi4conda/share/psi4/basis/aug-cc-pvtz-jkfit.gbs 

  ==> Integral Setup <==

  DFHelper Memory: AOs need 3.301 GiB; user supplied 41.910 GiB. 
  Using in-core AOs.

  ==> MemDFJK: Density-Fitted J/K Matrices <==

    J tasked:                   Yes
    K tasked:                   Yes
    wK tasked:                   No
    OpenMP threads:              20
    Memory [MiB]:             42915
    Algorithm:                 Core
    Schwarz Cutoff:           1E-12
    Mask sparsity (%):       9.0899
    Fitting Condition:        1E-10

   => Auxiliary Basis Set <=

  Basis Set: (AUG-CC-PVTZ AUX)
    Blend: AUG-CC-PVTZ-JKFIT + DEF2-UNIVERSAL-JKFIT
    Number of shells: 382
    Number of basis functions: 1288
    Number of Cartesian functions: 1583
    Spherical Harmonics?: true
    Max angular momentum: 4

  Minimum eigenvalue in the overlap matrix is 1.4438187289E-05.
  Reciprocal condition number of the overlap matrix is 9.2655596422E-07.
    Using symmetric orthogonalization.

  ==> Pre-Iterations <==

  SCF Guess: Superposition of Atomic Densities via on-the-fly atomic UHF (no occupation information).

   -------------------------
    Irrep   Nso     Nmo    
   -------------------------
     A        602     602 
   -------------------------
    Total     602     602
   -------------------------

  ==> Iterations <==

                           Total Energy        Delta E     RMS |[F,P]|

   @DF-RHF iter SAD:   -75.44385915204262   -7.54439e+01   0.00000e+00 
   @DF-RHF iter   1:   -75.97232294207942   -5.28464e-01   7.75177e-04 DIIS/ADIIS
   @DF-RHF iter   2:   -76.02393103897985   -5.16081e-02   5.40837e-04 DIIS/ADIIS
   @DF-RHF iter   3:   -76.05694931760695   -3.30183e-02   3.69363e-05 DIIS
   @DF-RHF iter   4:   -76.05737821104064   -4.28893e-04   9.33478e-06 DIIS
   @DF-RHF iter   5:   -76.05740834062372   -3.01296e-05   2.16133e-06 DIIS
   @DF-RHF iter   6:   -76.05741091440086   -2.57378e-06   4.83689e-07 DIIS
   @DF-RHF iter   7:   -76.05741105555896   -1.41158e-07   8.94903e-08 DIIS
   @DF-RHF iter   8:   -76.05741105977346   -4.21450e-09   1.54331e-08 DIIS
   @DF-RHF iter   9:   -76.05741105987632   -1.02858e-10   4.04036e-09 DIIS
  Energy and wave function converged.


  ==> Post-Iterations <==

    Orbital Energies [Eh]
    ---------------------

    Doubly Occupied:                                                      

       1A    -20.569734     2A     -1.337891     3A     -0.710234  
       4A     -0.572661     5A     -0.507069  

    Virtual:                                                              

       6A      0.006951     7A      0.015838     8A      0.016595  
       9A      0.018055    10A      0.035835    11A      0.050086  
      12A      0.050810    13A      0.051882    14A      0.054290  
      15A      0.055973    16A      0.058175    17A      0.060317  
      18A      0.062712    19A      0.076643    20A      0.078609  
      21A      0.079096    22A      0.083529    23A      0.086556  
      24A      0.088448    25A      0.092912    26A      0.098450  
      27A      0.109973    28A      0.112746    29A      0.116159  
      30A      0.120296    31A      0.132197    32A      0.134966  
      33A      0.141192    34A      0.155835    35A      0.166007  
      36A      0.168193    37A      0.172666    38A      0.175327  
      39A      0.178258    40A      0.191628    41A      0.194512  
      42A      0.196604    43A      0.199839    44A      0.204693  
      45A      0.208134    46A      0.214163    47A      0.221159  
      48A      0.227073    49A      0.232436    50A      0.243807  
      51A      0.250880    52A      0.254732    53A      0.259163  
      54A      0.262298    55A      0.267343    56A      0.270555  
      57A      0.278928    58A      0.286391    59A      0.289335  
      60A      0.300147    61A      0.307393    62A      0.319115  
      63A      0.333130    64A      0.336755    65A      0.341063  
      66A      0.345190    67A      0.351187    68A      0.355768  
      69A      0.360718    70A      0.363184    71A      0.367795  
      72A      0.377587    73A      0.380199    74A      0.389571  
      75A      0.391182    76A      0.399271    77A      0.404634  
      78A      0.408750    79A      0.416537    80A      0.424483  
      81A      0.425349    82A      0.430601    83A      0.432749  
      84A      0.434610    85A      0.443214    86A      0.444329  
      87A      0.446417    88A      0.454225    89A      0.455601  
      90A      0.458457    91A      0.462762    92A      0.472326  
      93A      0.477112    94A      0.483050    95A      0.486151  
      96A      0.491803    97A      0.496518    98A      0.500184  
      99A      0.505379   100A      0.510859   101A      0.513304  
     102A      0.516718   103A      0.521597   104A      0.529997  
     105A      0.534054   106A      0.542100   107A      0.543822  
     108A      0.547934   109A      0.555238   110A      0.560100  
     111A      0.564324   112A      0.579806   113A      0.581047  
     114A      0.585693   115A      0.601262   116A      0.614349  
     117A      0.618347   118A      0.625869   119A      0.671787  
     120A      0.682684   121A      0.695211   122A      0.711252  
     123A      0.716766   124A      0.729937   125A      0.738529  
     126A      0.752711   127A      0.761162   128A      0.765605  
     129A      0.768908   130A      0.778388   131A      0.782850  
     132A      0.803579   133A      0.805711   134A      0.811193  
     135A      0.821936   136A      0.825066   137A      0.830122  
     138A      0.833361   139A      0.843375   140A      0.851888  
     141A      0.855756   142A      0.857271   143A      0.864735  
     144A      0.874090   145A      0.882506   146A      0.885170  
     147A      0.897553   148A      0.904947   149A      0.908561  
     150A      0.915155   151A      0.919227   152A      0.937066  
     153A      0.941878   154A      0.943379   155A      0.953416  
     156A      0.958608   157A      0.968654   158A      0.972582  
     159A      0.974094   160A      0.977688   161A      0.982917  
     162A      0.986879   163A      0.995618   164A      1.002933  
     165A      1.009637   166A      1.020842   167A      1.024576  
     168A      1.028204   169A      1.034558   170A      1.038661  
     171A      1.042600   172A      1.044846   173A      1.055421  
     174A      1.060600   175A      1.067898   176A      1.074843  
     177A      1.077934   178A      1.083511   179A      1.085526  
     180A      1.088822   181A      1.093520   182A      1.109207  
     183A      1.109953   184A      1.115349   185A      1.121241  
     186A      1.138140   187A      1.139442   188A      1.151600  
     189A      1.153860   190A      1.158532   191A      1.168375  
     192A      1.171234   193A      1.178634   194A      1.182726  
     195A      1.187040   196A      1.189248   197A      1.200361  
     198A      1.203716   199A      1.229522   200A      1.237161  
     201A      1.243318   202A      1.247092   203A      1.252173  
     204A      1.255277   205A      1.264506   206A      1.275396  
     207A      1.290098   208A      1.292650   209A      1.295902  
     210A      1.308220   211A      1.321423   212A      1.322639  
     213A      1.331272   214A      1.342298   215A      1.345790  
     216A      1.352325   217A      1.360745   218A      1.361529  
     219A      1.378839   220A      1.380863   221A      1.391173  
     222A      1.408614   223A      1.409494   224A      1.420063  
     225A      1.424491   226A      1.433406   227A      1.444208  
     228A      1.449760   229A      1.457375   230A      1.459602  
     231A      1.475475   232A      1.486343   233A      1.487346  
     234A      1.500891   235A      1.501671   236A      1.511045  
     237A      1.529948   238A      1.537269   239A      1.549750  
     240A      1.557143   241A      1.562516   242A      1.585229  
     243A      1.591109   244A      1.622282   245A      1.632822  
     246A      1.648507   247A      1.654815   248A      1.664314  
     249A      1.696257   250A      1.700846   251A      1.709000  
     252A      1.710959   253A      1.728943   254A      1.738401  
     255A      1.751053   256A      1.772649   257A      1.798973  
     258A      1.814009   259A      1.825266   260A      1.830900  
     261A      1.852599   262A      1.859792   263A      1.872173  
     264A      1.875195   265A      1.883311   266A      1.889031  
     267A      1.898958   268A      1.900996   269A      1.914897  
     270A      1.922572   271A      1.932548   272A      1.939586  
     273A      1.950908   274A      1.965747   275A      1.973722  
     276A      1.985989   277A      1.992696   278A      2.005935  
     279A      2.016366   280A      2.026777   281A      2.033950  
     282A      2.045946   283A      2.055407   284A      2.056365  
     285A      2.073027   286A      2.079794   287A      2.094615  
     288A      2.103351   289A      2.118170   290A      2.130436  
     291A      2.136375   292A      2.144200   293A      2.155795  
     294A      2.165961   295A      2.293074   296A      2.335585  
     297A      2.448718   298A      2.465552   299A      2.473708  
     300A      2.492452   301A      2.504666   302A      2.527749  
     303A      2.538514   304A      2.542935   305A      2.559894  
     306A      2.582659   307A      2.584645   308A      2.597044  
     309A      2.607967   310A      2.626526   311A      2.627927  
     312A      2.634804   313A      2.647062   314A      2.657424  
     315A      2.671952   316A      2.673649   317A      2.679000  
     318A      2.687762   319A      2.694624   320A      2.701310  
     321A      2.719011   322A      2.723715   323A      2.731403  
     324A      2.744370   325A      2.773529   326A      2.784327  
     327A      2.800115   328A      2.807330   329A      2.824078  
     330A      2.855263   331A      2.860361   332A      2.880941  
     333A      2.885989   334A      2.905809   335A      2.922973  
     336A      2.934768   337A      2.940695   338A      2.947235  
     339A      2.973447   340A      2.982630   341A      2.992793  
     342A      3.017639   343A      3.021013   344A      3.038878  
     345A      3.067920   346A      3.078616   347A      3.111432  
     348A      3.122073   349A      3.142021   350A      3.159898  
     351A      3.184400   352A      3.208116   353A      3.223387  
     354A      3.245772   355A      3.260867   356A      3.270081  
     357A      3.283910   358A      3.290291   359A      3.303318  
     360A      3.313138   361A      3.323326   362A      3.337550  
     363A      3.346911   364A      3.371704   365A      3.377777  
     366A      3.379802   367A      3.390920   368A      3.398891  
     369A      3.408577   370A      3.420251   371A      3.433370  
     372A      3.445161   373A      3.463544   374A      3.475895  
     375A      3.500321   376A      3.517469   377A      3.522510  
     378A      3.575799   379A      3.631119   380A      3.651054  
     381A      3.676812   382A      3.715117   383A      3.723224  
     384A      3.753399   385A      3.778790   386A      3.786988  
     387A      3.806202   388A      3.844980   389A      3.909756  
     390A      4.050718   391A      4.169662   392A      4.292885  
     393A      4.342591   394A      4.409730   395A      4.435896  
     396A      4.445263   397A      4.457930   398A      4.469608  
     399A      4.474984   400A      4.491233   401A      4.533290  
     402A      4.556075   403A      4.563114   404A      4.593217  
     405A      4.596190   406A      4.604730   407A      4.613926  
     408A      4.615743   409A      4.643596   410A      4.651445  
     411A      4.655372   412A      4.670845   413A      4.678897  
     414A      4.701315   415A      4.726972   416A      4.732729  
     417A      4.743805   418A      4.759984   419A      4.765563  
     420A      4.777432   421A      4.798316   422A      4.802040  
     423A      4.811661   424A      4.831138   425A      4.841812  
     426A      4.847763   427A      4.862811   428A      4.884166  
     429A      4.895008   430A      4.914312   431A      4.950454  
     432A      5.006346   433A      5.022134   434A      5.026155  
     435A      5.035853   436A      5.059173   437A      5.062027  
     438A      5.081565   439A      5.082554   440A      5.098309  
     441A      5.102867   442A      5.121623   443A      5.127688  
     444A      5.145809   445A      5.149305   446A      5.162014  
     447A      5.194447   448A      5.217149   449A      5.250844  
     450A      5.276774   451A      5.297093   452A      5.305298  
     453A      5.316405   454A      5.374832   455A      5.429831  
     456A      5.518353   457A      5.547334   458A      5.553051  
     459A      5.604211   460A      5.615589   461A      5.618996  
     462A      5.623628   463A      5.629743   464A      5.656462  
     465A      5.734572   466A      5.738492   467A      5.764833  
     468A      5.778902   469A      5.789009   470A      5.803433  
     471A      5.829770   472A      5.838515   473A      5.874934  
     474A      5.933124   475A      5.963254   476A      5.971129  
     477A      6.063551   478A      6.194416   479A      6.237576  
     480A      6.283837   481A      6.297365   482A      6.324563  
     483A      6.338414   484A      6.396862   485A      6.428101  
     486A      6.435070   487A      6.472960   488A      6.512381  
     489A      6.538961   490A      6.652416   491A      6.729813  
     492A      6.748889   493A      6.834732   494A      6.850903  
     495A      6.909719   496A      6.957641   497A      7.004455  
     498A      7.069531   499A      7.118045   500A      7.202717  
     501A      7.213058   502A      7.244039   503A      7.251308  
     504A      7.302992   505A      7.383211   506A      7.388548  
     507A      7.445917   508A      7.476701   509A      7.514378  
     510A      7.565729   511A      7.723443   512A      7.758103  
     513A      7.764596   514A      7.768793   515A      7.786709  
     516A      7.822592   517A      7.838971   518A      7.886247  
     519A      7.896484   520A      7.912893   521A      7.941219  
     522A      7.948477   523A      8.030762   524A      8.104612  
     525A      8.142440   526A      8.143459   527A      8.171461  
     528A      8.178521   529A      8.207524   530A      8.215054  
     531A      8.232730   532A      8.288129   533A      8.295709  
     534A      8.308535   535A      8.329888   536A      8.355807  
     537A      8.375334   538A      8.395338   539A      8.441671  
     540A      8.744142   541A      8.762188   542A      8.798933  
     543A      8.827050   544A      8.861796   545A      8.873233  
     546A      8.949729   547A      8.967725   548A      8.985921  
     549A      8.992686   550A      9.020033   551A      9.910810  
     552A      9.934951   553A      9.970727   554A      9.971137  
     555A      9.993366   556A     10.009040   557A     10.024670  
     558A     10.027300   559A     10.034318   560A     10.041010  
     561A     10.058614   562A     10.082798   563A     10.090844  
     564A     10.101667   565A     10.113979   566A     10.193705  
     567A     10.247908   568A     10.257831   569A     10.282668  
     570A     10.311702   571A     11.152248   572A     11.192401  
     573A     11.222414   574A     11.352919   575A     11.404569  
     576A     11.815207   577A     11.874331   578A     11.886288  
     579A     11.918695   580A     11.965106   581A     12.139022  
     582A     12.209618   583A     12.461940   584A     12.483464  
     585A     12.490384   586A     13.599819   587A     13.622740  
     588A     13.712253   589A     13.801403   590A     13.841582  
     591A     13.912651   592A     13.939543   593A     13.959790  
     594A     13.991855   595A     14.023017   596A     15.903971  
     597A     64.925159   598A     65.029384   599A     65.215096  
     600A     66.312854   601A     66.948893   602A     66.997563  

    Final Occupation by Irrep:
              A 
    DOCC [     5 ]
    NA   [     5 ]
    NB   [     5 ]

  @DF-RHF Final Energy:   -76.05741105987632

   => Energetics <=

    Nuclear Repulsion Energy =              8.9422239986313716
    One-Electron Energy =                -122.6040913368529459
    Two-Electron Energy =                  37.6044562783452463
    Total Energy =                        -76.0574110598763298

Computation Completed


Properties will be evaluated at   0.000000,   0.000000,   0.000000 [a0]

Properties computed using the SCF density matrix


 Multipole Moments:

 ------------------------------------------------------------------------------------
     Multipole            Electronic (a.u.)      Nuclear  (a.u.)        Total (a.u.)
 ------------------------------------------------------------------------------------

 L = 1.  Multiply by 2.5417464519 to convert [e a0] to [Debye]
 Dipole X            :          9.1338238           -9.8018261           -0.6680024
 Dipole Y            :        -40.8664694           40.7576301           -0.1088394
 Dipole Z            :         20.1267652          -20.4784877           -0.3517225
 Magnitude           :                                                    0.7627463

 ------------------------------------------------------------------------------------

*** tstop() called on ddmfs1 at Mon Jan 22 14:41:53 2024
Module time:
	user time   =     133.00 seconds =       2.22 minutes
	system time =       7.46 seconds =       0.12 minutes
	total time  =          9 seconds =       0.15 minutes
Total time:
	user time   =     133.00 seconds =       2.22 minutes
	system time =       7.46 seconds =       0.12 minutes
	total time  =          9 seconds =       0.15 minutes

*** tstart() called on ddmfs1
*** at Mon Jan 22 14:41:53 2024


  //>>>>>>>>>>>>>>>>>>>>>>>>>>>>>>>>>>>//
  //               DFMP2               //
  //<<<<<<<<<<<<<<<<<<<<<<<<<<<<<<<<<<<//

   => Loading Basis Set <=

    Name: (AUG-CC-PVTZ AUX)
    Role: RIFIT
    Keyword: DF_BASIS_MP2
    atoms 1                                   entry NA         line   610 file /ddmfs1b/softs/psi4conda/share/psi4/basis/def2-qzvpp-ri.gbs 
    atoms 2, 5, 8, 11, 14, 17                 entry O          line   264 file /ddmfs1b/softs/psi4conda/share/psi4/basis/aug-cc-pvtz-ri.gbs 
    atoms 3-4, 6-7, 9-10, 12-13, 15-16, 18-19 entry H          line    30 file /ddmfs1b/softs/psi4conda/share/psi4/basis/aug-cc-pvtz-ri.gbs 

	 --------------------------------------------------------
	                          DF-MP2                         
	      2nd-Order Density-Fitted Moller-Plesset Theory     
	              RMP2 Wavefunction,  20 Threads             
	                                                         
	        Rob Parrish, Justin Turney, Andy Simmonett,      
	           Ed Hohenstein, and C. David Sherrill          
	 --------------------------------------------------------

   => Auxiliary Basis Set <=

  Basis Set: (AUG-CC-PVTZ AUX)
    Blend: AUG-CC-PVTZ-RI + DEF2-QZVPP-RI
    Number of shells: 378
    Number of basis functions: 1354
    Number of Cartesian functions: 1690
    Spherical Harmonics?: true
    Max angular momentum: 4

	 --------------------------------------------------------
	                 NBF =   602, NAUX =  1354
	 --------------------------------------------------------
	   CLASS    FOCC     OCC    AOCC    AVIR     VIR    FVIR
	   PAIRS       0       5       5     597     597       0
	 --------------------------------------------------------

	-----------------------------------------------------------
	 ==================> DF-MP2 Energies <==================== 
	-----------------------------------------------------------
	 Reference Energy          =     -76.0574110598763156 [Eh]
	 Singles Energy            =      -0.0000000000000000 [Eh]
	 Same-Spin Energy          =      -0.0688411042426684 [Eh]
	 Opposite-Spin Energy      =      -0.2173725031520898 [Eh]
	 Correlation Energy        =      -0.2862136073947582 [Eh]
	 Total Energy              =     -76.3436246672710723 [Eh]
	-----------------------------------------------------------
	 ================> DF-SCS-MP2 Energies <================== 
	-----------------------------------------------------------
	 SCS Same-Spin Scale       =       0.3333333333333333 [-]
	 SCS Opposite-Spin Scale   =       1.2000000000000000 [-]
	 SCS Same-Spin Energy      =      -0.0229470347475561 [Eh]
	 SCS Opposite-Spin Energy  =      -0.2608470037825077 [Eh]
	 SCS Correlation Energy    =      -0.2837940385300638 [Eh]
	 SCS Total Energy          =     -76.3412050984063768 [Eh]
	-----------------------------------------------------------


*** tstop() called on ddmfs1 at Mon Jan 22 14:42:01 2024
Module time:
	user time   =      37.58 seconds =       0.63 minutes
	system time =       2.60 seconds =       0.04 minutes
	total time  =          8 seconds =       0.13 minutes
Total time:
	user time   =     170.60 seconds =       2.84 minutes
	system time =      10.06 seconds =       0.17 minutes
	total time  =         17 seconds =       0.28 minutes

    Psi4 stopped on: Monday, 22 January 2024 02:42PM
    Psi4 wall time for execution: 0:00:18.00

*** Psi4 exiting successfully. Buy a developer a beer!
