
    -----------------------------------------------------------------------
          Psi4: An Open-Source Ab Initio Electronic Structure Package
                               Psi4 1.8.2 release

                         Git: Rev {} zzzzzzz 


    D. G. A. Smith, L. A. Burns, A. C. Simmonett, R. M. Parrish,
    M. C. Schieber, R. Galvelis, P. Kraus, H. Kruse, R. Di Remigio,
    A. Alenaizan, A. M. James, S. Lehtola, J. P. Misiewicz, M. Scheurer,
    R. A. Shaw, J. B. Schriber, Y. Xie, Z. L. Glick, D. A. Sirianni,
    J. S. O'Brien, J. M. Waldrop, A. Kumar, E. G. Hohenstein,
    B. P. Pritchard, B. R. Brooks, H. F. Schaefer III, A. Yu. Sokolov,
    K. Patkowski, A. E. DePrince III, U. Bozkaya, R. A. King,
    F. A. Evangelista, J. M. Turney, T. D. Crawford, C. D. Sherrill,
    J. Chem. Phys. 152(18) 184108 (2020). https://doi.org/10.1063/5.0006002

                            Additional Code Authors
    E. T. Seidl, C. L. Janssen, E. F. Valeev, M. L. Leininger,
    J. F. Gonthier, R. M. Richard, H. R. McAlexander, M. Saitow, X. Wang,
    P. Verma, M. H. Lechner, A. Jiang, S. Behnle, A. G. Heide,
    M. F. Herbst, and D. L. Poole

             Previous Authors, Complete List of Code Contributors,
                       and Citations for Specific Modules
    https://github.com/psi4/psi4/blob/master/codemeta.json
    https://github.com/psi4/psi4/graphs/contributors
    http://psicode.org/psi4manual/master/introduction.html#citing-psifour

    -----------------------------------------------------------------------


    Psi4 started on: Monday, 22 January 2024 04:14PM

    Process ID: 76706
    Host:       ddmfs1
    PSIDATADIR: /ddmfs1b/softs/psi4conda/share/psi4
    Memory:     500.0 MiB
    Threads:    20
    
  ==> Input File <==

--------------------------------------------------------------------------
MEMORY 60 GB

molecule dimer {
0 1
Gh(Na)     0.000000     0.000000     0.000000
O          0.974400    -1.500805    -1.578092
H          0.289260    -1.851647    -2.169700
H          1.709261    -1.238602    -2.153686
Gh(O)     -1.797096     0.831159    -1.319080
Gh(H)     -1.656469     1.372669    -2.125826
Gh(H)     -2.720728     0.976342    -1.054127
Gh(O)      2.455762     0.636301     0.302092
Gh(H)      2.886737     1.301869     0.827337
Gh(H)      3.173762     0.185035    -0.192646
Gh(O)      0.452548     1.189970     2.197550
Gh(H)      1.237469     0.673737     2.428768
Gh(H)     -0.021114     1.508820     3.014876

units ang
no_reorient
no_com
symmetry c1
}

set {
basis        aug-cc-pVTZ
scf_type     df
}

energy("mp2")
--------------------------------------------------------------------------

  Memory set to  55.879 GiB by Python driver.

Scratch directory: /ddmfs1a/scratch/
   => Libint2 <=

    Primary   basis highest AM E, G, H:  5, 4, 3
    Auxiliary basis highest AM E, G, H:  6, 5, 4
    Onebody   basis highest AM E, G, H:  6, 5, 4
    Solid Harmonics ordering:            gaussian

*** tstart() called on ddmfs1
*** at Mon Jan 22 16:14:16 2024

   => Loading Basis Set <=

    Name: AUG-CC-PVTZ
    Role: ORBITAL
    Keyword: BASIS
    atoms 1                     entry NA         line   469 file /ddmfs1b/softs/psi4conda/share/psi4/basis/aug-cc-pvtz.gbs 
    atoms 2, 5, 8, 11           entry O          line   331 file /ddmfs1b/softs/psi4conda/share/psi4/basis/aug-cc-pvtz.gbs 
    atoms 3-4, 6-7, 9-10, 12-13 entry H          line    40 file /ddmfs1b/softs/psi4conda/share/psi4/basis/aug-cc-pvtz.gbs 


         ---------------------------------------------------------
                                   SCF
               by Justin Turney, Rob Parrish, Andy Simmonett
                          and Daniel G. A. Smith
                              RHF Reference
                       20 Threads,  57220 MiB Core
         ---------------------------------------------------------

  ==> Geometry <==

    Molecular point group: c1
    Full point group: C1

    Geometry (in Angstrom), charge = 0, multiplicity = 1:

       Center              X                  Y                   Z               Mass       
    ------------   -----------------  -----------------  -----------------  -----------------
      Gh(NA)          0.000000000000     0.000000000000     0.000000000000    22.989769282000
         O            0.974400000000    -1.500805000000    -1.578092000000    15.994914619570
         H            0.289260000000    -1.851647000000    -2.169700000000     1.007825032230
         H            1.709261000000    -1.238602000000    -2.153686000000     1.007825032230
      Gh(O)          -1.797096000000     0.831159000000    -1.319080000000    15.994914619570
      Gh(H)          -1.656469000000     1.372669000000    -2.125826000000     1.007825032230
      Gh(H)          -2.720728000000     0.976342000000    -1.054127000000     1.007825032230
      Gh(O)           2.455762000000     0.636301000000     0.302092000000    15.994914619570
      Gh(H)           2.886737000000     1.301869000000     0.827337000000     1.007825032230
      Gh(H)           3.173762000000     0.185035000000    -0.192646000000     1.007825032230
      Gh(O)           0.452548000000     1.189970000000     2.197550000000    15.994914619570
      Gh(H)           1.237469000000     0.673737000000     2.428768000000     1.007825032230
      Gh(H)          -0.021114000000     1.508820000000     3.014876000000     1.007825032230

  Running in c1 symmetry.

  Rotational constants: A =      0.07738  B =      0.05928  C =      0.03927 [cm^-1]
  Rotational constants: A =   2319.87197  B =   1777.07518  C =   1177.15320 [MHz]
  Nuclear repulsion =    9.068996745364652

  Charge       = 0
  Multiplicity = 1
  Electrons    = 10
  Nalpha       = 5
  Nbeta        = 5

  ==> Algorithm <==

  SCF Algorithm Type is DF.
  DIIS enabled.
  MOM disabled.
  Fractional occupation disabled.
  Guess Type is SAD.
  Energy threshold   = 1.00e-08
  Density threshold  = 1.00e-08
  Integral threshold = 1.00e-12

  ==> Primary Basis <==

  Basis Set: AUG-CC-PVTZ
    Blend: AUG-CC-PVTZ
    Number of shells: 144
    Number of basis functions: 418
    Number of Cartesian functions: 479
    Spherical Harmonics?: true
    Max angular momentum: 3

   => Loading Basis Set <=

    Name: (AUG-CC-PVTZ AUX)
    Role: JKFIT
    Keyword: DF_BASIS_SCF
    atoms 1                     entry NA         line   498 file /ddmfs1b/softs/psi4conda/share/psi4/basis/def2-universal-jkfit.gbs 
    atoms 2, 5, 8, 11           entry O          line   286 file /ddmfs1b/softs/psi4conda/share/psi4/basis/aug-cc-pvtz-jkfit.gbs 
    atoms 3-4, 6-7, 9-10, 12-13 entry H          line    70 file /ddmfs1b/softs/psi4conda/share/psi4/basis/aug-cc-pvtz-jkfit.gbs 

  ==> Integral Setup <==

  DFHelper Memory: AOs need 1.128 GiB; user supplied 41.910 GiB. 
  Using in-core AOs.

  ==> MemDFJK: Density-Fitted J/K Matrices <==

    J tasked:                   Yes
    K tasked:                   Yes
    wK tasked:                   No
    OpenMP threads:              20
    Memory [MiB]:             42915
    Algorithm:                 Core
    Schwarz Cutoff:           1E-12
    Mask sparsity (%):       9.0623
    Fitting Condition:        1E-10

   => Auxiliary Basis Set <=

  Basis Set: (AUG-CC-PVTZ AUX)
    Blend: AUG-CC-PVTZ-JKFIT + DEF2-UNIVERSAL-JKFIT
    Number of shells: 266
    Number of basis functions: 896
    Number of Cartesian functions: 1101
    Spherical Harmonics?: true
    Max angular momentum: 4

  Minimum eigenvalue in the overlap matrix is 6.7677966681E-05.
  Reciprocal condition number of the overlap matrix is 5.6006028298E-06.
    Using symmetric orthogonalization.

  ==> Pre-Iterations <==

  SCF Guess: Superposition of Atomic Densities via on-the-fly atomic UHF (no occupation information).

   -------------------------
    Irrep   Nso     Nmo    
   -------------------------
     A        418     418 
   -------------------------
    Total     418     418
   -------------------------

  ==> Iterations <==

                           Total Energy        Delta E     RMS |[F,P]|

   @DF-RHF iter SAD:   -75.46183022230791   -7.54618e+01   0.00000e+00 
   @DF-RHF iter   1:   -75.97489043826695   -5.13060e-01   1.11849e-03 DIIS/ADIIS
   @DF-RHF iter   2:   -76.02699099790362   -5.21006e-02   7.70599e-04 DIIS/ADIIS
   @DF-RHF iter   3:   -76.05912829121651   -3.21373e-02   5.25060e-05 DIIS
   @DF-RHF iter   4:   -76.05953441334378   -4.06122e-04   1.28585e-05 DIIS
   @DF-RHF iter   5:   -76.05956111847088   -2.67051e-05   2.94568e-06 DIIS
   @DF-RHF iter   6:   -76.05956334278255   -2.22431e-06   6.50561e-07 DIIS
   @DF-RHF iter   7:   -76.05956346189629   -1.19114e-07   1.18335e-07 DIIS
   @DF-RHF iter   8:   -76.05956346534893   -3.45264e-09   2.00618e-08 DIIS
   @DF-RHF iter   9:   -76.05956346542825   -7.93250e-11   5.08285e-09 DIIS
  Energy and wave function converged.


  ==> Post-Iterations <==

    Orbital Energies [Eh]
    ---------------------

    Doubly Occupied:                                                      

       1A    -20.568722     2A     -1.346037     3A     -0.712925  
       4A     -0.580024     5A     -0.508904  

    Virtual:                                                              

       6A      0.008023     7A      0.016440     8A      0.017262  
       9A      0.018830    10A      0.040770    11A      0.052193  
      12A      0.054377    13A      0.055316    14A      0.057779  
      15A      0.058607    16A      0.061847    17A      0.066721  
      18A      0.067003    19A      0.078934    20A      0.080510  
      21A      0.087669    22A      0.091852    23A      0.094521  
      24A      0.097973    25A      0.108062    26A      0.116558  
      27A      0.135665    28A      0.141409    29A      0.145212  
      30A      0.154943    31A      0.166854    32A      0.171146  
      33A      0.178592    34A      0.184287    35A      0.187193  
      36A      0.201579    37A      0.203252    38A      0.206553  
      39A      0.211111    40A      0.214795    41A      0.218983  
      42A      0.229354    43A      0.252122    44A      0.265255  
      45A      0.269358    46A      0.274388    47A      0.284460  
      48A      0.288879    49A      0.301686    50A      0.312154  
      51A      0.313554    52A      0.320506    53A      0.322776  
      54A      0.331989    55A      0.335806    56A      0.346552  
      57A      0.352709    58A      0.358298    59A      0.370157  
      60A      0.374736    61A      0.378610    62A      0.383697  
      63A      0.393301    64A      0.395206    65A      0.404232  
      66A      0.409585    67A      0.412219    68A      0.414418  
      69A      0.415549    70A      0.423405    71A      0.431779  
      72A      0.436017    73A      0.439355    74A      0.444562  
      75A      0.452081    76A      0.456435    77A      0.465731  
      78A      0.475853    79A      0.480569    80A      0.485060  
      81A      0.487624    82A      0.495212    83A      0.508920  
      84A      0.515644    85A      0.520646    86A      0.525868  
      87A      0.533409    88A      0.535484    89A      0.549190  
      90A      0.570119    91A      0.589536    92A      0.611265  
      93A      0.653766    94A      0.660382    95A      0.676550  
      96A      0.701088    97A      0.710407    98A      0.726308  
      99A      0.727383   100A      0.736341   101A      0.757595  
     102A      0.760433   103A      0.762913   104A      0.783230  
     105A      0.796668   106A      0.805466   107A      0.810354  
     108A      0.817659   109A      0.826073   110A      0.837321  
     111A      0.857508   112A      0.858547   113A      0.865453  
     114A      0.873636   115A      0.876963   116A      0.894605  
     117A      0.900081   118A      0.901257   119A      0.911853  
     120A      0.920548   121A      0.921515   122A      0.935396  
     123A      0.948467   124A      0.952660   125A      0.957590  
     126A      0.966497   127A      0.971336   128A      0.978544  
     129A      0.987134   130A      0.994626   131A      0.999923  
     132A      1.013181   133A      1.019499   134A      1.027481  
     135A      1.034289   136A      1.040911   137A      1.046224  
     138A      1.054772   139A      1.068519   140A      1.072506  
     141A      1.082728   142A      1.094354   143A      1.099220  
     144A      1.109169   145A      1.113577   146A      1.120528  
     147A      1.123924   148A      1.126347   149A      1.133591  
     150A      1.153080   151A      1.159140   152A      1.174881  
     153A      1.180797   154A      1.189683   155A      1.201671  
     156A      1.216292   157A      1.223267   158A      1.232575  
     159A      1.245624   160A      1.253234   161A      1.262682  
     162A      1.267234   163A      1.286614   164A      1.291095  
     165A      1.300620   166A      1.327401   167A      1.335126  
     168A      1.341774   169A      1.350089   170A      1.352881  
     171A      1.363928   172A      1.403213   173A      1.412727  
     174A      1.421591   175A      1.429887   176A      1.444870  
     177A      1.457870   178A      1.490268   179A      1.521449  
     180A      1.536685   181A      1.555989   182A      1.587112  
     183A      1.613412   184A      1.649079   185A      1.650473  
     186A      1.675008   187A      1.686932   188A      1.703064  
     189A      1.732040   190A      1.753979   191A      1.772394  
     192A      1.800712   193A      1.810975   194A      1.819586  
     195A      1.824866   196A      1.849000   197A      1.859238  
     198A      1.866796   199A      1.887542   200A      1.894316  
     201A      1.907359   202A      1.912877   203A      1.941042  
     204A      1.958398   205A      1.990571   206A      2.001235  
     207A      2.043344   208A      2.047609   209A      2.057771  
     210A      2.067150   211A      2.076350   212A      2.117096  
     213A      2.117184   214A      2.169082   215A      2.371906  
     216A      2.384508   217A      2.413003   218A      2.476309  
     219A      2.476890   220A      2.493351   221A      2.524270  
     222A      2.532755   223A      2.540729   224A      2.565036  
     225A      2.573416   226A      2.596119   227A      2.601473  
     228A      2.615519   229A      2.623282   230A      2.632988  
     231A      2.645300   232A      2.659444   233A      2.669008  
     234A      2.686534   235A      2.693074   236A      2.706854  
     237A      2.735418   238A      2.745889   239A      2.770244  
     240A      2.778777   241A      2.813769   242A      2.816540  
     243A      2.834178   244A      2.852522   245A      2.882252  
     246A      2.912655   247A      2.943803   248A      2.945065  
     249A      2.962317   250A      2.991008   251A      3.041227  
     252A      3.055520   253A      3.069966   254A      3.217410  
     255A      3.227175   256A      3.233279   257A      3.257137  
     258A      3.270797   259A      3.309970   260A      3.318081  
     261A      3.327168   262A      3.334441   263A      3.355339  
     264A      3.359827   265A      3.391126   266A      3.413487  
     267A      3.445424   268A      3.502365   269A      3.601733  
     270A      3.651213   271A      3.671181   272A      3.714893  
     273A      3.747154   274A      3.799682   275A      3.817704  
     276A      3.879235   277A      4.088853   278A      4.231484  
     279A      4.279280   280A      4.315789   281A      4.363343  
     282A      4.381895   283A      4.434325   284A      4.447837  
     285A      4.478913   286A      4.507725   287A      4.522025  
     288A      4.526069   289A      4.538285   290A      4.542456  
     291A      4.548861   292A      4.569029   293A      4.588232  
     294A      4.608734   295A      4.647422   296A      4.690843  
     297A      4.711739   298A      4.726286   299A      4.738750  
     300A      4.751180   301A      4.782527   302A      4.816763  
     303A      4.828422   304A      4.837143   305A      4.863687  
     306A      4.950749   307A      4.954763   308A      4.978187  
     309A      4.995480   310A      5.002903   311A      5.031113  
     312A      5.056576   313A      5.101157   314A      5.143481  
     315A      5.164074   316A      5.177529   317A      5.197128  
     318A      5.199597   319A      5.246323   320A      5.320715  
     321A      5.345843   322A      5.460637   323A      5.476624  
     324A      5.481966   325A      5.528671   326A      5.545484  
     327A      5.577178   328A      5.590442   329A      5.641863  
     330A      5.648586   331A      5.701653   332A      5.743459  
     333A      5.769986   334A      5.796905   335A      5.876715  
     336A      5.957816   337A      6.141735   338A      6.210517  
     339A      6.235837   340A      6.270339   341A      6.301902  
     342A      6.344234   343A      6.438418   344A      6.610163  
     345A      6.630038   346A      6.658677   347A      6.743131  
     348A      6.784570   349A      6.879469   350A      6.911872  
     351A      7.015535   352A      7.029686   353A      7.074877  
     354A      7.143135   355A      7.164510   356A      7.225603  
     357A      7.320956   358A      7.351468   359A      7.395876  
     360A      7.421115   361A      7.527925   362A      7.635968  
     363A      7.701086   364A      7.718721   365A      7.744573  
     366A      7.785314   367A      7.831640   368A      7.895670  
     369A      7.928695   370A      7.958400   371A      8.075776  
     372A      8.094936   373A      8.142152   374A      8.203185  
     375A      8.232580   376A      8.245488   377A      8.254121  
     378A      8.262401   379A      8.310773   380A      8.692981  
     381A      8.737110   382A      8.767501   383A      8.787589  
     384A      8.798688   385A      8.817643   386A      8.875423  
     387A      9.839997   388A      9.901062   389A      9.909255  
     390A      9.970034   391A      9.976965   392A      9.994724  
     393A     10.022047   394A     10.049258   395A     10.058986  
     396A     10.201316   397A     10.231135   398A     10.267483  
     399A     11.041592   400A     11.128595   401A     11.214860  
     402A     11.689978   403A     11.716902   404A     11.719165  
     405A     12.006930   406A     12.043143   407A     12.157539  
     408A     13.437289   409A     13.468449   410A     13.607448  
     411A     13.888219   412A     13.927527   413A     13.998712  
     414A     15.775011   415A     64.094866   416A     64.355213  
     417A     64.750347   418A     64.896443  

    Final Occupation by Irrep:
              A 
    DOCC [     5 ]
    NA   [     5 ]
    NB   [     5 ]

  @DF-RHF Final Energy:   -76.05956346542825

   => Energetics <=

    Nuclear Repulsion Energy =              9.0689967453646521
    One-Electron Energy =                -122.8238939233906848
    Two-Electron Energy =                  37.6953337125977725
    Total Energy =                        -76.0595634654282549

Computation Completed


Properties will be evaluated at   0.000000,   0.000000,   0.000000 [a0]

Properties computed using the SCF density matrix


 Multipole Moments:

 ------------------------------------------------------------------------------------
     Multipole            Electronic (a.u.)      Nuclear  (a.u.)        Total (a.u.)
 ------------------------------------------------------------------------------------

 L = 1.  Multiply by 2.5417464519 to convert [e a0] to [Debye]
 Dipole X            :        -18.4742221           18.5074504            0.0332283
 Dipole Y            :         28.4697348          -28.5286076           -0.0588728
 Dipole Z            :         31.2547645          -32.0273089           -0.7725445
 Magnitude           :                                                    0.7754967

 ------------------------------------------------------------------------------------

*** tstop() called on ddmfs1 at Mon Jan 22 16:14:20 2024
Module time:
	user time   =      61.90 seconds =       1.03 minutes
	system time =       4.47 seconds =       0.07 minutes
	total time  =          4 seconds =       0.07 minutes
Total time:
	user time   =      61.90 seconds =       1.03 minutes
	system time =       4.47 seconds =       0.07 minutes
	total time  =          4 seconds =       0.07 minutes

*** tstart() called on ddmfs1
*** at Mon Jan 22 16:14:20 2024


  //>>>>>>>>>>>>>>>>>>>>>>>>>>>>>>>>>>>//
  //               DFMP2               //
  //<<<<<<<<<<<<<<<<<<<<<<<<<<<<<<<<<<<//

   => Loading Basis Set <=

    Name: (AUG-CC-PVTZ AUX)
    Role: RIFIT
    Keyword: DF_BASIS_MP2
    atoms 1                     entry NA         line   610 file /ddmfs1b/softs/psi4conda/share/psi4/basis/def2-qzvpp-ri.gbs 
    atoms 2, 5, 8, 11           entry O          line   264 file /ddmfs1b/softs/psi4conda/share/psi4/basis/aug-cc-pvtz-ri.gbs 
    atoms 3-4, 6-7, 9-10, 12-13 entry H          line    30 file /ddmfs1b/softs/psi4conda/share/psi4/basis/aug-cc-pvtz-ri.gbs 

	 --------------------------------------------------------
	                          DF-MP2                         
	      2nd-Order Density-Fitted Moller-Plesset Theory     
	              RMP2 Wavefunction,  20 Threads             
	                                                         
	        Rob Parrish, Justin Turney, Andy Simmonett,      
	           Ed Hohenstein, and C. David Sherrill          
	 --------------------------------------------------------

   => Auxiliary Basis Set <=

  Basis Set: (AUG-CC-PVTZ AUX)
    Blend: AUG-CC-PVTZ-RI + DEF2-QZVPP-RI
    Number of shells: 266
    Number of basis functions: 958
    Number of Cartesian functions: 1198
    Spherical Harmonics?: true
    Max angular momentum: 4

	 --------------------------------------------------------
	                 NBF =   418, NAUX =   958
	 --------------------------------------------------------
	   CLASS    FOCC     OCC    AOCC    AVIR     VIR    FVIR
	   PAIRS       0       5       5     413     413       0
	 --------------------------------------------------------

	-----------------------------------------------------------
	 ==================> DF-MP2 Energies <==================== 
	-----------------------------------------------------------
	 Reference Energy          =     -76.0595634654282549 [Eh]
	 Singles Energy            =      -0.0000000000000000 [Eh]
	 Same-Spin Energy          =      -0.0686018820829949 [Eh]
	 Opposite-Spin Energy      =      -0.2163245651723312 [Eh]
	 Correlation Energy        =      -0.2849264472553261 [Eh]
	 Total Energy              =     -76.3444899126835850 [Eh]
	-----------------------------------------------------------
	 ================> DF-SCS-MP2 Energies <================== 
	-----------------------------------------------------------
	 SCS Same-Spin Scale       =       0.3333333333333333 [-]
	 SCS Opposite-Spin Scale   =       1.2000000000000000 [-]
	 SCS Same-Spin Energy      =      -0.0228672940276650 [Eh]
	 SCS Opposite-Spin Energy  =      -0.2595894782067975 [Eh]
	 SCS Correlation Energy    =      -0.2824567722344624 [Eh]
	 SCS Total Energy          =     -76.3420202376627230 [Eh]
	-----------------------------------------------------------


*** tstop() called on ddmfs1 at Mon Jan 22 16:14:26 2024
Module time:
	user time   =      21.45 seconds =       0.36 minutes
	system time =       1.51 seconds =       0.03 minutes
	total time  =          6 seconds =       0.10 minutes
Total time:
	user time   =      83.37 seconds =       1.39 minutes
	system time =       5.98 seconds =       0.10 minutes
	total time  =         10 seconds =       0.17 minutes

    Psi4 stopped on: Monday, 22 January 2024 04:14PM
    Psi4 wall time for execution: 0:00:09.71

*** Psi4 exiting successfully. Buy a developer a beer!
