
    -----------------------------------------------------------------------
          Psi4: An Open-Source Ab Initio Electronic Structure Package
                               Psi4 1.8.2 release

                         Git: Rev {} zzzzzzz 


    D. G. A. Smith, L. A. Burns, A. C. Simmonett, R. M. Parrish,
    M. C. Schieber, R. Galvelis, P. Kraus, H. Kruse, R. Di Remigio,
    A. Alenaizan, A. M. James, S. Lehtola, J. P. Misiewicz, M. Scheurer,
    R. A. Shaw, J. B. Schriber, Y. Xie, Z. L. Glick, D. A. Sirianni,
    J. S. O'Brien, J. M. Waldrop, A. Kumar, E. G. Hohenstein,
    B. P. Pritchard, B. R. Brooks, H. F. Schaefer III, A. Yu. Sokolov,
    K. Patkowski, A. E. DePrince III, U. Bozkaya, R. A. King,
    F. A. Evangelista, J. M. Turney, T. D. Crawford, C. D. Sherrill,
    J. Chem. Phys. 152(18) 184108 (2020). https://doi.org/10.1063/5.0006002

                            Additional Code Authors
    E. T. Seidl, C. L. Janssen, E. F. Valeev, M. L. Leininger,
    J. F. Gonthier, R. M. Richard, H. R. McAlexander, M. Saitow, X. Wang,
    P. Verma, M. H. Lechner, A. Jiang, S. Behnle, A. G. Heide,
    M. F. Herbst, and D. L. Poole

             Previous Authors, Complete List of Code Contributors,
                       and Citations for Specific Modules
    https://github.com/psi4/psi4/blob/master/codemeta.json
    https://github.com/psi4/psi4/graphs/contributors
    http://psicode.org/psi4manual/master/introduction.html#citing-psifour

    -----------------------------------------------------------------------


    Psi4 started on: Monday, 22 January 2024 02:17PM

    Process ID: 65945
    Host:       ddmfs1
    PSIDATADIR: /ddmfs1b/softs/psi4conda/share/psi4
    Memory:     500.0 MiB
    Threads:    20
    
  ==> Input File <==

--------------------------------------------------------------------------
MEMORY 60 GB

molecule dimer {
0 1
Gh(Na)     0.000000     0.000000     0.000000
Gh(O)      1.371989     0.328574     1.684326
Gh(H)      0.873769     0.178210     2.485652
Gh(H)      1.644220     1.255675     1.693557
Gh(O)      1.274054     1.156590    -1.522421
Gh(H)      2.143789     0.686938    -1.689336
Gh(H)      1.589642     1.858926    -0.865452
Gh(O)     -0.454922    -1.892188     1.128252
Gh(H)     -0.218035    -2.740225     0.777085
Gh(H)     -1.339420    -1.998303     1.395279
Gh(O)     -2.133645    -0.099464    -1.426698
Gh(H)     -2.740263    -0.005265    -0.688170
Gh(H)     -2.763796     0.016320    -2.131063
O         -1.451092     1.948369     0.243257
H         -0.996390     2.756909     0.501988
H         -2.021890     2.166962    -0.562477

units ang
no_reorient
no_com
symmetry c1
}

set {
basis        aug-cc-pVTZ
scf_type     df
}

energy("mp2")
--------------------------------------------------------------------------

  Memory set to  55.879 GiB by Python driver.

Scratch directory: /ddmfs1a/scratch/
   => Libint2 <=

    Primary   basis highest AM E, G, H:  5, 4, 3
    Auxiliary basis highest AM E, G, H:  6, 5, 4
    Onebody   basis highest AM E, G, H:  6, 5, 4
    Solid Harmonics ordering:            gaussian

*** tstart() called on ddmfs1
*** at Mon Jan 22 14:17:16 2024

   => Loading Basis Set <=

    Name: AUG-CC-PVTZ
    Role: ORBITAL
    Keyword: BASIS
    atoms 1                            entry NA         line   469 file /ddmfs1b/softs/psi4conda/share/psi4/basis/aug-cc-pvtz.gbs 
    atoms 2, 5, 8, 11, 14              entry O          line   331 file /ddmfs1b/softs/psi4conda/share/psi4/basis/aug-cc-pvtz.gbs 
    atoms 3-4, 6-7, 9-10, 12-13, 15-16 entry H          line    40 file /ddmfs1b/softs/psi4conda/share/psi4/basis/aug-cc-pvtz.gbs 


         ---------------------------------------------------------
                                   SCF
               by Justin Turney, Rob Parrish, Andy Simmonett
                          and Daniel G. A. Smith
                              RHF Reference
                       20 Threads,  57220 MiB Core
         ---------------------------------------------------------

  ==> Geometry <==

    Molecular point group: c1
    Full point group: C1

    Geometry (in Angstrom), charge = 0, multiplicity = 1:

       Center              X                  Y                   Z               Mass       
    ------------   -----------------  -----------------  -----------------  -----------------
      Gh(NA)          0.000000000000     0.000000000000     0.000000000000    22.989769282000
      Gh(O)           1.371989000000     0.328574000000     1.684326000000    15.994914619570
      Gh(H)           0.873769000000     0.178210000000     2.485652000000     1.007825032230
      Gh(H)           1.644220000000     1.255675000000     1.693557000000     1.007825032230
      Gh(O)           1.274054000000     1.156590000000    -1.522421000000    15.994914619570
      Gh(H)           2.143789000000     0.686938000000    -1.689336000000     1.007825032230
      Gh(H)           1.589642000000     1.858926000000    -0.865452000000     1.007825032230
      Gh(O)          -0.454922000000    -1.892188000000     1.128252000000    15.994914619570
      Gh(H)          -0.218035000000    -2.740225000000     0.777085000000     1.007825032230
      Gh(H)          -1.339420000000    -1.998303000000     1.395279000000     1.007825032230
      Gh(O)          -2.133645000000    -0.099464000000    -1.426698000000    15.994914619570
      Gh(H)          -2.740263000000    -0.005265000000    -0.688170000000     1.007825032230
      Gh(H)          -2.763796000000     0.016320000000    -2.131063000000     1.007825032230
         O           -1.451092000000     1.948369000000     0.243257000000    15.994914619570
         H           -0.996390000000     2.756909000000     0.501988000000     1.007825032230
         H           -2.021890000000     2.166962000000    -0.562477000000     1.007825032230

  Running in c1 symmetry.

  Rotational constants: A =      0.05855  B =      0.04994  C =      0.03936 [cm^-1]
  Rotational constants: A =   1755.36341  B =   1497.09052  C =   1179.99275 [MHz]
  Nuclear repulsion =    8.914395873265777

  Charge       = 0
  Multiplicity = 1
  Electrons    = 10
  Nalpha       = 5
  Nbeta        = 5

  ==> Algorithm <==

  SCF Algorithm Type is DF.
  DIIS enabled.
  MOM disabled.
  Fractional occupation disabled.
  Guess Type is SAD.
  Energy threshold   = 1.00e-08
  Density threshold  = 1.00e-08
  Integral threshold = 1.00e-12

  ==> Primary Basis <==

  Basis Set: AUG-CC-PVTZ
    Blend: AUG-CC-PVTZ
    Number of shells: 176
    Number of basis functions: 510
    Number of Cartesian functions: 584
    Spherical Harmonics?: true
    Max angular momentum: 3

   => Loading Basis Set <=

    Name: (AUG-CC-PVTZ AUX)
    Role: JKFIT
    Keyword: DF_BASIS_SCF
    atoms 1                            entry NA         line   498 file /ddmfs1b/softs/psi4conda/share/psi4/basis/def2-universal-jkfit.gbs 
    atoms 2, 5, 8, 11, 14              entry O          line   286 file /ddmfs1b/softs/psi4conda/share/psi4/basis/aug-cc-pvtz-jkfit.gbs 
    atoms 3-4, 6-7, 9-10, 12-13, 15-16 entry H          line    70 file /ddmfs1b/softs/psi4conda/share/psi4/basis/aug-cc-pvtz-jkfit.gbs 

  ==> Integral Setup <==

  DFHelper Memory: AOs need 2.055 GiB; user supplied 41.910 GiB. 
  Using in-core AOs.

  ==> MemDFJK: Density-Fitted J/K Matrices <==

    J tasked:                   Yes
    K tasked:                   Yes
    wK tasked:                   No
    OpenMP threads:              20
    Memory [MiB]:             42915
    Algorithm:                 Core
    Schwarz Cutoff:           1E-12
    Mask sparsity (%):       7.5932
    Fitting Condition:        1E-10

   => Auxiliary Basis Set <=

  Basis Set: (AUG-CC-PVTZ AUX)
    Blend: AUG-CC-PVTZ-JKFIT + DEF2-UNIVERSAL-JKFIT
    Number of shells: 324
    Number of basis functions: 1092
    Number of Cartesian functions: 1342
    Spherical Harmonics?: true
    Max angular momentum: 4

  Minimum eigenvalue in the overlap matrix is 1.9894215570E-05.
  Reciprocal condition number of the overlap matrix is 1.3840759330E-06.
    Using symmetric orthogonalization.

  ==> Pre-Iterations <==

  SCF Guess: Superposition of Atomic Densities via on-the-fly atomic UHF (no occupation information).

   -------------------------
    Irrep   Nso     Nmo    
   -------------------------
     A        510     510 
   -------------------------
    Total     510     510
   -------------------------

  ==> Iterations <==

                           Total Energy        Delta E     RMS |[F,P]|

   @DF-RHF iter SAD:   -75.43972453934568   -7.54397e+01   0.00000e+00 
   @DF-RHF iter   1:   -75.97036728954657   -5.30643e-01   9.15715e-04 ADIIS/DIIS
   @DF-RHF iter   2:   -76.02201988563382   -5.16526e-02   6.42475e-04 ADIIS/DIIS
   @DF-RHF iter   3:   -76.05553761201811   -3.35177e-02   4.39651e-05 DIIS
   @DF-RHF iter   4:   -76.05597652596448   -4.38914e-04   1.12343e-05 DIIS
   @DF-RHF iter   5:   -76.05600824420895   -3.17182e-05   2.63105e-06 DIIS
   @DF-RHF iter   6:   -76.05601100025946   -2.75605e-06   5.89306e-07 DIIS
   @DF-RHF iter   7:   -76.05601115059403   -1.50335e-07   1.07509e-07 DIIS
   @DF-RHF iter   8:   -76.05601115493504   -4.34100e-09   1.88154e-08 DIIS
   @DF-RHF iter   9:   -76.05601115504578   -1.10745e-10   5.02636e-09 DIIS
  Energy and wave function converged.


  ==> Post-Iterations <==

    Orbital Energies [Eh]
    ---------------------

    Doubly Occupied:                                                      

       1A    -20.570648     2A     -1.337116     3A     -0.706972  
       4A     -0.573343     5A     -0.507065  

    Virtual:                                                              

       6A      0.007707     7A      0.016305     8A      0.016747  
       9A      0.018263    10A      0.039341    11A      0.051075  
      12A      0.052531    13A      0.053611    14A      0.054909  
      15A      0.058134    16A      0.059566    17A      0.062152  
      18A      0.064370    19A      0.079123    20A      0.083422  
      21A      0.084203    22A      0.088181    23A      0.090007  
      24A      0.092835    25A      0.097795    26A      0.105457  
      27A      0.111294    28A      0.123358    29A      0.134667  
      30A      0.143259    31A      0.145096    32A      0.156903  
      33A      0.165947    34A      0.174249    35A      0.176595  
      36A      0.178914    37A      0.186089    38A      0.194555  
      39A      0.203507    40A      0.206216    41A      0.209996  
      42A      0.213632    43A      0.216734    44A      0.220683  
      45A      0.225005    46A      0.229047    47A      0.247337  
      48A      0.256682    49A      0.264898    50A      0.267834  
      51A      0.274383    52A      0.280527    53A      0.289650  
      54A      0.292969    55A      0.309522    56A      0.312922  
      57A      0.322713    58A      0.336354    59A      0.343372  
      60A      0.349743    61A      0.351782    62A      0.358149  
      63A      0.358559    64A      0.361275    65A      0.367096  
      66A      0.375358    67A      0.387172    68A      0.392515  
      69A      0.400234    70A      0.404774    71A      0.411951  
      72A      0.417623    73A      0.420696    74A      0.427336  
      75A      0.434261    76A      0.435436    77A      0.441754  
      78A      0.445989    79A      0.451744    80A      0.453721  
      81A      0.459965    82A      0.465626    83A      0.468894  
      84A      0.472289    85A      0.476668    86A      0.479001  
      87A      0.481125    88A      0.490396    89A      0.493231  
      90A      0.496264    91A      0.504984    92A      0.512045  
      93A      0.516822    94A      0.519818    95A      0.534583  
      96A      0.540648    97A      0.550831    98A      0.560101  
      99A      0.572202   100A      0.577932   101A      0.590292  
     102A      0.599539   103A      0.606993   104A      0.612619  
     105A      0.630893   106A      0.658620   107A      0.677565  
     108A      0.692246   109A      0.699840   110A      0.717805  
     111A      0.732138   112A      0.750672   113A      0.758685  
     114A      0.765609   115A      0.775238   116A      0.785690  
     117A      0.798322   118A      0.805706   119A      0.806634  
     120A      0.814905   121A      0.818362   122A      0.825373  
     123A      0.835124   124A      0.846878   125A      0.849926  
     126A      0.859980   127A      0.861453   128A      0.876032  
     129A      0.885657   130A      0.886801   131A      0.890947  
     132A      0.898488   133A      0.912153   134A      0.914341  
     135A      0.925078   136A      0.933323   137A      0.941982  
     138A      0.952922   139A      0.954236   140A      0.960413  
     141A      0.975279   142A      0.979234   143A      0.982357  
     144A      0.994382   145A      1.001408   146A      1.004860  
     147A      1.008914   148A      1.017807   149A      1.024588  
     150A      1.032712   151A      1.035897   152A      1.043787  
     153A      1.045950   154A      1.052687   155A      1.055003  
     156A      1.061874   157A      1.067355   158A      1.075945  
     159A      1.079483   160A      1.091839   161A      1.098646  
     162A      1.107109   163A      1.114418   164A      1.123990  
     165A      1.125932   166A      1.133600   167A      1.146986  
     168A      1.151541   169A      1.161909   170A      1.168897  
     171A      1.176374   172A      1.183980   173A      1.191575  
     174A      1.194173   175A      1.200651   176A      1.218597  
     177A      1.229940   178A      1.249348   179A      1.253414  
     180A      1.260613   181A      1.265564   182A      1.272248  
     183A      1.280367   184A      1.294360   185A      1.302581  
     186A      1.310242   187A      1.316497   188A      1.331534  
     189A      1.350116   190A      1.358519   191A      1.366158  
     192A      1.379070   193A      1.379834   194A      1.388563  
     195A      1.407151   196A      1.427893   197A      1.431079  
     198A      1.435048   199A      1.440974   200A      1.453865  
     201A      1.480470   202A      1.485844   203A      1.499028  
     204A      1.506038   205A      1.511566   206A      1.517769  
     207A      1.519953   208A      1.542180   209A      1.554323  
     210A      1.557762   211A      1.582803   212A      1.599679  
     213A      1.603118   214A      1.615050   215A      1.636726  
     216A      1.643861   217A      1.660386   218A      1.669306  
     219A      1.682196   220A      1.706181   221A      1.727965  
     222A      1.746542   223A      1.767475   224A      1.779138  
     225A      1.807841   226A      1.826238   227A      1.841390  
     228A      1.848365   229A      1.850216   230A      1.862741  
     231A      1.867991   232A      1.880136   233A      1.886924  
     234A      1.895770   235A      1.900644   236A      1.918909  
     237A      1.944294   238A      1.955601   239A      1.972891  
     240A      1.980362   241A      2.000412   242A      2.015685  
     243A      2.031942   244A      2.040990   245A      2.059457  
     246A      2.079300   247A      2.086719   248A      2.099199  
     249A      2.117617   250A      2.134024   251A      2.154990  
     252A      2.165403   253A      2.186808   254A      2.197936  
     255A      2.246066   256A      2.390217   257A      2.429035  
     258A      2.484697   259A      2.489839   260A      2.505211  
     261A      2.521453   262A      2.544324   263A      2.547504  
     264A      2.568775   265A      2.576343   266A      2.594474  
     267A      2.610575   268A      2.628576   269A      2.637882  
     270A      2.639445   271A      2.657111   272A      2.667218  
     273A      2.681154   274A      2.694821   275A      2.696497  
     276A      2.717227   277A      2.721251   278A      2.731582  
     279A      2.750656   280A      2.764493   281A      2.773213  
     282A      2.795818   283A      2.799129   284A      2.815900  
     285A      2.835436   286A      2.842442   287A      2.851576  
     288A      2.869742   289A      2.883258   290A      2.911595  
     291A      2.926050   292A      2.927281   293A      2.942646  
     294A      2.982015   295A      2.990367   296A      3.025480  
     297A      3.043253   298A      3.059004   299A      3.107176  
     300A      3.148299   301A      3.166966   302A      3.188127  
     303A      3.204831   304A      3.227425   305A      3.257097  
     306A      3.269318   307A      3.286973   308A      3.296684  
     309A      3.305322   310A      3.309333   311A      3.327395  
     312A      3.336892   313A      3.364543   314A      3.371428  
     315A      3.393651   316A      3.399803   317A      3.415824  
     318A      3.426852   319A      3.431306   320A      3.438582  
     321A      3.450428   322A      3.494424   323A      3.532916  
     324A      3.650969   325A      3.665777   326A      3.678533  
     327A      3.720363   328A      3.751947   329A      3.774008  
     330A      3.780530   331A      3.808956   332A      3.842324  
     333A      3.989707   334A      4.149391   335A      4.268376  
     336A      4.314065   337A      4.383055   338A      4.425789  
     339A      4.438766   340A      4.451150   341A      4.479647  
     342A      4.485354   343A      4.494388   344A      4.508663  
     345A      4.523700   346A      4.562704   347A      4.569498  
     348A      4.577168   349A      4.593811   350A      4.606314  
     351A      4.616566   352A      4.634391   353A      4.646932  
     354A      4.670914   355A      4.693036   356A      4.704606  
     357A      4.736380   358A      4.745964   359A      4.758380  
     360A      4.773893   361A      4.792145   362A      4.797421  
     363A      4.822865   364A      4.827897   365A      4.849609  
     366A      4.868751   367A      4.889347   368A      4.905106  
     369A      4.980633   370A      5.022317   371A      5.033349  
     372A      5.042862   373A      5.061256   374A      5.078915  
     375A      5.090742   376A      5.097983   377A      5.101772  
     378A      5.133660   379A      5.153090   380A      5.161981  
     381A      5.210712   382A      5.213439   383A      5.263405  
     384A      5.270488   385A      5.301325   386A      5.316576  
     387A      5.359938   388A      5.385116   389A      5.454008  
     390A      5.502793   391A      5.532553   392A      5.578718  
     393A      5.616208   394A      5.650178   395A      5.664416  
     396A      5.675359   397A      5.711370   398A      5.739205  
     399A      5.755260   400A      5.790693   401A      5.796532  
     402A      5.829945   403A      5.863446   404A      5.921000  
     405A      5.964245   406A      6.047977   407A      6.156265  
     408A      6.205963   409A      6.244550   410A      6.279883  
     411A      6.303756   412A      6.329682   413A      6.375539  
     414A      6.407761   415A      6.424958   416A      6.469996  
     417A      6.564017   418A      6.692135   419A      6.749892  
     420A      6.789552   421A      6.810319   422A      6.825306  
     423A      6.884741   424A      6.933236   425A      7.100737  
     426A      7.117496   427A      7.135695   428A      7.205964  
     429A      7.245161   430A      7.301381   431A      7.346605  
     432A      7.414502   433A      7.452663   434A      7.466009  
     435A      7.537726   436A      7.570589   437A      7.691982  
     438A      7.727013   439A      7.757472   440A      7.796770  
     441A      7.809471   442A      7.881687   443A      7.895505  
     444A      7.908409   445A      7.944572   446A      7.991348  
     447A      8.041331   448A      8.065401   449A      8.084822  
     450A      8.123428   451A      8.155169   452A      8.170254  
     453A      8.223740   454A      8.258553   455A      8.274787  
     456A      8.279689   457A      8.347071   458A      8.376553  
     459A      8.389475   460A      8.534879   461A      8.711600  
     462A      8.733736   463A      8.790891   464A      8.865860  
     465A      8.881434   466A      8.957745   467A      8.986170  
     468A      9.015623   469A      9.869989   470A      9.953296  
     471A      9.979580   472A      9.990447   473A     10.013538  
     474A     10.032934   475A     10.040678   476A     10.043979  
     477A     10.050592   478A     10.079377   479A     10.091157  
     480A     10.117590   481A     10.245815   482A     10.262122  
     483A     10.281661   484A     10.299235   485A     11.002519  
     486A     11.234757   487A     11.359031   488A     11.406844  
     489A     11.685750   490A     11.905902   491A     11.949472  
     492A     11.962293   493A     11.990206   494A     12.279645  
     495A     12.347022   496A     12.550253   497A     13.452947  
     498A     13.643623   499A     13.751519   500A     13.827498  
     501A     13.904049   502A     13.940347   503A     13.966552  
     504A     14.019737   505A     15.572050   506A     63.325391  
     507A     64.960311   508A     65.770844   509A     66.227528  
     510A     67.044652  

    Final Occupation by Irrep:
              A 
    DOCC [     5 ]
    NA   [     5 ]
    NB   [     5 ]

  @DF-RHF Final Energy:   -76.05601115504578

   => Energetics <=

    Nuclear Repulsion Energy =              8.9143958732657769
    One-Electron Energy =                -122.5505211732713633
    Two-Electron Energy =                  37.5801141449598006
    Total Energy =                        -76.0560111550457805

Computation Completed


Properties will be evaluated at   0.000000,   0.000000,   0.000000 [a0]

Properties computed using the SCF density matrix


 Multipole Moments:

 ------------------------------------------------------------------------------------
     Multipole            Electronic (a.u.)      Nuclear  (a.u.)        Total (a.u.)
 ------------------------------------------------------------------------------------

 L = 1.  Multiply by 2.5417464519 to convert [e a0] to [Debye]
 Dipole X            :         27.5693430          -27.6410543           -0.0717112
 Dipole Y            :        -38.0808386           38.7598381            0.6789995
 Dipole Z            :         -3.9181025            3.5632052           -0.3548973
 Magnitude           :                                                    0.7695030

 ------------------------------------------------------------------------------------

*** tstop() called on ddmfs1 at Mon Jan 22 14:17:22 2024
Module time:
	user time   =      93.70 seconds =       1.56 minutes
	system time =       5.90 seconds =       0.10 minutes
	total time  =          6 seconds =       0.10 minutes
Total time:
	user time   =      93.70 seconds =       1.56 minutes
	system time =       5.90 seconds =       0.10 minutes
	total time  =          6 seconds =       0.10 minutes

*** tstart() called on ddmfs1
*** at Mon Jan 22 14:17:22 2024


  //>>>>>>>>>>>>>>>>>>>>>>>>>>>>>>>>>>>//
  //               DFMP2               //
  //<<<<<<<<<<<<<<<<<<<<<<<<<<<<<<<<<<<//

   => Loading Basis Set <=

    Name: (AUG-CC-PVTZ AUX)
    Role: RIFIT
    Keyword: DF_BASIS_MP2
    atoms 1                            entry NA         line   610 file /ddmfs1b/softs/psi4conda/share/psi4/basis/def2-qzvpp-ri.gbs 
    atoms 2, 5, 8, 11, 14              entry O          line   264 file /ddmfs1b/softs/psi4conda/share/psi4/basis/aug-cc-pvtz-ri.gbs 
    atoms 3-4, 6-7, 9-10, 12-13, 15-16 entry H          line    30 file /ddmfs1b/softs/psi4conda/share/psi4/basis/aug-cc-pvtz-ri.gbs 

	 --------------------------------------------------------
	                          DF-MP2                         
	      2nd-Order Density-Fitted Moller-Plesset Theory     
	              RMP2 Wavefunction,  20 Threads             
	                                                         
	        Rob Parrish, Justin Turney, Andy Simmonett,      
	           Ed Hohenstein, and C. David Sherrill          
	 --------------------------------------------------------

   => Auxiliary Basis Set <=

  Basis Set: (AUG-CC-PVTZ AUX)
    Blend: AUG-CC-PVTZ-RI + DEF2-QZVPP-RI
    Number of shells: 322
    Number of basis functions: 1156
    Number of Cartesian functions: 1444
    Spherical Harmonics?: true
    Max angular momentum: 4

	 --------------------------------------------------------
	                 NBF =   510, NAUX =  1156
	 --------------------------------------------------------
	   CLASS    FOCC     OCC    AOCC    AVIR     VIR    FVIR
	   PAIRS       0       5       5     505     505       0
	 --------------------------------------------------------

	-----------------------------------------------------------
	 ==================> DF-MP2 Energies <==================== 
	-----------------------------------------------------------
	 Reference Energy          =     -76.0560111550457805 [Eh]
	 Singles Energy            =      -0.0000000000000000 [Eh]
	 Same-Spin Energy          =      -0.0688883923012044 [Eh]
	 Opposite-Spin Energy      =      -0.2174382351058907 [Eh]
	 Correlation Energy        =      -0.2863266274070951 [Eh]
	 Total Energy              =     -76.3423377824528728 [Eh]
	-----------------------------------------------------------
	 ================> DF-SCS-MP2 Energies <================== 
	-----------------------------------------------------------
	 SCS Same-Spin Scale       =       0.3333333333333333 [-]
	 SCS Opposite-Spin Scale   =       1.2000000000000000 [-]
	 SCS Same-Spin Energy      =      -0.0229627974337348 [Eh]
	 SCS Opposite-Spin Energy  =      -0.2609258821270688 [Eh]
	 SCS Correlation Energy    =      -0.2838886795608036 [Eh]
	 SCS Total Energy          =     -76.3398998346065838 [Eh]
	-----------------------------------------------------------


*** tstop() called on ddmfs1 at Mon Jan 22 14:17:29 2024
Module time:
	user time   =      28.62 seconds =       0.48 minutes
	system time =       1.95 seconds =       0.03 minutes
	total time  =          7 seconds =       0.12 minutes
Total time:
	user time   =     122.34 seconds =       2.04 minutes
	system time =       7.85 seconds =       0.13 minutes
	total time  =         13 seconds =       0.22 minutes

    Psi4 stopped on: Monday, 22 January 2024 02:17PM
    Psi4 wall time for execution: 0:00:13.39

*** Psi4 exiting successfully. Buy a developer a beer!
