
    -----------------------------------------------------------------------
          Psi4: An Open-Source Ab Initio Electronic Structure Package
                               Psi4 1.8.2 release

                         Git: Rev {} zzzzzzz 


    D. G. A. Smith, L. A. Burns, A. C. Simmonett, R. M. Parrish,
    M. C. Schieber, R. Galvelis, P. Kraus, H. Kruse, R. Di Remigio,
    A. Alenaizan, A. M. James, S. Lehtola, J. P. Misiewicz, M. Scheurer,
    R. A. Shaw, J. B. Schriber, Y. Xie, Z. L. Glick, D. A. Sirianni,
    J. S. O'Brien, J. M. Waldrop, A. Kumar, E. G. Hohenstein,
    B. P. Pritchard, B. R. Brooks, H. F. Schaefer III, A. Yu. Sokolov,
    K. Patkowski, A. E. DePrince III, U. Bozkaya, R. A. King,
    F. A. Evangelista, J. M. Turney, T. D. Crawford, C. D. Sherrill,
    J. Chem. Phys. 152(18) 184108 (2020). https://doi.org/10.1063/5.0006002

                            Additional Code Authors
    E. T. Seidl, C. L. Janssen, E. F. Valeev, M. L. Leininger,
    J. F. Gonthier, R. M. Richard, H. R. McAlexander, M. Saitow, X. Wang,
    P. Verma, M. H. Lechner, A. Jiang, S. Behnle, A. G. Heide,
    M. F. Herbst, and D. L. Poole

             Previous Authors, Complete List of Code Contributors,
                       and Citations for Specific Modules
    https://github.com/psi4/psi4/blob/master/codemeta.json
    https://github.com/psi4/psi4/graphs/contributors
    http://psicode.org/psi4manual/master/introduction.html#citing-psifour

    -----------------------------------------------------------------------


    Psi4 started on: Monday, 22 January 2024 03:10PM

    Process ID: 70917
    Host:       ddmfs1
    PSIDATADIR: /ddmfs1b/softs/psi4conda/share/psi4
    Memory:     500.0 MiB
    Threads:    20
    
  ==> Input File <==

--------------------------------------------------------------------------
MEMORY 60 GB

molecule dimer {
0 1
Gh(Na)     0.000000     0.000000     0.000000
O         -1.365784     1.888773     0.128336
H         -1.127056     2.523638    -0.548341
H         -2.084338     1.268663    -0.087383
Gh(O)      1.933277     1.190155     1.145330
Gh(H)      2.694356     1.300756     0.519806
Gh(H)      1.814910     2.060976     1.520495
Gh(O)     -0.418772    -0.363065    -2.238699
Gh(H)     -1.093240     0.117831    -2.640346
Gh(H)      0.385868    -0.155367    -2.718085
Gh(O)     -1.360209    -0.721731     1.772667
Gh(H)     -0.830785    -1.124783     2.509665
Gh(H)     -1.649374     0.155797     2.059176
Gh(O)      1.649637    -1.718358    -0.019721
Gh(H)      1.060619    -2.517490    -0.072430
Gh(H)      2.004692    -1.689554    -0.966746

units ang
no_reorient
no_com
symmetry c1
}

set {
basis        aug-cc-pVTZ
scf_type     df
}

energy("mp2")
--------------------------------------------------------------------------

  Memory set to  55.879 GiB by Python driver.

Scratch directory: /ddmfs1a/scratch/
   => Libint2 <=

    Primary   basis highest AM E, G, H:  5, 4, 3
    Auxiliary basis highest AM E, G, H:  6, 5, 4
    Onebody   basis highest AM E, G, H:  6, 5, 4
    Solid Harmonics ordering:            gaussian

*** tstart() called on ddmfs1
*** at Mon Jan 22 15:10:40 2024

   => Loading Basis Set <=

    Name: AUG-CC-PVTZ
    Role: ORBITAL
    Keyword: BASIS
    atoms 1                            entry NA         line   469 file /ddmfs1b/softs/psi4conda/share/psi4/basis/aug-cc-pvtz.gbs 
    atoms 2, 5, 8, 11, 14              entry O          line   331 file /ddmfs1b/softs/psi4conda/share/psi4/basis/aug-cc-pvtz.gbs 
    atoms 3-4, 6-7, 9-10, 12-13, 15-16 entry H          line    40 file /ddmfs1b/softs/psi4conda/share/psi4/basis/aug-cc-pvtz.gbs 


         ---------------------------------------------------------
                                   SCF
               by Justin Turney, Rob Parrish, Andy Simmonett
                          and Daniel G. A. Smith
                              RHF Reference
                       20 Threads,  57220 MiB Core
         ---------------------------------------------------------

  ==> Geometry <==

    Molecular point group: c1
    Full point group: C1

    Geometry (in Angstrom), charge = 0, multiplicity = 1:

       Center              X                  Y                   Z               Mass       
    ------------   -----------------  -----------------  -----------------  -----------------
      Gh(NA)          0.000000000000     0.000000000000     0.000000000000    22.989769282000
         O           -1.365784000000     1.888773000000     0.128336000000    15.994914619570
         H           -1.127056000000     2.523638000000    -0.548341000000     1.007825032230
         H           -2.084338000000     1.268663000000    -0.087383000000     1.007825032230
      Gh(O)           1.933277000000     1.190155000000     1.145330000000    15.994914619570
      Gh(H)           2.694356000000     1.300756000000     0.519806000000     1.007825032230
      Gh(H)           1.814910000000     2.060976000000     1.520495000000     1.007825032230
      Gh(O)          -0.418772000000    -0.363065000000    -2.238699000000    15.994914619570
      Gh(H)          -1.093240000000     0.117831000000    -2.640346000000     1.007825032230
      Gh(H)           0.385868000000    -0.155367000000    -2.718085000000     1.007825032230
      Gh(O)          -1.360209000000    -0.721731000000     1.772667000000    15.994914619570
      Gh(H)          -0.830785000000    -1.124783000000     2.509665000000     1.007825032230
      Gh(H)          -1.649374000000     0.155797000000     2.059176000000     1.007825032230
      Gh(O)           1.649637000000    -1.718358000000    -0.019721000000    15.994914619570
      Gh(H)           1.060619000000    -2.517490000000    -0.072430000000     1.007825032230
      Gh(H)           2.004692000000    -1.689554000000    -0.966746000000     1.007825032230

  Running in c1 symmetry.

  Rotational constants: A =      0.05297  B =      0.04877  C =      0.04162 [cm^-1]
  Rotational constants: A =   1588.00938  B =   1462.22522  C =   1247.70315 [MHz]
  Nuclear repulsion =    9.089791525697606

  Charge       = 0
  Multiplicity = 1
  Electrons    = 10
  Nalpha       = 5
  Nbeta        = 5

  ==> Algorithm <==

  SCF Algorithm Type is DF.
  DIIS enabled.
  MOM disabled.
  Fractional occupation disabled.
  Guess Type is SAD.
  Energy threshold   = 1.00e-08
  Density threshold  = 1.00e-08
  Integral threshold = 1.00e-12

  ==> Primary Basis <==

  Basis Set: AUG-CC-PVTZ
    Blend: AUG-CC-PVTZ
    Number of shells: 176
    Number of basis functions: 510
    Number of Cartesian functions: 584
    Spherical Harmonics?: true
    Max angular momentum: 3

   => Loading Basis Set <=

    Name: (AUG-CC-PVTZ AUX)
    Role: JKFIT
    Keyword: DF_BASIS_SCF
    atoms 1                            entry NA         line   498 file /ddmfs1b/softs/psi4conda/share/psi4/basis/def2-universal-jkfit.gbs 
    atoms 2, 5, 8, 11, 14              entry O          line   286 file /ddmfs1b/softs/psi4conda/share/psi4/basis/aug-cc-pvtz-jkfit.gbs 
    atoms 3-4, 6-7, 9-10, 12-13, 15-16 entry H          line    70 file /ddmfs1b/softs/psi4conda/share/psi4/basis/aug-cc-pvtz-jkfit.gbs 

  ==> Integral Setup <==

  DFHelper Memory: AOs need 2.049 GiB; user supplied 41.910 GiB. 
  Using in-core AOs.

  ==> MemDFJK: Density-Fitted J/K Matrices <==

    J tasked:                   Yes
    K tasked:                   Yes
    wK tasked:                   No
    OpenMP threads:              20
    Memory [MiB]:             42915
    Algorithm:                 Core
    Schwarz Cutoff:           1E-12
    Mask sparsity (%):       7.8970
    Fitting Condition:        1E-10

   => Auxiliary Basis Set <=

  Basis Set: (AUG-CC-PVTZ AUX)
    Blend: AUG-CC-PVTZ-JKFIT + DEF2-UNIVERSAL-JKFIT
    Number of shells: 324
    Number of basis functions: 1092
    Number of Cartesian functions: 1342
    Spherical Harmonics?: true
    Max angular momentum: 4

  Minimum eigenvalue in the overlap matrix is 2.7459959448E-05.
  Reciprocal condition number of the overlap matrix is 1.9539630364E-06.
    Using symmetric orthogonalization.

  ==> Pre-Iterations <==

  SCF Guess: Superposition of Atomic Densities via on-the-fly atomic UHF (no occupation information).

   -------------------------
    Irrep   Nso     Nmo    
   -------------------------
     A        510     510 
   -------------------------
    Total     510     510
   -------------------------

  ==> Iterations <==

                           Total Energy        Delta E     RMS |[F,P]|

   @DF-RHF iter SAD:   -75.45741877216288   -7.54574e+01   0.00000e+00 
   @DF-RHF iter   1:   -75.97340818204610   -5.15989e-01   9.18431e-04 DIIS/ADIIS
   @DF-RHF iter   2:   -76.02518749730535   -5.17793e-02   6.24357e-04 DIIS/ADIIS
   @DF-RHF iter   3:   -76.05642289160681   -3.12354e-02   4.21980e-05 DIIS
   @DF-RHF iter   4:   -76.05683058655227   -4.07695e-04   1.04522e-05 DIIS
   @DF-RHF iter   5:   -76.05685767097034   -2.70844e-05   2.41812e-06 DIIS
   @DF-RHF iter   6:   -76.05686005216077   -2.38119e-06   5.61391e-07 DIIS
   @DF-RHF iter   7:   -76.05686019434411   -1.42183e-07   1.10557e-07 DIIS
   @DF-RHF iter   8:   -76.05686019919526   -4.85115e-09   1.76907e-08 DIIS
   @DF-RHF iter   9:   -76.05686019929404   -9.87797e-11   4.38598e-09 DIIS
  Energy and wave function converged.


  ==> Post-Iterations <==

    Orbital Energies [Eh]
    ---------------------

    Doubly Occupied:                                                      

       1A    -20.562537     2A     -1.340975     3A     -0.734395  
       4A     -0.559887     5A     -0.505790  

    Virtual:                                                              

       6A      0.007302     7A      0.016064     8A      0.016545  
       9A      0.018151    10A      0.037174    11A      0.051053  
      12A      0.052362    13A      0.054682    14A      0.057196  
      15A      0.057908    16A      0.058977    17A      0.060156  
      18A      0.066233    19A      0.081271    20A      0.082574  
      21A      0.085789    22A      0.087642    23A      0.089118  
      24A      0.093240    25A      0.101840    26A      0.103497  
      27A      0.108820    28A      0.119361    29A      0.134153  
      30A      0.137286    31A      0.147007    32A      0.158777  
      33A      0.164993    34A      0.169508    35A      0.179261  
      36A      0.181517    37A      0.184353    38A      0.192314  
      39A      0.195757    40A      0.202826    41A      0.209511  
      42A      0.215645    43A      0.217438    44A      0.220728  
      45A      0.226739    46A      0.239032    47A      0.242253  
      48A      0.249817    49A      0.255593    50A      0.266332  
      51A      0.275354    52A      0.280483    53A      0.285226  
      54A      0.287943    55A      0.302911    56A      0.314712  
      57A      0.324371    58A      0.328049    59A      0.334207  
      60A      0.340826    61A      0.342272    62A      0.346178  
      63A      0.356624    64A      0.359110    65A      0.363423  
      66A      0.371188    67A      0.377448    68A      0.383657  
      69A      0.391259    70A      0.396443    71A      0.404090  
      72A      0.414112    73A      0.419510    74A      0.420117  
      75A      0.425370    76A      0.427539    77A      0.442097  
      78A      0.446316    79A      0.456200    80A      0.459720  
      81A      0.464412    82A      0.467606    83A      0.469694  
      84A      0.472402    85A      0.476318    86A      0.481664  
      87A      0.485472    88A      0.491963    89A      0.498263  
      90A      0.500680    91A      0.504113    92A      0.505350  
      93A      0.520016    94A      0.522639    95A      0.532789  
      96A      0.536706    97A      0.549563    98A      0.555921  
      99A      0.570601   100A      0.572498   101A      0.578112  
     102A      0.585719   103A      0.593700   104A      0.599394  
     105A      0.621223   106A      0.626393   107A      0.650396  
     108A      0.698745   109A      0.702209   110A      0.718964  
     111A      0.725269   112A      0.737142   113A      0.747822  
     114A      0.756628   115A      0.773205   116A      0.783621  
     117A      0.787667   118A      0.797043   119A      0.807111  
     120A      0.810686   121A      0.822044   122A      0.828844  
     123A      0.831751   124A      0.839716   125A      0.847815  
     126A      0.850614   127A      0.852978   128A      0.863367  
     129A      0.866487   130A      0.886972   131A      0.896360  
     132A      0.904053   133A      0.909510   134A      0.914386  
     135A      0.920479   136A      0.929861   137A      0.932101  
     138A      0.939706   139A      0.945812   140A      0.958392  
     141A      0.967356   142A      0.972393   143A      0.976370  
     144A      0.980347   145A      0.984569   146A      0.994267  
     147A      0.998440   148A      1.007349   149A      1.014082  
     150A      1.022480   151A      1.029549   152A      1.035074  
     153A      1.037737   154A      1.046770   155A      1.060250  
     156A      1.062935   157A      1.067553   158A      1.073559  
     159A      1.086886   160A      1.093329   161A      1.099522  
     162A      1.102001   163A      1.106404   164A      1.110988  
     165A      1.126449   166A      1.133580   167A      1.139203  
     168A      1.147631   169A      1.152781   170A      1.161685  
     171A      1.174088   172A      1.182923   173A      1.189139  
     174A      1.194510   175A      1.202122   176A      1.211828  
     177A      1.218561   178A      1.222570   179A      1.236003  
     180A      1.244136   181A      1.258268   182A      1.263015  
     183A      1.264614   184A      1.273832   185A      1.288552  
     186A      1.293094   187A      1.300947   188A      1.325590  
     189A      1.345186   190A      1.346425   191A      1.350489  
     192A      1.351568   193A      1.359598   194A      1.369689  
     195A      1.381718   196A      1.395110   197A      1.403489  
     198A      1.411792   199A      1.419472   200A      1.434193  
     201A      1.445906   202A      1.455156   203A      1.468638  
     204A      1.473312   205A      1.499384   206A      1.508877  
     207A      1.523642   208A      1.532709   209A      1.541088  
     210A      1.555993   211A      1.563031   212A      1.570873  
     213A      1.590150   214A      1.608687   215A      1.616825  
     216A      1.639124   217A      1.659751   218A      1.663782  
     219A      1.681241   220A      1.690684   221A      1.716023  
     222A      1.731696   223A      1.742799   224A      1.749708  
     225A      1.764998   226A      1.814992   227A      1.837000  
     228A      1.845468   229A      1.851717   230A      1.863792  
     231A      1.869846   232A      1.883420   233A      1.905131  
     234A      1.913121   235A      1.914392   236A      1.929152  
     237A      1.931675   238A      1.946335   239A      1.952829  
     240A      1.960641   241A      1.967126   242A      1.993165  
     243A      2.002725   244A      2.023553   245A      2.037026  
     246A      2.053481   247A      2.066724   248A      2.091849  
     249A      2.101434   250A      2.112682   251A      2.118052  
     252A      2.136917   253A      2.154358   254A      2.208081  
     255A      2.260125   256A      2.418524   257A      2.435785  
     258A      2.452047   259A      2.461490   260A      2.484693  
     261A      2.498547   262A      2.528708   263A      2.538758  
     264A      2.557044   265A      2.558105   266A      2.575786  
     267A      2.581811   268A      2.599675   269A      2.623829  
     270A      2.627589   271A      2.641790   272A      2.644889  
     273A      2.663635   274A      2.668945   275A      2.680608  
     276A      2.687076   277A      2.696230   278A      2.714477  
     279A      2.734240   280A      2.742903   281A      2.781017  
     282A      2.791850   283A      2.814649   284A      2.820534  
     285A      2.840173   286A      2.850487   287A      2.859877  
     288A      2.871462   289A      2.895963   290A      2.912922  
     291A      2.916017   292A      2.935141   293A      2.952925  
     294A      2.971953   295A      2.989600   296A      3.002314  
     297A      3.010698   298A      3.023785   299A      3.043091  
     300A      3.054606   301A      3.114339   302A      3.143013  
     303A      3.153025   304A      3.204033   305A      3.228506  
     306A      3.241691   307A      3.250431   308A      3.259891  
     309A      3.264352   310A      3.281372   311A      3.306483  
     312A      3.323367   313A      3.338366   314A      3.346509  
     315A      3.360674   316A      3.373804   317A      3.379933  
     318A      3.399713   319A      3.410954   320A      3.419078  
     321A      3.453269   322A      3.483779   323A      3.484710  
     324A      3.616212   325A      3.635504   326A      3.651680  
     327A      3.702595   328A      3.761946   329A      3.787195  
     330A      3.793148   331A      3.798243   332A      3.879183  
     333A      4.066207   334A      4.157088   335A      4.313695  
     336A      4.355222   337A      4.412200   338A      4.426327  
     339A      4.429955   340A      4.441919   341A      4.455726  
     342A      4.461637   343A      4.478128   344A      4.514447  
     345A      4.540029   346A      4.549205   347A      4.571447  
     348A      4.580229   349A      4.586082   350A      4.592755  
     351A      4.606604   352A      4.622093   353A      4.658615  
     354A      4.662455   355A      4.676489   356A      4.695103  
     357A      4.716113   358A      4.732047   359A      4.737404  
     360A      4.741404   361A      4.754249   362A      4.757459  
     363A      4.791712   364A      4.793200   365A      4.808933  
     366A      4.820063   367A      4.845994   368A      4.850697  
     369A      4.989936   370A      5.002020   371A      5.030988  
     372A      5.037005   373A      5.047523   374A      5.054971  
     375A      5.062111   376A      5.068925   377A      5.123578  
     378A      5.132438   379A      5.177773   380A      5.181137  
     381A      5.202018   382A      5.238096   383A      5.259985  
     384A      5.272408   385A      5.284614   386A      5.314212  
     387A      5.363205   388A      5.448482   389A      5.458021  
     390A      5.501034   391A      5.520334   392A      5.529081  
     393A      5.573099   394A      5.577823   395A      5.597636  
     396A      5.609177   397A      5.630545   398A      5.666977  
     399A      5.687043   400A      5.718872   401A      5.818783  
     402A      5.841935   403A      5.853638   404A      5.880210  
     405A      5.930106   406A      5.962898   407A      6.028118  
     408A      6.132102   409A      6.267083   410A      6.290306  
     411A      6.304456   412A      6.318619   413A      6.349690  
     414A      6.366243   415A      6.415814   416A      6.489381  
     417A      6.525114   418A      6.650910   419A      6.671798  
     420A      6.728798   421A      6.779372   422A      6.818796  
     423A      6.893099   424A      6.908101   425A      7.039749  
     426A      7.077281   427A      7.121404   428A      7.189114  
     429A      7.251252   430A      7.295067   431A      7.320422  
     432A      7.363159   433A      7.411691   434A      7.458260  
     435A      7.528684   436A      7.567257   437A      7.703044  
     438A      7.714625   439A      7.749627   440A      7.767337  
     441A      7.787280   442A      7.842469   443A      7.853544  
     444A      7.870425   445A      7.895250   446A      7.925576  
     447A      8.075188   448A      8.080617   449A      8.096263  
     450A      8.099054   451A      8.144737   452A      8.166063  
     453A      8.189775   454A      8.233423   455A      8.259113  
     456A      8.296111   457A      8.308373   458A      8.312659  
     459A      8.377072   460A      8.529218   461A      8.703540  
     462A      8.729906   463A      8.738878   464A      8.777992  
     465A      8.830741   466A      8.839794   467A      8.944276  
     468A      9.004225   469A      9.833645   470A      9.878603  
     471A      9.908000   472A      9.953075   473A      9.999682  
     474A     10.014808   475A     10.021655   476A     10.025063  
     477A     10.052812   478A     10.065823   479A     10.081085  
     480A     10.090862   481A     10.225118   482A     10.240441  
     483A     10.251549   484A     10.259540   485A     11.007522  
     486A     11.081632   487A     11.154497   488A     11.337195  
     489A     11.727205   490A     11.826542   491A     11.924555  
     492A     11.935602   493A     11.955879   494A     12.106505  
     495A     12.130952   496A     12.529085   497A     13.437353  
     498A     13.496222   499A     13.545037   500A     13.783976  
     501A     13.948738   502A     13.958933   503A     13.976496  
     504A     14.018041   505A     16.354331   506A     63.323185  
     507A     64.572643   508A     64.771971   509A     65.023366  
     510A     66.844113  

    Final Occupation by Irrep:
              A 
    DOCC [     5 ]
    NA   [     5 ]
    NB   [     5 ]

  @DF-RHF Final Energy:   -76.05686019929404

   => Energetics <=

    Nuclear Repulsion Energy =              9.0897915256976063
    One-Electron Energy =                -122.8861308197312496
    Two-Electron Energy =                  37.7394790947396146
    Total Energy =                        -76.0568601992940216

Computation Completed


Properties will be evaluated at   0.000000,   0.000000,   0.000000 [a0]

Properties computed using the SCF density matrix


 Multipole Moments:

 ------------------------------------------------------------------------------------
     Multipole            Electronic (a.u.)      Nuclear  (a.u.)        Total (a.u.)
 ------------------------------------------------------------------------------------

 L = 1.  Multiply by 2.5417464519 to convert [e a0] to [Debye]
 Dipole X            :         26.3869055          -26.7163168           -0.3294113
 Dipole Y            :        -35.7090291           35.7205197            0.0114906
 Dipole Z            :         -1.3532515            0.7388149           -0.6144366
 Magnitude           :                                                    0.6972633

 ------------------------------------------------------------------------------------

*** tstop() called on ddmfs1 at Mon Jan 22 15:10:46 2024
Module time:
	user time   =      92.50 seconds =       1.54 minutes
	system time =       5.52 seconds =       0.09 minutes
	total time  =          6 seconds =       0.10 minutes
Total time:
	user time   =      92.50 seconds =       1.54 minutes
	system time =       5.52 seconds =       0.09 minutes
	total time  =          6 seconds =       0.10 minutes

*** tstart() called on ddmfs1
*** at Mon Jan 22 15:10:46 2024


  //>>>>>>>>>>>>>>>>>>>>>>>>>>>>>>>>>>>//
  //               DFMP2               //
  //<<<<<<<<<<<<<<<<<<<<<<<<<<<<<<<<<<<//

   => Loading Basis Set <=

    Name: (AUG-CC-PVTZ AUX)
    Role: RIFIT
    Keyword: DF_BASIS_MP2
    atoms 1                            entry NA         line   610 file /ddmfs1b/softs/psi4conda/share/psi4/basis/def2-qzvpp-ri.gbs 
    atoms 2, 5, 8, 11, 14              entry O          line   264 file /ddmfs1b/softs/psi4conda/share/psi4/basis/aug-cc-pvtz-ri.gbs 
    atoms 3-4, 6-7, 9-10, 12-13, 15-16 entry H          line    30 file /ddmfs1b/softs/psi4conda/share/psi4/basis/aug-cc-pvtz-ri.gbs 

	 --------------------------------------------------------
	                          DF-MP2                         
	      2nd-Order Density-Fitted Moller-Plesset Theory     
	              RMP2 Wavefunction,  20 Threads             
	                                                         
	        Rob Parrish, Justin Turney, Andy Simmonett,      
	           Ed Hohenstein, and C. David Sherrill          
	 --------------------------------------------------------

   => Auxiliary Basis Set <=

  Basis Set: (AUG-CC-PVTZ AUX)
    Blend: AUG-CC-PVTZ-RI + DEF2-QZVPP-RI
    Number of shells: 322
    Number of basis functions: 1156
    Number of Cartesian functions: 1444
    Spherical Harmonics?: true
    Max angular momentum: 4

	 --------------------------------------------------------
	                 NBF =   510, NAUX =  1156
	 --------------------------------------------------------
	   CLASS    FOCC     OCC    AOCC    AVIR     VIR    FVIR
	   PAIRS       0       5       5     505     505       0
	 --------------------------------------------------------

	-----------------------------------------------------------
	 ==================> DF-MP2 Energies <==================== 
	-----------------------------------------------------------
	 Reference Energy          =     -76.0568601992940359 [Eh]
	 Singles Energy            =      -0.0000000000000000 [Eh]
	 Same-Spin Energy          =      -0.0685126518720377 [Eh]
	 Opposite-Spin Energy      =      -0.2159864793397860 [Eh]
	 Correlation Energy        =      -0.2844991312118237 [Eh]
	 Total Energy              =     -76.3413593305058527 [Eh]
	-----------------------------------------------------------
	 ================> DF-SCS-MP2 Energies <================== 
	-----------------------------------------------------------
	 SCS Same-Spin Scale       =       0.3333333333333333 [-]
	 SCS Opposite-Spin Scale   =       1.2000000000000000 [-]
	 SCS Same-Spin Energy      =      -0.0228375506240126 [Eh]
	 SCS Opposite-Spin Energy  =      -0.2591837752077432 [Eh]
	 SCS Correlation Energy    =      -0.2820213258317558 [Eh]
	 SCS Total Energy          =     -76.3388815251257853 [Eh]
	-----------------------------------------------------------


*** tstop() called on ddmfs1 at Mon Jan 22 15:10:53 2024
Module time:
	user time   =      28.58 seconds =       0.48 minutes
	system time =       2.03 seconds =       0.03 minutes
	total time  =          7 seconds =       0.12 minutes
Total time:
	user time   =     121.10 seconds =       2.02 minutes
	system time =       7.55 seconds =       0.13 minutes
	total time  =         13 seconds =       0.22 minutes

    Psi4 stopped on: Monday, 22 January 2024 03:10PM
    Psi4 wall time for execution: 0:00:13.27

*** Psi4 exiting successfully. Buy a developer a beer!
