
    -----------------------------------------------------------------------
          Psi4: An Open-Source Ab Initio Electronic Structure Package
                               Psi4 1.8.2 release

                         Git: Rev {} zzzzzzz 


    D. G. A. Smith, L. A. Burns, A. C. Simmonett, R. M. Parrish,
    M. C. Schieber, R. Galvelis, P. Kraus, H. Kruse, R. Di Remigio,
    A. Alenaizan, A. M. James, S. Lehtola, J. P. Misiewicz, M. Scheurer,
    R. A. Shaw, J. B. Schriber, Y. Xie, Z. L. Glick, D. A. Sirianni,
    J. S. O'Brien, J. M. Waldrop, A. Kumar, E. G. Hohenstein,
    B. P. Pritchard, B. R. Brooks, H. F. Schaefer III, A. Yu. Sokolov,
    K. Patkowski, A. E. DePrince III, U. Bozkaya, R. A. King,
    F. A. Evangelista, J. M. Turney, T. D. Crawford, C. D. Sherrill,
    J. Chem. Phys. 152(18) 184108 (2020). https://doi.org/10.1063/5.0006002

                            Additional Code Authors
    E. T. Seidl, C. L. Janssen, E. F. Valeev, M. L. Leininger,
    J. F. Gonthier, R. M. Richard, H. R. McAlexander, M. Saitow, X. Wang,
    P. Verma, M. H. Lechner, A. Jiang, S. Behnle, A. G. Heide,
    M. F. Herbst, and D. L. Poole

             Previous Authors, Complete List of Code Contributors,
                       and Citations for Specific Modules
    https://github.com/psi4/psi4/blob/master/codemeta.json
    https://github.com/psi4/psi4/graphs/contributors
    http://psicode.org/psi4manual/master/introduction.html#citing-psifour

    -----------------------------------------------------------------------


    Psi4 started on: Monday, 22 January 2024 03:10PM

    Process ID: 70895
    Host:       ddmfs1
    PSIDATADIR: /ddmfs1b/softs/psi4conda/share/psi4
    Memory:     500.0 MiB
    Threads:    20
    
  ==> Input File <==

--------------------------------------------------------------------------
MEMORY 60 GB

molecule dimer {
1 1
Na         0.000000     0.000000     0.000000
Gh(O)     -1.365784     1.888773     0.128336
Gh(H)     -1.127056     2.523638    -0.548341
Gh(H)     -2.084338     1.268663    -0.087383
Gh(O)      1.933277     1.190155     1.145330
Gh(H)      2.694356     1.300756     0.519806
Gh(H)      1.814910     2.060976     1.520495
Gh(O)     -0.418772    -0.363065    -2.238699
Gh(H)     -1.093240     0.117831    -2.640346
Gh(H)      0.385868    -0.155367    -2.718085
Gh(O)     -1.360209    -0.721731     1.772667
Gh(H)     -0.830785    -1.124783     2.509665
Gh(H)     -1.649374     0.155797     2.059176
Gh(O)      1.649637    -1.718358    -0.019721
Gh(H)      1.060619    -2.517490    -0.072430
Gh(H)      2.004692    -1.689554    -0.966746

units ang
no_reorient
no_com
symmetry c1
}

set {
basis        aug-cc-pVTZ
scf_type     df
}

energy("mp2")
--------------------------------------------------------------------------

  Memory set to  55.879 GiB by Python driver.

Scratch directory: /ddmfs1a/scratch/
   => Libint2 <=

    Primary   basis highest AM E, G, H:  5, 4, 3
    Auxiliary basis highest AM E, G, H:  6, 5, 4
    Onebody   basis highest AM E, G, H:  6, 5, 4
    Solid Harmonics ordering:            gaussian

*** tstart() called on ddmfs1
*** at Mon Jan 22 15:10:26 2024

   => Loading Basis Set <=

    Name: AUG-CC-PVTZ
    Role: ORBITAL
    Keyword: BASIS
    atoms 1                            entry NA         line   469 file /ddmfs1b/softs/psi4conda/share/psi4/basis/aug-cc-pvtz.gbs 
    atoms 2, 5, 8, 11, 14              entry O          line   331 file /ddmfs1b/softs/psi4conda/share/psi4/basis/aug-cc-pvtz.gbs 
    atoms 3-4, 6-7, 9-10, 12-13, 15-16 entry H          line    40 file /ddmfs1b/softs/psi4conda/share/psi4/basis/aug-cc-pvtz.gbs 


         ---------------------------------------------------------
                                   SCF
               by Justin Turney, Rob Parrish, Andy Simmonett
                          and Daniel G. A. Smith
                              RHF Reference
                       20 Threads,  57220 MiB Core
         ---------------------------------------------------------

  ==> Geometry <==

    Molecular point group: c1
    Full point group: C1

    Geometry (in Angstrom), charge = 1, multiplicity = 1:

       Center              X                  Y                   Z               Mass       
    ------------   -----------------  -----------------  -----------------  -----------------
         NA           0.000000000000     0.000000000000     0.000000000000    22.989769282000
      Gh(O)          -1.365784000000     1.888773000000     0.128336000000    15.994914619570
      Gh(H)          -1.127056000000     2.523638000000    -0.548341000000     1.007825032230
      Gh(H)          -2.084338000000     1.268663000000    -0.087383000000     1.007825032230
      Gh(O)           1.933277000000     1.190155000000     1.145330000000    15.994914619570
      Gh(H)           2.694356000000     1.300756000000     0.519806000000     1.007825032230
      Gh(H)           1.814910000000     2.060976000000     1.520495000000     1.007825032230
      Gh(O)          -0.418772000000    -0.363065000000    -2.238699000000    15.994914619570
      Gh(H)          -1.093240000000     0.117831000000    -2.640346000000     1.007825032230
      Gh(H)           0.385868000000    -0.155367000000    -2.718085000000     1.007825032230
      Gh(O)          -1.360209000000    -0.721731000000     1.772667000000    15.994914619570
      Gh(H)          -0.830785000000    -1.124783000000     2.509665000000     1.007825032230
      Gh(H)          -1.649374000000     0.155797000000     2.059176000000     1.007825032230
      Gh(O)           1.649637000000    -1.718358000000    -0.019721000000    15.994914619570
      Gh(H)           1.060619000000    -2.517490000000    -0.072430000000     1.007825032230
      Gh(H)           2.004692000000    -1.689554000000    -0.966746000000     1.007825032230

  Running in c1 symmetry.

  Rotational constants: A =      0.05297  B =      0.04877  C =      0.04162 [cm^-1]
  Rotational constants: A =   1588.00938  B =   1462.22522  C =   1247.70315 [MHz]
  Nuclear repulsion =    0.000000000000000

  Charge       = 1
  Multiplicity = 1
  Electrons    = 10
  Nalpha       = 5
  Nbeta        = 5

  ==> Algorithm <==

  SCF Algorithm Type is DF.
  DIIS enabled.
  MOM disabled.
  Fractional occupation disabled.
  Guess Type is SAD.
  Energy threshold   = 1.00e-08
  Density threshold  = 1.00e-08
  Integral threshold = 1.00e-12

  ==> Primary Basis <==

  Basis Set: AUG-CC-PVTZ
    Blend: AUG-CC-PVTZ
    Number of shells: 176
    Number of basis functions: 510
    Number of Cartesian functions: 584
    Spherical Harmonics?: true
    Max angular momentum: 3

   => Loading Basis Set <=

    Name: (AUG-CC-PVTZ AUX)
    Role: JKFIT
    Keyword: DF_BASIS_SCF
    atoms 1                            entry NA         line   498 file /ddmfs1b/softs/psi4conda/share/psi4/basis/def2-universal-jkfit.gbs 
    atoms 2, 5, 8, 11, 14              entry O          line   286 file /ddmfs1b/softs/psi4conda/share/psi4/basis/aug-cc-pvtz-jkfit.gbs 
    atoms 3-4, 6-7, 9-10, 12-13, 15-16 entry H          line    70 file /ddmfs1b/softs/psi4conda/share/psi4/basis/aug-cc-pvtz-jkfit.gbs 

  ==> Integral Setup <==

  DFHelper Memory: AOs need 2.049 GiB; user supplied 41.910 GiB. 
  Using in-core AOs.

  ==> MemDFJK: Density-Fitted J/K Matrices <==

    J tasked:                   Yes
    K tasked:                   Yes
    wK tasked:                   No
    OpenMP threads:              20
    Memory [MiB]:             42915
    Algorithm:                 Core
    Schwarz Cutoff:           1E-12
    Mask sparsity (%):       7.8970
    Fitting Condition:        1E-10

   => Auxiliary Basis Set <=

  Basis Set: (AUG-CC-PVTZ AUX)
    Blend: AUG-CC-PVTZ-JKFIT + DEF2-UNIVERSAL-JKFIT
    Number of shells: 324
    Number of basis functions: 1092
    Number of Cartesian functions: 1342
    Spherical Harmonics?: true
    Max angular momentum: 4

  Minimum eigenvalue in the overlap matrix is 2.7459959448E-05.
  Reciprocal condition number of the overlap matrix is 1.9539630364E-06.
    Using symmetric orthogonalization.

  ==> Pre-Iterations <==

  SCF Guess: Superposition of Atomic Densities via on-the-fly atomic UHF (no occupation information).

   -------------------------
    Irrep   Nso     Nmo    
   -------------------------
     A        510     510 
   -------------------------
    Total     510     510
   -------------------------

  ==> Iterations <==

                           Total Energy        Delta E     RMS |[F,P]|

   @DF-RHF iter SAD:  -161.74574890945604   -1.61746e+02   0.00000e+00 
   @DF-RHF iter   1:  -161.67607394860403    6.96750e-02   1.25138e-05 DIIS
   @DF-RHF iter   2:  -161.67609228796724   -1.83394e-05   2.34817e-06 DIIS
   @DF-RHF iter   3:  -161.67609279315735   -5.05190e-07   1.21118e-07 DIIS
   @DF-RHF iter   4:  -161.67609279417144   -1.01409e-09   1.49844e-08 DIIS
   @DF-RHF iter   5:  -161.67609279418713   -1.56888e-11   5.83192e-10 DIIS
  Energy and wave function converged.


  ==> Post-Iterations <==

    Orbital Energies [Eh]
    ---------------------

    Doubly Occupied:                                                      

       1A    -40.760371     2A     -3.073772     3A     -1.797136  
       4A     -1.797134     5A     -1.797080  

    Virtual:                                                              

       6A     -0.181804     7A     -0.109437     8A     -0.109435  
       9A     -0.109430    10A     -0.070082    11A     -0.052037  
      12A     -0.051929    13A     -0.051741    14A     -0.051321  
      15A     -0.051271    16A     -0.049333    17A     -0.049234  
      18A     -0.049186    19A     -0.027090    20A     -0.013138  
      21A     -0.012269    22A     -0.011809    23A     -0.010571  
      24A     -0.008252    25A     -0.006292    26A     -0.005441  
      27A     -0.004619    28A      0.001394    29A      0.004836  
      30A      0.016044    31A      0.019147    32A      0.023483  
      33A      0.025820    34A      0.028339    35A      0.034806  
      36A      0.040072    37A      0.045983    38A      0.062148  
      39A      0.069108    40A      0.075586    41A      0.080500  
      42A      0.081999    43A      0.083167    44A      0.091725  
      45A      0.092754    46A      0.097970    47A      0.101399  
      48A      0.105488    49A      0.109972    50A      0.116264  
      51A      0.120120    52A      0.127753    53A      0.137853  
      54A      0.141104    55A      0.144277    56A      0.162122  
      57A      0.169275    58A      0.172973    59A      0.176249  
      60A      0.187377    61A      0.193295    62A      0.198273  
      63A      0.208618    64A      0.212265    65A      0.221636  
      66A      0.225262    67A      0.231105    68A      0.232504  
      69A      0.239335    70A      0.245273    71A      0.248560  
      72A      0.254100    73A      0.263581    74A      0.267838  
      75A      0.271528    76A      0.276080    77A      0.279227  
      78A      0.286180    79A      0.295709    80A      0.299160  
      81A      0.302233    82A      0.305981    83A      0.312892  
      84A      0.318432    85A      0.322609    86A      0.330490  
      87A      0.333929    88A      0.336985    89A      0.340154  
      90A      0.342367    91A      0.348043    92A      0.351232  
      93A      0.355621    94A      0.365898    95A      0.373696  
      96A      0.381035    97A      0.384356    98A      0.386396  
      99A      0.397736   100A      0.407096   101A      0.413700  
     102A      0.426261   103A      0.432766   104A      0.440076  
     105A      0.443606   106A      0.452641   107A      0.470637  
     108A      0.479478   109A      0.484423   110A      0.494018  
     111A      0.514759   112A      0.528497   113A      0.536740  
     114A      0.556447   115A      0.563197   116A      0.574604  
     117A      0.578534   118A      0.579038   119A      0.598145  
     120A      0.610789   121A      0.618194   122A      0.630883  
     123A      0.646481   124A      0.650728   125A      0.659530  
     126A      0.663332   127A      0.665789   128A      0.675030  
     129A      0.680703   130A      0.695433   131A      0.698242  
     132A      0.721680   133A      0.729845   134A      0.735216  
     135A      0.738024   136A      0.745374   137A      0.749036  
     138A      0.749651   139A      0.765267   140A      0.770736  
     141A      0.775200   142A      0.782609   143A      0.791221  
     144A      0.794683   145A      0.800217   146A      0.811448  
     147A      0.821853   148A      0.822787   149A      0.828033  
     150A      0.834500   151A      0.849901   152A      0.854227  
     153A      0.862356   154A      0.873863   155A      0.878043  
     156A      0.883320   157A      0.892763   158A      0.896985  
     159A      0.907125   160A      0.913084   161A      0.919098  
     162A      0.929881   163A      0.931924   164A      0.943841  
     165A      0.950535   166A      0.952909   167A      0.960613  
     168A      0.971902   169A      0.973901   170A      0.980874  
     171A      0.997182   172A      0.999184   173A      1.010799  
     174A      1.017196   175A      1.024170   176A      1.031722  
     177A      1.043413   178A      1.049134   179A      1.058659  
     180A      1.064185   181A      1.076822   182A      1.077507  
     183A      1.087112   184A      1.095843   185A      1.102481  
     186A      1.107875   187A      1.123840   188A      1.140194  
     189A      1.147186   190A      1.153000   191A      1.161383  
     192A      1.173129   193A      1.176721   194A      1.185165  
     195A      1.195611   196A      1.203494   197A      1.208636  
     198A      1.211476   199A      1.219962   200A      1.244025  
     201A      1.248914   202A      1.267567   203A      1.277856  
     204A      1.285773   205A      1.288197   206A      1.299169  
     207A      1.308430   208A      1.327633   209A      1.345765  
     210A      1.353062   211A      1.367106   212A      1.375213  
     213A      1.397909   214A      1.404129   215A      1.430453  
     216A      1.438148   217A      1.453548   218A      1.470674  
     219A      1.477062   220A      1.498078   221A      1.520384  
     222A      1.533627   223A      1.548971   224A      1.583444  
     225A      1.625904   226A      1.648220   227A      1.659891  
     228A      1.673001   229A      1.679840   230A      1.694273  
     231A      1.695808   232A      1.703495   233A      1.715355  
     234A      1.724968   235A      1.733707   236A      1.734673  
     237A      1.744394   238A      1.756833   239A      1.765561  
     240A      1.769820   241A      1.782387   242A      1.797486  
     243A      1.804040   244A      1.812172   245A      1.825889  
     246A      1.847085   247A      1.853121   248A      1.873917  
     249A      1.894139   250A      1.906926   251A      1.924576  
     252A      1.938921   253A      1.946635   254A      1.963852  
     255A      2.173520   256A      2.220984   257A      2.247269  
     258A      2.270920   259A      2.297618   260A      2.314093  
     261A      2.316387   262A      2.331929   263A      2.340248  
     264A      2.345135   265A      2.384403   266A      2.395587  
     267A      2.399430   268A      2.413569   269A      2.419915  
     270A      2.422448   271A      2.427868   272A      2.444001  
     273A      2.451262   274A      2.460668   275A      2.485884  
     276A      2.495991   277A      2.500386   278A      2.519773  
     279A      2.547645   280A      2.569542   281A      2.584134  
     282A      2.603716   283A      2.626539   284A      2.642481  
     285A      2.655767   286A      2.667474   287A      2.680408  
     288A      2.702473   289A      2.713069   290A      2.724281  
     291A      2.753821   292A      2.772437   293A      2.779108  
     294A      2.807386   295A      2.831228   296A      2.836718  
     297A      2.865402   298A      2.895479   299A      2.914801  
     300A      2.992894   301A      3.001236   302A      3.016061  
     303A      3.029546   304A      3.039063   305A      3.047465  
     306A      3.052479   307A      3.057121   308A      3.066804  
     309A      3.097895   310A      3.106654   311A      3.117628  
     312A      3.123524   313A      3.138767   314A      3.151668  
     315A      3.158589   316A      3.176068   317A      3.184248  
     318A      3.202239   319A      3.210088   320A      3.222189  
     321A      3.235421   322A      3.248710   323A      3.271646  
     324A      3.279303   325A      3.335392   326A      3.418133  
     327A      3.430174   328A      3.440903   329A      3.467035  
     330A      3.539214   331A      3.556276   332A      3.586265  
     333A      3.603709   334A      3.604951   335A      3.612545  
     336A      4.220311   337A      4.232211   338A      4.247124  
     339A      4.271388   340A      4.302677   341A      4.321043  
     342A      4.351508   343A      4.369380   344A      4.381665  
     345A      4.393468   346A      4.400862   347A      4.408644  
     348A      4.414769   349A      4.434374   350A      4.440292  
     351A      4.471980   352A      4.482656   353A      4.500890  
     354A      4.514940   355A      4.540357   356A      4.547252  
     357A      4.563421   358A      4.570301   359A      4.584486  
     360A      4.603766   361A      4.615669   362A      4.625651  
     363A      4.640720   364A      4.669512   365A      4.684110  
     366A      4.794099   367A      4.813009   368A      4.818452  
     369A      4.844995   370A      4.850998   371A      4.860593  
     372A      4.879298   373A      4.885795   374A      4.905257  
     375A      4.932703   376A      4.949296   377A      4.954146  
     378A      4.982341   379A      4.994846   380A      5.005308  
     381A      5.051094   382A      5.080671   383A      5.096765  
     384A      5.100971   385A      5.117727   386A      5.260642  
     387A      5.271116   388A      5.327698   389A      5.345330  
     390A      5.356031   391A      5.372146   392A      5.383722  
     393A      5.391847   394A      5.396710   395A      5.437549  
     396A      5.459634   397A      5.482811   398A      5.526113  
     399A      5.560456   400A      5.586691   401A      5.637173  
     402A      5.670957   403A      5.685073   404A      5.729104  
     405A      5.765892   406A      6.033456   407A      6.050515  
     408A      6.066169   409A      6.084622   410A      6.107917  
     411A      6.136520   412A      6.152249   413A      6.189975  
     414A      6.228617   415A      6.297622   416A      6.332202  
     417A      6.464729   418A      6.530301   419A      6.626765  
     420A      6.699853   421A      6.759622   422A      6.819995  
     423A      6.878069   424A      6.950001   425A      7.044871  
     426A      7.481575   427A      7.486917   428A      7.515562  
     429A      7.526335   430A      7.548333   431A      7.579483  
     432A      7.609636   433A      7.633404   434A      7.640434  
     435A      7.677999   436A      7.847393   437A      7.864384  
     438A      7.878003   439A      7.900647   440A      7.926867  
     441A      7.969981   442A      7.999879   443A      8.007677  
     444A      8.037026   445A      8.057641   446A      8.072071  
     447A      8.084672   448A      8.093649   449A      8.148654  
     450A      8.163032   451A      8.305113   452A      8.493982  
     453A      8.509632   454A      8.522728   455A      8.540366  
     456A      8.563300   457A      8.624869   458A      8.694690  
     459A      8.729194   460A      8.790259   461A      9.580813  
     462A      9.637060   463A      9.662778   464A      9.691722  
     465A      9.708914   466A      9.753319   467A      9.769936  
     468A      9.779671   469A      9.789994   470A      9.799435  
     471A      9.826180   472A      9.833230   473A      9.845085  
     474A      9.864406   475A      9.874520   476A      9.929197  
     477A      9.998941   478A     10.016966   479A     10.029860  
     480A     10.037694   481A     10.788069   482A     10.854156  
     483A     10.861210   484A     10.941432   485A     11.118675  
     486A     11.493582   487A     11.595735   488A     11.678294  
     489A     11.695214   490A     11.711489   491A     11.791974  
     492A     11.872430   493A     11.903941   494A     12.051102  
     495A     12.300547   496A     13.214956   497A     13.270217  
     498A     13.325919   499A     13.418231   500A     13.566157  
     501A     13.728181   502A     13.738673   503A     13.753172  
     504A     13.775227   505A     13.828461   506A     63.094971  
     507A     64.351175   508A     64.657832   509A     65.500727  
     510A     66.633359  

    Final Occupation by Irrep:
              A 
    DOCC [     5 ]
    NA   [     5 ]
    NB   [     5 ]

  @DF-RHF Final Energy:  -161.67609279418713

   => Energetics <=

    Nuclear Repulsion Energy =              0.0000000000000000
    One-Electron Energy =                -224.9012006011790845
    Two-Electron Energy =                  63.2251078069919643
    Total Energy =                       -161.6760927941871273

Computation Completed


Properties will be evaluated at   0.000000,   0.000000,   0.000000 [a0]

Properties computed using the SCF density matrix


 Multipole Moments:

 ------------------------------------------------------------------------------------
     Multipole            Electronic (a.u.)      Nuclear  (a.u.)        Total (a.u.)
 ------------------------------------------------------------------------------------

 L = 1.  Multiply by 2.5417464519 to convert [e a0] to [Debye]
 Dipole X            :          0.0000291            0.0000000            0.0000291
 Dipole Y            :          0.0000425            0.0000000            0.0000425
 Dipole Z            :         -0.0000451            0.0000000           -0.0000451
 Magnitude           :                                                    0.0000684

 ------------------------------------------------------------------------------------

*** tstop() called on ddmfs1 at Mon Jan 22 15:10:32 2024
Module time:
	user time   =      82.75 seconds =       1.38 minutes
	system time =       7.43 seconds =       0.12 minutes
	total time  =          6 seconds =       0.10 minutes
Total time:
	user time   =      82.75 seconds =       1.38 minutes
	system time =       7.43 seconds =       0.12 minutes
	total time  =          6 seconds =       0.10 minutes

*** tstart() called on ddmfs1
*** at Mon Jan 22 15:10:32 2024


  //>>>>>>>>>>>>>>>>>>>>>>>>>>>>>>>>>>>//
  //               DFMP2               //
  //<<<<<<<<<<<<<<<<<<<<<<<<<<<<<<<<<<<//

   => Loading Basis Set <=

    Name: (AUG-CC-PVTZ AUX)
    Role: RIFIT
    Keyword: DF_BASIS_MP2
    atoms 1                            entry NA         line   610 file /ddmfs1b/softs/psi4conda/share/psi4/basis/def2-qzvpp-ri.gbs 
    atoms 2, 5, 8, 11, 14              entry O          line   264 file /ddmfs1b/softs/psi4conda/share/psi4/basis/aug-cc-pvtz-ri.gbs 
    atoms 3-4, 6-7, 9-10, 12-13, 15-16 entry H          line    30 file /ddmfs1b/softs/psi4conda/share/psi4/basis/aug-cc-pvtz-ri.gbs 

	 --------------------------------------------------------
	                          DF-MP2                         
	      2nd-Order Density-Fitted Moller-Plesset Theory     
	              RMP2 Wavefunction,  20 Threads             
	                                                         
	        Rob Parrish, Justin Turney, Andy Simmonett,      
	           Ed Hohenstein, and C. David Sherrill          
	 --------------------------------------------------------

   => Auxiliary Basis Set <=

  Basis Set: (AUG-CC-PVTZ AUX)
    Blend: AUG-CC-PVTZ-RI + DEF2-QZVPP-RI
    Number of shells: 322
    Number of basis functions: 1156
    Number of Cartesian functions: 1444
    Spherical Harmonics?: true
    Max angular momentum: 4

	 --------------------------------------------------------
	                 NBF =   510, NAUX =  1156
	 --------------------------------------------------------
	   CLASS    FOCC     OCC    AOCC    AVIR     VIR    FVIR
	   PAIRS       0       5       5     505     505       0
	 --------------------------------------------------------

	-----------------------------------------------------------
	 ==================> DF-MP2 Energies <==================== 
	-----------------------------------------------------------
	 Reference Energy          =    -161.6760927941871273 [Eh]
	 Singles Energy            =      -0.0000000000000000 [Eh]
	 Same-Spin Energy          =      -0.0060259654479536 [Eh]
	 Opposite-Spin Energy      =      -0.0186646094808528 [Eh]
	 Correlation Energy        =      -0.0246905749288064 [Eh]
	 Total Energy              =    -161.7007833691159249 [Eh]
	-----------------------------------------------------------
	 ================> DF-SCS-MP2 Energies <================== 
	-----------------------------------------------------------
	 SCS Same-Spin Scale       =       0.3333333333333333 [-]
	 SCS Opposite-Spin Scale   =       1.2000000000000000 [-]
	 SCS Same-Spin Energy      =      -0.0020086551493179 [Eh]
	 SCS Opposite-Spin Energy  =      -0.0223975313770233 [Eh]
	 SCS Correlation Energy    =      -0.0244061865263412 [Eh]
	 SCS Total Energy          =    -161.7004989807134621 [Eh]
	-----------------------------------------------------------


*** tstop() called on ddmfs1 at Mon Jan 22 15:10:39 2024
Module time:
	user time   =      28.43 seconds =       0.47 minutes
	system time =       2.08 seconds =       0.03 minutes
	total time  =          7 seconds =       0.12 minutes
Total time:
	user time   =     111.20 seconds =       1.85 minutes
	system time =       9.51 seconds =       0.16 minutes
	total time  =         13 seconds =       0.22 minutes

    Psi4 stopped on: Monday, 22 January 2024 03:10PM
    Psi4 wall time for execution: 0:00:12.99

*** Psi4 exiting successfully. Buy a developer a beer!
