
    -----------------------------------------------------------------------
          Psi4: An Open-Source Ab Initio Electronic Structure Package
                               Psi4 1.9 release

                         Git: Rev {} zzzzzzz 


    D. G. A. Smith, L. A. Burns, A. C. Simmonett, R. M. Parrish,
    M. C. Schieber, R. Galvelis, P. Kraus, H. Kruse, R. Di Remigio,
    A. Alenaizan, A. M. James, S. Lehtola, J. P. Misiewicz, M. Scheurer,
    R. A. Shaw, J. B. Schriber, Y. Xie, Z. L. Glick, D. A. Sirianni,
    J. S. O'Brien, J. M. Waldrop, A. Kumar, E. G. Hohenstein,
    B. P. Pritchard, B. R. Brooks, H. F. Schaefer III, A. Yu. Sokolov,
    K. Patkowski, A. E. DePrince III, U. Bozkaya, R. A. King,
    F. A. Evangelista, J. M. Turney, T. D. Crawford, C. D. Sherrill,
    J. Chem. Phys. 152(18) 184108 (2020). https://doi.org/10.1063/5.0006002

                            Additional Code Authors
    E. T. Seidl, C. L. Janssen, E. F. Valeev, M. L. Leininger,
    J. F. Gonthier, R. M. Richard, H. R. McAlexander, M. Saitow, X. Wang,
    P. Verma, M. H. Lechner, A. Jiang, S. Behnle, A. G. Heide,
    M. F. Herbst, and D. L. Poole

             Previous Authors, Complete List of Code Contributors,
                       and Citations for Specific Modules
    https://github.com/psi4/psi4/blob/master/codemeta.json
    https://github.com/psi4/psi4/graphs/contributors
    http://psicode.org/psi4manual/master/introduction.html#citing-psifour

    -----------------------------------------------------------------------


    Psi4 started on: Saturday, 06 January 2024 06:55PM

    Process ID: 552411
    Host:       moses-razer
    PSIDATADIR: /home/kchung25/anaconda3/envs/psi4_19/share/psi4
    Memory:     500.0 MiB
    Threads:    6
    
  ==> Input File <==

--------------------------------------------------------------------------
MEMORY 60 GB

molecule dimer {
1 1
Na     0.000000     0.000000     0.000000
--
0 1
O     -0.180563    -2.182435    -1.037186
H     -0.065729    -2.790783    -0.341971
H      0.562536    -2.355411    -1.643452
O     -2.000451     0.701464     1.294659
H     -2.079251     1.430673     1.914902
H     -2.917867     0.429247     1.133965
O      2.097239    -0.812440     1.323753
H      2.024424    -0.994505     2.233103
H      2.996688    -0.460673     1.257813
O     -1.974202     0.884704    -1.534663
H     -1.703341     1.810095    -1.514027
H     -2.843633     0.881741    -1.122339
O      1.776401     0.618314    -1.270304
H      1.704603     0.388928    -2.211294
H      1.922183     1.547468    -1.244006

units ang
no_reorient
no_com
symmetry c1
}

set {
basis        aug-cc-pVTZ
scf_type     df
}

energy("mp2", bsse_type="cp")
--------------------------------------------------------------------------

  Memory set to  55.879 GiB by Python driver.

Scratch directory: /scratch/

  //>>>>>>>>>>>>>>>>>>>>>>>>>>>>>>>>>>>>>//
  // ManyBody Setup: N-Body Levels [1, 2]//
  //<<<<<<<<<<<<<<<<<<<<<<<<<<<<<<<<<<<<<//

        Number of 1-body computations:     2
        Number of 2-body computations:     1

    -----------------------------------------------------------------------
          Psi4: An Open-Source Ab Initio Electronic Structure Package
                               Psi4 1.9 release

                         Git: Rev {} zzzzzzz 


    D. G. A. Smith, L. A. Burns, A. C. Simmonett, R. M. Parrish,
    M. C. Schieber, R. Galvelis, P. Kraus, H. Kruse, R. Di Remigio,
    A. Alenaizan, A. M. James, S. Lehtola, J. P. Misiewicz, M. Scheurer,
    R. A. Shaw, J. B. Schriber, Y. Xie, Z. L. Glick, D. A. Sirianni,
    J. S. O'Brien, J. M. Waldrop, A. Kumar, E. G. Hohenstein,
    B. P. Pritchard, B. R. Brooks, H. F. Schaefer III, A. Yu. Sokolov,
    K. Patkowski, A. E. DePrince III, U. Bozkaya, R. A. King,
    F. A. Evangelista, J. M. Turney, T. D. Crawford, C. D. Sherrill,
    J. Chem. Phys. 152(18) 184108 (2020). https://doi.org/10.1063/5.0006002

                            Additional Code Authors
    E. T. Seidl, C. L. Janssen, E. F. Valeev, M. L. Leininger,
    J. F. Gonthier, R. M. Richard, H. R. McAlexander, M. Saitow, X. Wang,
    P. Verma, M. H. Lechner, A. Jiang, S. Behnle, A. G. Heide,
    M. F. Herbst, and D. L. Poole

             Previous Authors, Complete List of Code Contributors,
                       and Citations for Specific Modules
    https://github.com/psi4/psi4/blob/master/codemeta.json
    https://github.com/psi4/psi4/graphs/contributors
    http://psicode.org/psi4manual/master/introduction.html#citing-psifour

    -----------------------------------------------------------------------


    Psi4 started on: Saturday, 06 January 2024 06:55PM

    Process ID: 552411
    Host:       moses-razer
    PSIDATADIR: /home/kchung25/anaconda3/envs/psi4_19/share/psi4
    Memory:     55.9 GiB
    Threads:    6
    
  ==> Input QCSchema <==

--------------------------------------------------------------------------
{'driver': 'energy',
 'extras': {'psiapi': True, 'wfn_qcvars_only': True},
 'id': None,
 'keywords': {'SCF_TYPE': 'DF', 'function_kwargs': {}},
 'model': {'basis': 'aug-cc-pvtz', 'method': 'mp2'},
 'molecule': {'atom_labels': ['', '', '', '', '', '', '', '', '', '', '', '', '', '', '', ''],
              'atomic_numbers': [11, 8, 1, 1, 8, 1, 1, 8, 1, 1, 8, 1, 1, 8, 1, 1],
              'extras': {},
              'fix_com': True,
              'fix_orientation': True,
              'fix_symmetry': 'c1',
              'fragment_charges': [0.0, 0.0],
              'fragment_multiplicities': [1, 1],
              'fragments': [[0], [1, 2, 3, 4, 5, 6, 7, 8, 9, 10, 11, 12, 13, 14, 15]],
              'geometry': [0.0, 0.0, 0.0, -0.34121461839104184, -4.124204436613555, -1.9599974811591028,
                           -0.12420980850021758, -5.273815545583574, -0.646231532848939, 1.063038975710545,
                           -4.451081702890749, -3.1056741803359182, -3.7803045173982377, 1.3255748468681499,
                           2.4465509358591064, -3.929214936084315, 2.7035801450871277, 3.6186403370914464,
                           -5.513969500511257, 0.8111592701743964, 2.142883285854786, 3.96320732962905,
                           -1.535289093366958, 2.5015306277531764, 3.8256069218038378, -1.8793420803984373,
                           4.219953079938252, 5.6629196034459675, -0.8705458033930341, 2.3769220870404872,
                           -3.7307010963310954, 1.6718482620970425, -2.900092764873487, -3.2188479882634624,
                           3.4205838110605873, -2.8610963765485393, -5.37368757131402, 1.6662490035873108,
                           -2.120913329920213, 3.356911378989411, 1.1684441195363315, -2.400526656073581,
                           3.2212328226337905, 0.7349674025220622, -4.178740042868143, 3.6323994330109044,
                           2.9242907079099747, -2.3508306384262907],
              'mass_numbers': [23, 16, 1, 1, 16, 1, 1, 16, 1, 1, 16, 1, 1, 16, 1, 1],
              'masses': [22.989769282, 15.99491461957, 1.00782503223, 1.00782503223, 15.99491461957, 1.00782503223,
                         1.00782503223, 15.99491461957, 1.00782503223, 1.00782503223, 15.99491461957, 1.00782503223,
                         1.00782503223, 15.99491461957, 1.00782503223, 1.00782503223],
              'molecular_charge': 0.0,
              'molecular_multiplicity': 1,
              'name': 'dimer',
              'provenance': {'creator': 'QCElemental',
                             'routine': 'qcelemental.molparse.from_string',
                             'version': '0.27.1'},
              'real': [False, True, True, True, True, True, True, True, True, True, True, True, True, True, True, True],
              'schema_name': 'qcschema_molecule',
              'schema_version': 2,
              'symbols': ['Na', 'O', 'H', 'H', 'O', 'H', 'H', 'O', 'H', 'H', 'O', 'H', 'H', 'O', 'H', 'H'],
              'validated': True},
 'protocols': {'stdout': True},
 'provenance': {'creator': 'QCElemental', 'routine': 'qcelemental.models.results', 'version': '0.27.1'},
 'schema_name': 'qcschema_input',
 'schema_version': 1}
--------------------------------------------------------------------------

Scratch directory: /scratch/
   => Libint2 <=

    Primary   basis highest AM E, G, H:  5, 4, 3
    Auxiliary basis highest AM E, G, H:  6, 5, 4
    Onebody   basis highest AM E, G, H:  6, 5, 4
    Solid Harmonics ordering:            gaussian

*** tstart() called on moses-razer
*** at Sat Jan  6 18:55:48 2024

   => Loading Basis Set <=

    Name: AUG-CC-PVTZ
    Role: ORBITAL
    Keyword: BASIS
    atoms 1                            entry NA         line   469 file /home/kchung25/anaconda3/envs/p415env/share/psi4/basis/aug-cc-pvtz.gbs 
    atoms 2, 5, 8, 11, 14              entry O          line   331 file /home/kchung25/anaconda3/envs/p415env/share/psi4/basis/aug-cc-pvtz.gbs 
    atoms 3-4, 6-7, 9-10, 12-13, 15-16 entry H          line    40 file /home/kchung25/anaconda3/envs/p415env/share/psi4/basis/aug-cc-pvtz.gbs 


         ---------------------------------------------------------
                                   SCF
               by Justin Turney, Rob Parrish, Andy Simmonett
                          and Daniel G. A. Smith
                              RHF Reference
                        6 Threads,  57220 MiB Core
         ---------------------------------------------------------

  ==> Geometry <==

    Molecular point group: c1
    Full point group: C1

    Geometry (in Bohr), charge = 0, multiplicity = 1:

       Center              X                  Y                   Z               Mass       
    ------------   -----------------  -----------------  -----------------  -----------------
      Gh(NA)          0.000000000000     0.000000000000     0.000000000000    22.989769282000
         O           -0.341214618391    -4.124204436614    -1.959997481159    15.994914619570
         H           -0.124209808500    -5.273815545584    -0.646231532849     1.007825032230
         H            1.063038975711    -4.451081702891    -3.105674180336     1.007825032230
         O           -3.780304517398     1.325574846868     2.446550935859    15.994914619570
         H           -3.929214936084     2.703580145087     3.618640337091     1.007825032230
         H           -5.513969500511     0.811159270174     2.142883285855     1.007825032230
         O            3.963207329629    -1.535289093367     2.501530627753    15.994914619570
         H            3.825606921804    -1.879342080398     4.219953079938     1.007825032230
         H            5.662919603446    -0.870545803393     2.376922087040     1.007825032230
         O           -3.730701096331     1.671848262097    -2.900092764873    15.994914619570
         H           -3.218847988263     3.420583811061    -2.861096376549     1.007825032230
         H           -5.373687571314     1.666249003587    -2.120913329920     1.007825032230
         O            3.356911378989     1.168444119536    -2.400526656074    15.994914619570
         H            3.221232822634     0.734967402522    -4.178740042868     1.007825032230
         H            3.632399433011     2.924290707910    -2.350830638426     1.007825032230

  Running in c1 symmetry.

  Rotational constants: A =      0.06209  B =      0.03918  C =      0.03544 [cm^-1]
  Rotational constants: A =   1861.45941  B =   1174.61412  C =   1062.46839 [MHz]
  Nuclear repulsion =  183.076794467876169

  Charge       = 0
  Multiplicity = 1
  Electrons    = 50
  Nalpha       = 25
  Nbeta        = 25

  ==> Algorithm <==

  SCF Algorithm Type is DF.
  DIIS enabled.
  MOM disabled.
  Fractional occupation disabled.
  Guess Type is SAD.
  Energy threshold   = 1.00e-08
  Density threshold  = 1.00e-08
  Integral threshold = 1.00e-12

  ==> Primary Basis <==

  Basis Set: AUG-CC-PVTZ
    Blend: AUG-CC-PVTZ
    Number of shells: 176
    Number of basis functions: 510
    Number of Cartesian functions: 584
    Spherical Harmonics?: true
    Max angular momentum: 3

   => Loading Basis Set <=

    Name: (AUG-CC-PVTZ AUX)
    Role: JKFIT
    Keyword: DF_BASIS_SCF
    atoms 1                            entry NA         line   498 file /home/kchung25/anaconda3/envs/p415env/share/psi4/basis/def2-universal-jkfit.gbs 
    atoms 2, 5, 8, 11, 14              entry O          line   286 file /home/kchung25/anaconda3/envs/p415env/share/psi4/basis/aug-cc-pvtz-jkfit.gbs 
    atoms 3-4, 6-7, 9-10, 12-13, 15-16 entry H          line    70 file /home/kchung25/anaconda3/envs/p415env/share/psi4/basis/aug-cc-pvtz-jkfit.gbs 

  ==> Integral Setup <==

  DFHelper Memory: AOs need 1.979 GiB; user supplied 41.910 GiB. 
  Using in-core AOs.

  ==> MemDFJK: Density-Fitted J/K Matrices <==

    J tasked:                   Yes
    K tasked:                   Yes
    wK tasked:                   No
    OpenMP threads:               6
    Memory [MiB]:             42915
    Algorithm:                 Core
    Schwarz Cutoff:           1E-12
    Mask sparsity (%):       9.9108
    Fitting Condition:        1E-10

   => Auxiliary Basis Set <=

  Basis Set: (AUG-CC-PVTZ AUX)
    Blend: AUG-CC-PVTZ-JKFIT + DEF2-UNIVERSAL-JKFIT
    Number of shells: 324
    Number of basis functions: 1092
    Number of Cartesian functions: 1342
    Spherical Harmonics?: true
    Max angular momentum: 4

  Minimum eigenvalue in the overlap matrix is 3.5964932544E-05.
  Reciprocal condition number of the overlap matrix is 2.6913512705E-06.
    Using symmetric orthogonalization.

  ==> Pre-Iterations <==

  SCF Guess: Superposition of Atomic Densities via on-the-fly atomic UHF (no occupation information).

   -------------------------
    Irrep   Nso     Nmo    
   -------------------------
     A        510     510 
   -------------------------
    Total     510     510
   -------------------------

  ==> Iterations <==

                           Total Energy        Delta E     RMS |[F,P]|

   @DF-RHF iter SAD:  -377.47376240215868   -3.77474e+02   0.00000e+00 
   @DF-RHF iter   1:  -379.83457266103710   -2.36081e+00   2.08696e-03 DIIS/ADIIS
   @DF-RHF iter   2:  -380.10460598961583   -2.70033e-01   1.44623e-03 DIIS/ADIIS
   @DF-RHF iter   3:  -380.27546820769703   -1.70862e-01   9.92249e-05 DIIS
   @DF-RHF iter   4:  -380.27762424243889   -2.15603e-03   2.42852e-05 DIIS
   @DF-RHF iter   5:  -380.27776345152677   -1.39209e-04   6.17563e-06 DIIS
   @DF-RHF iter   6:  -380.27777573861601   -1.22871e-05   2.38852e-06 DIIS
   @DF-RHF iter   7:  -380.27777672725023   -9.88634e-07   7.62964e-07 DIIS
   @DF-RHF iter   8:  -380.27777689178606   -1.64536e-07   1.32908e-07 DIIS
   @DF-RHF iter   9:  -380.27777689798768   -6.20162e-09   2.70611e-08 DIIS
   @DF-RHF iter  10:  -380.27777689819089   -2.03215e-10   1.05189e-08 DIIS
   @DF-RHF iter  11:  -380.27777689821011   -1.92131e-11   4.11230e-09 DIIS
  Energy and wave function converged.


  ==> Post-Iterations <==

    Orbital Energies [Eh]
    ---------------------

    Doubly Occupied:                                                      

       1A    -20.552929     2A    -20.538514     3A    -20.537807  
       4A    -20.532183     5A    -20.522688     6A     -1.335698  
       7A     -1.331518     8A     -1.325920     9A     -1.315111  
      10A     -1.312914    11A     -0.700266    12A     -0.694534  
      13A     -0.688761    14A     -0.678173    15A     -0.678084  
      16A     -0.567512    17A     -0.565935    18A     -0.550263  
      19A     -0.546295    20A     -0.539190    21A     -0.501941  
      22A     -0.482308    23A     -0.482003    24A     -0.465833  
      25A     -0.464136  

    Virtual:                                                              

      26A      0.008925    27A      0.015914    28A      0.017609  
      29A      0.020346    30A      0.046086    31A      0.050911  
      32A      0.053685    33A      0.056113    34A      0.057798  
      35A      0.061598    36A      0.061707    37A      0.066906  
      38A      0.073222    39A      0.076729    40A      0.079863  
      41A      0.081569    42A      0.087091    43A      0.092904  
      44A      0.102147    45A      0.111951    46A      0.120780  
      47A      0.126768    48A      0.130762    49A      0.159657  
      50A      0.161917    51A      0.168812    52A      0.172492  
      53A      0.181727    54A      0.185276    55A      0.190420  
      56A      0.192400    57A      0.199177    58A      0.209192  
      59A      0.213161    60A      0.216471    61A      0.221584  
      62A      0.224249    63A      0.226019    64A      0.233077  
      65A      0.239158    66A      0.245085    67A      0.251517  
      68A      0.259801    69A      0.265222    70A      0.284666  
      71A      0.290077    72A      0.301052    73A      0.306310  
      74A      0.311405    75A      0.311574    76A      0.320337  
      77A      0.332168    78A      0.338841    79A      0.341316  
      80A      0.351873    81A      0.357585    82A      0.361090  
      83A      0.372053    84A      0.376083    85A      0.379731  
      86A      0.386665    87A      0.387954    88A      0.398121  
      89A      0.409510    90A      0.420526    91A      0.427093  
      92A      0.433654    93A      0.442287    94A      0.443581  
      95A      0.453361    96A      0.453645    97A      0.460288  
      98A      0.464327    99A      0.469889   100A      0.472950  
     101A      0.477898   102A      0.482112   103A      0.485180  
     104A      0.486352   105A      0.490414   106A      0.498682  
     107A      0.504219   108A      0.506030   109A      0.509244  
     110A      0.511576   111A      0.515031   112A      0.526043  
     113A      0.526756   114A      0.529948   115A      0.540846  
     116A      0.546918   117A      0.551045   118A      0.561728  
     119A      0.574638   120A      0.579111   121A      0.588150  
     122A      0.604837   123A      0.616173   124A      0.630381  
     125A      0.649057   126A      0.662323   127A      0.671919  
     128A      0.688557   129A      0.704610   130A      0.715661  
     131A      0.718491   132A      0.726775   133A      0.739400  
     134A      0.746151   135A      0.753341   136A      0.762522  
     137A      0.778193   138A      0.788261   139A      0.799503  
     140A      0.803221   141A      0.827800   142A      0.829986  
     143A      0.842743   144A      0.846854   145A      0.857858  
     146A      0.863649   147A      0.872213   148A      0.878496  
     149A      0.902756   150A      0.908814   151A      0.918838  
     152A      0.921564   153A      0.928451   154A      0.930631  
     155A      0.935221   156A      0.947741   157A      0.953350  
     158A      0.955589   159A      0.963303   160A      0.967924  
     161A      0.980218   162A      0.984621   163A      0.986762  
     164A      0.991154   165A      0.995303   166A      1.006287  
     167A      1.009715   168A      1.013046   169A      1.016459  
     170A      1.026839   171A      1.033055   172A      1.038072  
     173A      1.039734   174A      1.044326   175A      1.055622  
     176A      1.058574   177A      1.063430   178A      1.065452  
     179A      1.069763   180A      1.088142   181A      1.100470  
     182A      1.101510   183A      1.107576   184A      1.114051  
     185A      1.121172   186A      1.124731   187A      1.131120  
     188A      1.132909   189A      1.140400   190A      1.148505  
     191A      1.159276   192A      1.164336   193A      1.175966  
     194A      1.185464   195A      1.188790   196A      1.199963  
     197A      1.208591   198A      1.223220   199A      1.225013  
     200A      1.233141   201A      1.242943   202A      1.251759  
     203A      1.255742   204A      1.269101   205A      1.274226  
     206A      1.284741   207A      1.288026   208A      1.299957  
     209A      1.305334   210A      1.313098   211A      1.319704  
     212A      1.337727   213A      1.340240   214A      1.346495  
     215A      1.351834   216A      1.358062   217A      1.376744  
     218A      1.387421   219A      1.404697   220A      1.410967  
     221A      1.428459   222A      1.437393   223A      1.449268  
     224A      1.465349   225A      1.472194   226A      1.484952  
     227A      1.491454   228A      1.500415   229A      1.519811  
     230A      1.533405   231A      1.550091   232A      1.580379  
     233A      1.593831   234A      1.609416   235A      1.636442  
     236A      1.647239   237A      1.659856   238A      1.683750  
     239A      1.689204   240A      1.700005   241A      1.715046  
     242A      1.719844   243A      1.732726   244A      1.748827  
     245A      1.759052   246A      1.772019   247A      1.782578  
     248A      1.809672   249A      1.826753   250A      1.838352  
     251A      1.864312   252A      1.877322   253A      1.894944  
     254A      1.895257   255A      1.907826   256A      1.913219  
     257A      1.932605   258A      1.943620   259A      1.957978  
     260A      1.967208   261A      2.023539   262A      2.041403  
     263A      2.062087   264A      2.081847   265A      2.088465  
     266A      2.101952   267A      2.108432   268A      2.124580  
     269A      2.142516   270A      2.179959   271A      2.209762  
     272A      2.228911   273A      2.236223   274A      2.249260  
     275A      2.278171   276A      2.377223   277A      2.392197  
     278A      2.395463   279A      2.406324   280A      2.417736  
     281A      2.424861   282A      2.443811   283A      2.460353  
     284A      2.477193   285A      2.497098   286A      2.508934  
     287A      2.516530   288A      2.534150   289A      2.545792  
     290A      2.554091   291A      2.571312   292A      2.576706  
     293A      2.590962   294A      2.600980   295A      2.613491  
     296A      2.630392   297A      2.637314   298A      2.645744  
     299A      2.660098   300A      2.671869   301A      2.680915  
     302A      2.696913   303A      2.715603   304A      2.721464  
     305A      2.758956   306A      2.760646   307A      2.776132  
     308A      2.786957   309A      2.795053   310A      2.803763  
     311A      2.821041   312A      2.836952   313A      2.845536  
     314A      2.860161   315A      2.868082   316A      2.877065  
     317A      2.893081   318A      2.897045   319A      2.904921  
     320A      2.919156   321A      2.930003   322A      2.942287  
     323A      2.945439   324A      2.968230   325A      2.982121  
     326A      2.984577   327A      2.988679   328A      3.005597  
     329A      3.015812   330A      3.032758   331A      3.040374  
     332A      3.065002   333A      3.081548   334A      3.094602  
     335A      3.128981   336A      3.793279   337A      3.846933  
     338A      3.863445   339A      3.871283   340A      3.888764  
     341A      3.900925   342A      3.919963   343A      3.936771  
     344A      3.949766   345A      3.972875   346A      4.089216  
     347A      4.121499   348A      4.144600   349A      4.166459  
     350A      4.174736   351A      4.233880   352A      4.242401  
     353A      4.261173   354A      4.283480   355A      4.290396  
     356A      4.295814   357A      4.318597   358A      4.341561  
     359A      4.343829   360A      4.351530   361A      4.360822  
     362A      4.369181   363A      4.375084   364A      4.398208  
     365A      4.411165   366A      4.423890   367A      4.427924  
     368A      4.474691   369A      4.492517   370A      4.505671  
     371A      4.525799   372A      4.539519   373A      4.542817  
     374A      4.554819   375A      4.564030   376A      4.567651  
     377A      4.570104   378A      4.592701   379A      4.593438  
     380A      4.599074   381A      4.619638   382A      4.623759  
     383A      4.640164   384A      4.645236   385A      4.653954  
     386A      4.678575   387A      4.701692   388A      4.715134  
     389A      4.728990   390A      4.752315   391A      4.857855  
     392A      4.871446   393A      4.876278   394A      4.892957  
     395A      4.910008   396A      4.918137   397A      4.939921  
     398A      4.964092   399A      4.980786   400A      4.992788  
     401A      5.156875   402A      5.196486   403A      5.208189  
     404A      5.222744   405A      5.229946   406A      5.239119  
     407A      5.251096   408A      5.255086   409A      5.263209  
     410A      5.269945   411A      5.316980   412A      5.338057  
     413A      5.341320   414A      5.367839   415A      5.375045  
     416A      5.398497   417A      5.423540   418A      5.452898  
     419A      5.488074   420A      5.499183   421A      5.586961  
     422A      5.615447   423A      5.627434   424A      5.636929  
     425A      5.667848   426A      5.736123   427A      5.806132  
     428A      5.818807   429A      5.846595   430A      5.860592  
     431A      5.950802   432A      6.293355   433A      6.326198  
     434A      6.335121   435A      6.365106   436A      6.389977  
     437A      6.619300   438A      6.644053   439A      6.657983  
     440A      6.678458   441A      6.693778   442A      6.784164  
     443A      6.802596   444A      6.823114   445A      6.850039  
     446A      6.880791   447A      6.962292   448A      6.988021  
     449A      7.015488   450A      7.024433   451A      7.039366  
     452A      7.090322   453A      7.163484   454A      7.210265  
     455A      7.215477   456A      7.254904   457A      7.272056  
     458A      7.289139   459A      7.350203   460A      7.353564  
     461A      7.356569   462A      7.370773   463A      7.380609  
     464A      7.388968   465A      7.397489   466A      7.403340  
     467A      7.414697   468A      7.419225   469A      7.426446  
     470A      7.432825   471A      7.434533   472A      7.450401  
     473A      7.456679   474A      7.462717   475A      7.471598  
     476A      7.481527   477A      7.492758   478A      7.510527  
     479A      7.537279   480A      7.541828   481A      7.555976  
     482A      7.583998   483A      7.593183   484A      7.684453  
     485A      7.693929   486A      7.719275   487A      7.723937  
     488A      7.772643   489A      7.824092   490A      7.938559  
     491A      7.945679   492A      7.973362   493A      7.983383  
     494A      7.987327   495A      8.027223   496A      8.042174  
     497A      8.052715   498A      8.080081   499A      8.091853  
     500A      8.886109   501A      8.902520   502A      8.923453  
     503A      8.946596   504A      8.986032   505A     15.967715  
     506A     16.156350   507A     16.404843   508A     16.456876  
     509A     16.538049   510A     64.965828  

    Final Occupation by Irrep:
              A 
    DOCC [    25 ]
    NA   [    25 ]
    NB   [    25 ]

  @DF-RHF Final Energy:  -380.27777689821011

   => Energetics <=

    Nuclear Repulsion Energy =            183.0767944678761694
    One-Electron Energy =                -890.8881081505451220
    Two-Electron Energy =                 327.5335367844588177
    Total Energy =                       -380.2777768982101065

Computation Completed


Properties will be evaluated at   0.000000,   0.000000,   0.000000 [a0]

Properties computed using the SCF density matrix


 Multipole Moments:

 ------------------------------------------------------------------------------------
     Multipole            Electronic (a.u.)      Nuclear  (a.u.)        Total (a.u.)
 ------------------------------------------------------------------------------------

 L = 1.  Multiply by 2.5417464519 to convert [e a0] to [Debye]
 Dipole X            :          5.1578018           -5.0115442            0.1462576
 Dipole Y            :         13.1166119          -12.1629652            0.9536467
 Dipole Z            :         22.0725640          -21.4053700            0.6671940
 Magnitude           :                                                    1.1730222

 ------------------------------------------------------------------------------------

*** tstop() called on moses-razer at Sat Jan  6 18:55:58 2024
Module time:
	user time   =      48.48 seconds =       0.81 minutes
	system time =       1.87 seconds =       0.03 minutes
	total time  =         10 seconds =       0.17 minutes
Total time:
	user time   =      48.48 seconds =       0.81 minutes
	system time =       1.87 seconds =       0.03 minutes
	total time  =         10 seconds =       0.17 minutes

*** tstart() called on moses-razer
*** at Sat Jan  6 18:55:58 2024


  //>>>>>>>>>>>>>>>>>>>>>>>>>>>>>>>>>>>//
  //               DFMP2               //
  //<<<<<<<<<<<<<<<<<<<<<<<<<<<<<<<<<<<//

   => Loading Basis Set <=

    Name: (AUG-CC-PVTZ AUX)
    Role: RIFIT
    Keyword: DF_BASIS_MP2
    atoms 1                            entry NA         line   610 file /home/kchung25/anaconda3/envs/p415env/share/psi4/basis/def2-qzvpp-ri.gbs 
    atoms 2, 5, 8, 11, 14              entry O          line   264 file /home/kchung25/anaconda3/envs/p415env/share/psi4/basis/aug-cc-pvtz-ri.gbs 
    atoms 3-4, 6-7, 9-10, 12-13, 15-16 entry H          line    30 file /home/kchung25/anaconda3/envs/p415env/share/psi4/basis/aug-cc-pvtz-ri.gbs 

	 --------------------------------------------------------
	                          DF-MP2                         
	      2nd-Order Density-Fitted Moller-Plesset Theory     
	              RMP2 Wavefunction,   6 Threads             
	                                                         
	        Rob Parrish, Justin Turney, Andy Simmonett,      
	           Ed Hohenstein, and C. David Sherrill          
	 --------------------------------------------------------

   => Auxiliary Basis Set <=

  Basis Set: (AUG-CC-PVTZ AUX)
    Blend: AUG-CC-PVTZ-RI + DEF2-QZVPP-RI
    Number of shells: 322
    Number of basis functions: 1156
    Number of Cartesian functions: 1444
    Spherical Harmonics?: true
    Max angular momentum: 4

	 --------------------------------------------------------
	                 NBF =   510, NAUX =  1156
	 --------------------------------------------------------
	   CLASS    FOCC     OCC    AOCC    AVIR     VIR    FVIR
	   PAIRS       0      25      25     485     485       0
	 --------------------------------------------------------

	-----------------------------------------------------------
	 ==================> DF-MP2 Energies <==================== 
	-----------------------------------------------------------
	 Reference Energy          =    -380.2777768982101065 [Eh]
	 Singles Energy            =      -0.0000000000000000 [Eh]
	 Same-Spin Energy          =      -0.3449660551804264 [Eh]
	 Opposite-Spin Energy      =      -1.0828768383435714 [Eh]
	 Correlation Energy        =      -1.4278428935239977 [Eh]
	 Total Energy              =    -381.7056197917340796 [Eh]
	-----------------------------------------------------------
	 ================> DF-SCS-MP2 Energies <================== 
	-----------------------------------------------------------
	 SCS Same-Spin Scale       =       0.3333333333333333 [-]
	 SCS Opposite-Spin Scale   =       1.2000000000000000 [-]
	 SCS Same-Spin Energy      =      -0.1149886850601421 [Eh]
	 SCS Opposite-Spin Energy  =      -1.2994522060122857 [Eh]
	 SCS Correlation Energy    =      -1.4144408910724278 [Eh]
	 SCS Total Energy          =    -381.6922177892825516 [Eh]
	-----------------------------------------------------------


*** tstop() called on moses-razer at Sat Jan  6 18:56:03 2024
Module time:
	user time   =      20.50 seconds =       0.34 minutes
	system time =       1.17 seconds =       0.02 minutes
	total time  =          5 seconds =       0.08 minutes
Total time:
	user time   =      68.98 seconds =       1.15 minutes
	system time =       3.04 seconds =       0.05 minutes
	total time  =         15 seconds =       0.25 minutes

    Psi4 stopped on: Saturday, 06 January 2024 06:56PM
    Psi4 wall time for execution: 0:00:14.59


    -----------------------------------------------------------------------
          Psi4: An Open-Source Ab Initio Electronic Structure Package
                               Psi4 1.9 release

                         Git: Rev {} zzzzzzz 


    D. G. A. Smith, L. A. Burns, A. C. Simmonett, R. M. Parrish,
    M. C. Schieber, R. Galvelis, P. Kraus, H. Kruse, R. Di Remigio,
    A. Alenaizan, A. M. James, S. Lehtola, J. P. Misiewicz, M. Scheurer,
    R. A. Shaw, J. B. Schriber, Y. Xie, Z. L. Glick, D. A. Sirianni,
    J. S. O'Brien, J. M. Waldrop, A. Kumar, E. G. Hohenstein,
    B. P. Pritchard, B. R. Brooks, H. F. Schaefer III, A. Yu. Sokolov,
    K. Patkowski, A. E. DePrince III, U. Bozkaya, R. A. King,
    F. A. Evangelista, J. M. Turney, T. D. Crawford, C. D. Sherrill,
    J. Chem. Phys. 152(18) 184108 (2020). https://doi.org/10.1063/5.0006002

                            Additional Code Authors
    E. T. Seidl, C. L. Janssen, E. F. Valeev, M. L. Leininger,
    J. F. Gonthier, R. M. Richard, H. R. McAlexander, M. Saitow, X. Wang,
    P. Verma, M. H. Lechner, A. Jiang, S. Behnle, A. G. Heide,
    M. F. Herbst, and D. L. Poole

             Previous Authors, Complete List of Code Contributors,
                       and Citations for Specific Modules
    https://github.com/psi4/psi4/blob/master/codemeta.json
    https://github.com/psi4/psi4/graphs/contributors
    http://psicode.org/psi4manual/master/introduction.html#citing-psifour

    -----------------------------------------------------------------------


    Psi4 started on: Saturday, 06 January 2024 06:55PM

    Process ID: 552411
    Host:       moses-razer
    PSIDATADIR: /home/kchung25/anaconda3/envs/psi4_19/share/psi4
    Memory:     55.9 GiB
    Threads:    6
    
  ==> Input QCSchema <==

--------------------------------------------------------------------------
{'driver': 'energy',
 'extras': {'psiapi': True, 'wfn_qcvars_only': True},
 'id': None,
 'keywords': {'SCF_TYPE': 'DF', 'function_kwargs': {}},
 'model': {'basis': 'aug-cc-pvtz', 'method': 'mp2'},
 'molecule': {'atom_labels': ['', '', '', '', '', '', '', '', '', '', '', '', '', '', '', ''],
              'atomic_numbers': [11, 8, 1, 1, 8, 1, 1, 8, 1, 1, 8, 1, 1, 8, 1, 1],
              'extras': {},
              'fix_com': True,
              'fix_orientation': True,
              'fix_symmetry': 'c1',
              'fragment_charges': [1.0, 0.0],
              'fragment_multiplicities': [1, 1],
              'fragments': [[0], [1, 2, 3, 4, 5, 6, 7, 8, 9, 10, 11, 12, 13, 14, 15]],
              'geometry': [0.0, 0.0, 0.0, -0.34121461839104184, -4.124204436613555, -1.9599974811591028,
                           -0.12420980850021758, -5.273815545583574, -0.646231532848939, 1.063038975710545,
                           -4.451081702890749, -3.1056741803359182, -3.7803045173982377, 1.3255748468681499,
                           2.4465509358591064, -3.929214936084315, 2.7035801450871277, 3.6186403370914464,
                           -5.513969500511257, 0.8111592701743964, 2.142883285854786, 3.96320732962905,
                           -1.535289093366958, 2.5015306277531764, 3.8256069218038378, -1.8793420803984373,
                           4.219953079938252, 5.6629196034459675, -0.8705458033930341, 2.3769220870404872,
                           -3.7307010963310954, 1.6718482620970425, -2.900092764873487, -3.2188479882634624,
                           3.4205838110605873, -2.8610963765485393, -5.37368757131402, 1.6662490035873108,
                           -2.120913329920213, 3.356911378989411, 1.1684441195363315, -2.400526656073581,
                           3.2212328226337905, 0.7349674025220622, -4.178740042868143, 3.6323994330109044,
                           2.9242907079099747, -2.3508306384262907],
              'mass_numbers': [23, 16, 1, 1, 16, 1, 1, 16, 1, 1, 16, 1, 1, 16, 1, 1],
              'masses': [22.989769282, 15.99491461957, 1.00782503223, 1.00782503223, 15.99491461957, 1.00782503223,
                         1.00782503223, 15.99491461957, 1.00782503223, 1.00782503223, 15.99491461957, 1.00782503223,
                         1.00782503223, 15.99491461957, 1.00782503223, 1.00782503223],
              'molecular_charge': 1.0,
              'molecular_multiplicity': 1,
              'name': 'dimer',
              'provenance': {'creator': 'QCElemental',
                             'routine': 'qcelemental.molparse.from_string',
                             'version': '0.27.1'},
              'real': [True, False, False, False, False, False, False, False, False, False, False, False, False, False,
                       False, False],
              'schema_name': 'qcschema_molecule',
              'schema_version': 2,
              'symbols': ['Na', 'O', 'H', 'H', 'O', 'H', 'H', 'O', 'H', 'H', 'O', 'H', 'H', 'O', 'H', 'H'],
              'validated': True},
 'protocols': {'stdout': True},
 'provenance': {'creator': 'QCElemental', 'routine': 'qcelemental.models.results', 'version': '0.27.1'},
 'schema_name': 'qcschema_input',
 'schema_version': 1}
--------------------------------------------------------------------------

Scratch directory: /scratch/
   => Libint2 <=

    Primary   basis highest AM E, G, H:  5, 4, 3
    Auxiliary basis highest AM E, G, H:  6, 5, 4
    Onebody   basis highest AM E, G, H:  6, 5, 4
    Solid Harmonics ordering:            gaussian

*** tstart() called on moses-razer
*** at Sat Jan  6 18:56:03 2024

   => Loading Basis Set <=

    Name: AUG-CC-PVTZ
    Role: ORBITAL
    Keyword: BASIS
    atoms 1                            entry NA         line   469 file /home/kchung25/anaconda3/envs/p415env/share/psi4/basis/aug-cc-pvtz.gbs 
    atoms 2, 5, 8, 11, 14              entry O          line   331 file /home/kchung25/anaconda3/envs/p415env/share/psi4/basis/aug-cc-pvtz.gbs 
    atoms 3-4, 6-7, 9-10, 12-13, 15-16 entry H          line    40 file /home/kchung25/anaconda3/envs/p415env/share/psi4/basis/aug-cc-pvtz.gbs 


         ---------------------------------------------------------
                                   SCF
               by Justin Turney, Rob Parrish, Andy Simmonett
                          and Daniel G. A. Smith
                              RHF Reference
                        6 Threads,  57220 MiB Core
         ---------------------------------------------------------

  ==> Geometry <==

    Molecular point group: c1
    Full point group: C1

    Geometry (in Bohr), charge = 1, multiplicity = 1:

       Center              X                  Y                   Z               Mass       
    ------------   -----------------  -----------------  -----------------  -----------------
         NA           0.000000000000     0.000000000000     0.000000000000    22.989769282000
      Gh(O)          -0.341214618391    -4.124204436614    -1.959997481159    15.994914619570
      Gh(H)          -0.124209808500    -5.273815545584    -0.646231532849     1.007825032230
      Gh(H)           1.063038975711    -4.451081702891    -3.105674180336     1.007825032230
      Gh(O)          -3.780304517398     1.325574846868     2.446550935859    15.994914619570
      Gh(H)          -3.929214936084     2.703580145087     3.618640337091     1.007825032230
      Gh(H)          -5.513969500511     0.811159270174     2.142883285855     1.007825032230
      Gh(O)           3.963207329629    -1.535289093367     2.501530627753    15.994914619570
      Gh(H)           3.825606921804    -1.879342080398     4.219953079938     1.007825032230
      Gh(H)           5.662919603446    -0.870545803393     2.376922087040     1.007825032230
      Gh(O)          -3.730701096331     1.671848262097    -2.900092764873    15.994914619570
      Gh(H)          -3.218847988263     3.420583811061    -2.861096376549     1.007825032230
      Gh(H)          -5.373687571314     1.666249003587    -2.120913329920     1.007825032230
      Gh(O)           3.356911378989     1.168444119536    -2.400526656074    15.994914619570
      Gh(H)           3.221232822634     0.734967402522    -4.178740042868     1.007825032230
      Gh(H)           3.632399433011     2.924290707910    -2.350830638426     1.007825032230

  Running in c1 symmetry.

  Rotational constants: A =      0.06209  B =      0.03918  C =      0.03544 [cm^-1]
  Rotational constants: A =   1861.45941  B =   1174.61412  C =   1062.46839 [MHz]
  Nuclear repulsion =    0.000000000000000

  Charge       = 1
  Multiplicity = 1
  Electrons    = 10
  Nalpha       = 5
  Nbeta        = 5

  ==> Algorithm <==

  SCF Algorithm Type is DF.
  DIIS enabled.
  MOM disabled.
  Fractional occupation disabled.
  Guess Type is SAD.
  Energy threshold   = 1.00e-08
  Density threshold  = 1.00e-08
  Integral threshold = 1.00e-12

  ==> Primary Basis <==

  Basis Set: AUG-CC-PVTZ
    Blend: AUG-CC-PVTZ
    Number of shells: 176
    Number of basis functions: 510
    Number of Cartesian functions: 584
    Spherical Harmonics?: true
    Max angular momentum: 3

   => Loading Basis Set <=

    Name: (AUG-CC-PVTZ AUX)
    Role: JKFIT
    Keyword: DF_BASIS_SCF
    atoms 1                            entry NA         line   498 file /home/kchung25/anaconda3/envs/p415env/share/psi4/basis/def2-universal-jkfit.gbs 
    atoms 2, 5, 8, 11, 14              entry O          line   286 file /home/kchung25/anaconda3/envs/p415env/share/psi4/basis/aug-cc-pvtz-jkfit.gbs 
    atoms 3-4, 6-7, 9-10, 12-13, 15-16 entry H          line    70 file /home/kchung25/anaconda3/envs/p415env/share/psi4/basis/aug-cc-pvtz-jkfit.gbs 

  ==> Integral Setup <==

  DFHelper Memory: AOs need 1.979 GiB; user supplied 41.910 GiB. 
  Using in-core AOs.

  ==> MemDFJK: Density-Fitted J/K Matrices <==

    J tasked:                   Yes
    K tasked:                   Yes
    wK tasked:                   No
    OpenMP threads:               6
    Memory [MiB]:             42915
    Algorithm:                 Core
    Schwarz Cutoff:           1E-12
    Mask sparsity (%):       9.9108
    Fitting Condition:        1E-10

   => Auxiliary Basis Set <=

  Basis Set: (AUG-CC-PVTZ AUX)
    Blend: AUG-CC-PVTZ-JKFIT + DEF2-UNIVERSAL-JKFIT
    Number of shells: 324
    Number of basis functions: 1092
    Number of Cartesian functions: 1342
    Spherical Harmonics?: true
    Max angular momentum: 4

  Minimum eigenvalue in the overlap matrix is 3.5964932544E-05.
  Reciprocal condition number of the overlap matrix is 2.6913512705E-06.
    Using symmetric orthogonalization.

  ==> Pre-Iterations <==

  SCF Guess: Superposition of Atomic Densities via on-the-fly atomic UHF (no occupation information).

   -------------------------
    Irrep   Nso     Nmo    
   -------------------------
     A        510     510 
   -------------------------
    Total     510     510
   -------------------------

  ==> Iterations <==

                           Total Energy        Delta E     RMS |[F,P]|

   @DF-RHF iter SAD:  -161.74574095064153   -1.61746e+02   0.00000e+00 
   @DF-RHF iter   1:  -161.67606923502706    6.96717e-02   1.23780e-05 DIIS
   @DF-RHF iter   2:  -161.67608750502004   -1.82700e-05   2.32890e-06 DIIS
   @DF-RHF iter   3:  -161.67608800773544   -5.02715e-07   1.19421e-07 DIIS
   @DF-RHF iter   4:  -161.67608800874905   -1.01360e-09   1.45242e-08 DIIS
   @DF-RHF iter   5:  -161.67608800876451   -1.54614e-11   5.65631e-10 DIIS
  Energy and wave function converged.


  ==> Post-Iterations <==

    Orbital Energies [Eh]
    ---------------------

    Doubly Occupied:                                                      

       1A    -40.760493     2A     -3.073821     3A     -1.797168  
       4A     -1.797166     5A     -1.797136  

    Virtual:                                                              

       6A     -0.181806     7A     -0.109438     8A     -0.109433  
       9A     -0.109431    10A     -0.070074    11A     -0.052629  
      12A     -0.052132    13A     -0.051877    14A     -0.051436  
      15A     -0.051195    16A     -0.049263    17A     -0.049228  
      18A     -0.049187    19A     -0.026610    20A     -0.014646  
      21A     -0.012942    22A     -0.012296    23A     -0.010653  
      24A     -0.007409    25A     -0.006912    26A     -0.004323  
      27A     -0.002139    28A      0.000813    29A      0.007918  
      30A      0.012081    31A      0.016367    32A      0.018535  
      33A      0.027025    34A      0.032078    35A      0.037530  
      36A      0.044233    37A      0.050851    38A      0.053754  
      39A      0.065835    40A      0.073022    41A      0.076764  
      42A      0.079122    43A      0.082305    44A      0.085134  
      45A      0.091157    46A      0.096518    47A      0.098783  
      48A      0.104474    49A      0.110451    50A      0.118081  
      51A      0.120695    52A      0.125390    53A      0.129594  
      54A      0.137474    55A      0.145476    56A      0.148969  
      57A      0.164818    58A      0.175236    59A      0.181843  
      60A      0.186007    61A      0.197994    62A      0.202118  
      63A      0.209087    64A      0.209216    65A      0.219524  
      66A      0.221937    67A      0.224625    68A      0.233071  
      69A      0.238133    70A      0.242726    71A      0.246452  
      72A      0.253426    73A      0.262633    74A      0.263718  
      75A      0.270820    76A      0.276830    77A      0.279303  
      78A      0.286902    79A      0.289178    80A      0.294218  
      81A      0.297657    82A      0.301921    83A      0.307370  
      84A      0.312170    85A      0.314451    86A      0.324282  
      87A      0.326178    88A      0.328589    89A      0.338708  
      90A      0.341247    91A      0.341864    92A      0.346144  
      93A      0.348920    94A      0.359881    95A      0.361668  
      96A      0.368206    97A      0.369324    98A      0.386184  
      99A      0.392889   100A      0.397990   101A      0.403365  
     102A      0.405844   103A      0.421268   104A      0.429074  
     105A      0.446607   106A      0.453298   107A      0.460815  
     108A      0.472347   109A      0.482293   110A      0.489587  
     111A      0.495616   112A      0.512255   113A      0.534115  
     114A      0.548240   115A      0.552497   116A      0.563159  
     117A      0.575819   118A      0.582129   119A      0.597762  
     120A      0.601483   121A      0.613247   122A      0.619011  
     123A      0.625730   124A      0.634311   125A      0.647707  
     126A      0.653922   127A      0.663331   128A      0.674117  
     129A      0.681782   130A      0.691933   131A      0.698782  
     132A      0.703484   133A      0.710338   134A      0.716687  
     135A      0.724592   136A      0.728105   137A      0.742229  
     138A      0.746461   139A      0.755202   140A      0.766083  
     141A      0.768852   142A      0.776782   143A      0.783688  
     144A      0.794737   145A      0.806025   146A      0.809049  
     147A      0.812844   148A      0.823376   149A      0.825551  
     150A      0.832049   151A      0.840861   152A      0.845636  
     153A      0.854914   154A      0.857908   155A      0.862447  
     156A      0.873840   157A      0.880168   158A      0.889480  
     159A      0.896925   160A      0.910486   161A      0.917149  
     162A      0.921844   163A      0.930751   164A      0.933902  
     165A      0.939224   166A      0.951323   167A      0.953661  
     168A      0.959880   169A      0.966429   170A      0.971276  
     171A      0.977263   172A      0.989503   173A      0.994089  
     174A      1.009674   175A      1.010814   176A      1.021286  
     177A      1.027243   178A      1.031955   179A      1.040718  
     180A      1.058350   181A      1.064494   182A      1.068215  
     183A      1.073497   184A      1.085196   185A      1.092016  
     186A      1.096942   187A      1.118684   188A      1.119307  
     189A      1.133335   190A      1.139256   191A      1.141404  
     192A      1.146540   193A      1.156085   194A      1.163772  
     195A      1.169395   196A      1.173170   197A      1.180126  
     198A      1.200089   199A      1.208472   200A      1.217950  
     201A      1.225377   202A      1.238632   203A      1.242398  
     204A      1.255381   205A      1.268328   206A      1.275355  
     207A      1.280308   208A      1.303757   209A      1.319885  
     210A      1.325778   211A      1.341907   212A      1.351884  
     213A      1.387559   214A      1.401666   215A      1.414649  
     216A      1.422759   217A      1.448829   218A      1.459505  
     219A      1.482724   220A      1.494925   221A      1.502816  
     222A      1.523984   223A      1.550045   224A      1.579946  
     225A      1.613751   226A      1.635112   227A      1.649781  
     228A      1.654664   229A      1.663485   230A      1.677175  
     231A      1.688782   232A      1.704249   233A      1.705898  
     234A      1.713584   235A      1.726763   236A      1.732251  
     237A      1.743835   238A      1.753064   239A      1.760396  
     240A      1.779230   241A      1.792202   242A      1.798039  
     243A      1.803233   244A      1.823966   245A      1.838511  
     246A      1.856217   247A      1.870265   248A      1.890806  
     249A      1.905979   250A      1.921124   251A      1.928527  
     252A      1.941181   253A      1.969627   254A      1.976780  
     255A      2.184394   256A      2.231894   257A      2.250398  
     258A      2.269760   259A      2.278188   260A      2.288729  
     261A      2.294507   262A      2.332562   263A      2.335484  
     264A      2.341287   265A      2.358779   266A      2.372000  
     267A      2.388640   268A      2.400641   269A      2.402874  
     270A      2.410109   271A      2.425486   272A      2.428799  
     273A      2.436620   274A      2.443041   275A      2.462278  
     276A      2.477261   277A      2.490404   278A      2.514665  
     279A      2.516994   280A      2.535617   281A      2.555767  
     282A      2.560042   283A      2.568196   284A      2.605782  
     285A      2.612632   286A      2.629182   287A      2.672995  
     288A      2.680630   289A      2.697037   290A      2.710549  
     291A      2.720967   292A      2.728850   293A      2.742167  
     294A      2.753884   295A      2.789831   296A      2.807914  
     297A      2.831216   298A      2.857170   299A      2.905321  
     300A      3.017322   301A      3.030679   302A      3.033125  
     303A      3.042649   304A      3.060529   305A      3.066426  
     306A      3.071995   307A      3.083613   308A      3.084878  
     309A      3.103005   310A      3.127634   311A      3.151215  
     312A      3.155636   313A      3.172576   314A      3.181061  
     315A      3.182323   316A      3.193701   317A      3.196710  
     318A      3.205247   319A      3.215523   320A      3.230388  
     321A      3.242083   322A      3.255065   323A      3.265976  
     324A      3.294788   325A      3.324041   326A      3.398432  
     327A      3.428101   328A      3.465095   329A      3.486502  
     330A      3.521450   331A      3.537179   332A      3.553782  
     333A      3.568124   334A      3.583947   335A      3.599370  
     336A      4.224681   337A      4.237566   338A      4.263371  
     339A      4.272528   340A      4.294915   341A      4.341756  
     342A      4.353963   343A      4.371350   344A      4.385907  
     345A      4.390193   346A      4.398917   347A      4.409122  
     348A      4.419545   349A      4.437357   350A      4.486531  
     351A      4.499174   352A      4.505921   353A      4.513969  
     354A      4.523695   355A      4.542549   356A      4.550418  
     357A      4.562471   358A      4.574131   359A      4.598326  
     360A      4.602072   361A      4.611127   362A      4.624629  
     363A      4.649783   364A      4.667491   365A      4.683673  
     366A      4.781795   367A      4.807883   368A      4.810893  
     369A      4.843146   370A      4.848548   371A      4.862009  
     372A      4.869646   373A      4.882359   374A      4.892475  
     375A      4.905283   376A      4.936681   377A      4.948778  
     378A      4.965813   379A      4.976958   380A      5.030422  
     381A      5.051810   382A      5.061361   383A      5.097750  
     384A      5.112988   385A      5.165311   386A      5.361177  
     387A      5.370176   388A      5.382935   389A      5.393883  
     390A      5.439103   391A      5.449471   392A      5.459818  
     393A      5.471828   394A      5.473559   395A      5.486410  
     396A      5.500188   397A      5.548982   398A      5.571854  
     399A      5.590772   400A      5.628469   401A      5.693888  
     402A      5.722542   403A      5.731512   404A      5.766641  
     405A      5.783006   406A      5.995187   407A      6.032437  
     408A      6.067417   409A      6.092262   410A      6.108772  
     411A      6.238262   412A      6.245708   413A      6.270969  
     414A      6.277383   415A      6.319399   416A      6.510877  
     417A      6.525569   418A      6.538123   419A      6.570194  
     420A      6.575851   421A      6.903017   422A      6.912213  
     423A      6.928230   424A      6.977290   425A      7.004526  
     426A      7.492673   427A      7.514254   428A      7.521870  
     429A      7.546686   430A      7.574744   431A      7.631630  
     432A      7.662366   433A      7.678076   434A      7.695324  
     435A      7.724237   436A      7.894263   437A      7.896057  
     438A      7.903021   439A      7.925548   440A      7.939119  
     441A      7.996431   442A      8.000174   443A      8.015298  
     444A      8.026868   445A      8.034541   446A      8.097657  
     447A      8.117955   448A      8.138430   449A      8.140330  
     450A      8.162522   451A      8.554826   452A      8.571949  
     453A      8.613648   454A      8.630864   455A      8.635248  
     456A      8.651417   457A      8.669275   458A      8.686254  
     459A      8.702060   460A      8.764865   461A      9.631310  
     462A      9.666614   463A      9.709843   464A      9.714849  
     465A      9.727354   466A      9.757965   467A      9.772956  
     468A      9.786431   469A      9.809324   470A      9.820530  
     471A      9.830687   472A      9.842807   473A      9.846327  
     474A      9.856540   475A      9.905816   476A     10.023858  
     477A     10.030255   478A     10.042830   479A     10.049602  
     480A     10.069433   481A     11.019368   482A     11.025175  
     483A     11.034756   484A     11.047533   485A     11.119500  
     486A     11.551184   487A     11.581046   488A     11.662603  
     489A     11.703946   490A     11.719312   491A     11.968059  
     492A     11.997979   493A     12.116466   494A     12.136911  
     495A     12.183795   496A     13.343906   497A     13.407206  
     498A     13.443938   499A     13.468328   500A     13.520833  
     501A     13.659354   502A     13.682218   503A     13.717519  
     504A     13.731205   505A     13.762196   506A     64.873645  
     507A     65.154512   508A     65.536387   509A     65.685791  
     510A     65.909795  

    Final Occupation by Irrep:
              A 
    DOCC [     5 ]
    NA   [     5 ]
    NB   [     5 ]

  @DF-RHF Final Energy:  -161.67608800876451

   => Energetics <=

    Nuclear Repulsion Energy =              0.0000000000000000
    One-Electron Energy =                -224.9006071338764627
    Two-Electron Energy =                  63.2245191251119394
    Total Energy =                       -161.6760880087645091

Computation Completed


Properties will be evaluated at   0.000000,   0.000000,   0.000000 [a0]

Properties computed using the SCF density matrix


 Multipole Moments:

 ------------------------------------------------------------------------------------
     Multipole            Electronic (a.u.)      Nuclear  (a.u.)        Total (a.u.)
 ------------------------------------------------------------------------------------

 L = 1.  Multiply by 2.5417464519 to convert [e a0] to [Debye]
 Dipole X            :          0.0000228            0.0000000            0.0000228
 Dipole Y            :          0.0000970            0.0000000            0.0000970
 Dipole Z            :         -0.0000859            0.0000000           -0.0000859
 Magnitude           :                                                    0.0001315

 ------------------------------------------------------------------------------------

*** tstop() called on moses-razer at Sat Jan  6 18:56:10 2024
Module time:
	user time   =      32.49 seconds =       0.54 minutes
	system time =       1.66 seconds =       0.03 minutes
	total time  =          7 seconds =       0.12 minutes
Total time:
	user time   =     101.81 seconds =       1.70 minutes
	system time =       4.71 seconds =       0.08 minutes
	total time  =         22 seconds =       0.37 minutes

*** tstart() called on moses-razer
*** at Sat Jan  6 18:56:10 2024


  //>>>>>>>>>>>>>>>>>>>>>>>>>>>>>>>>>>>//
  //               DFMP2               //
  //<<<<<<<<<<<<<<<<<<<<<<<<<<<<<<<<<<<//

   => Loading Basis Set <=

    Name: (AUG-CC-PVTZ AUX)
    Role: RIFIT
    Keyword: DF_BASIS_MP2
    atoms 1                            entry NA         line   610 file /home/kchung25/anaconda3/envs/p415env/share/psi4/basis/def2-qzvpp-ri.gbs 
    atoms 2, 5, 8, 11, 14              entry O          line   264 file /home/kchung25/anaconda3/envs/p415env/share/psi4/basis/aug-cc-pvtz-ri.gbs 
    atoms 3-4, 6-7, 9-10, 12-13, 15-16 entry H          line    30 file /home/kchung25/anaconda3/envs/p415env/share/psi4/basis/aug-cc-pvtz-ri.gbs 

	 --------------------------------------------------------
	                          DF-MP2                         
	      2nd-Order Density-Fitted Moller-Plesset Theory     
	              RMP2 Wavefunction,   6 Threads             
	                                                         
	        Rob Parrish, Justin Turney, Andy Simmonett,      
	           Ed Hohenstein, and C. David Sherrill          
	 --------------------------------------------------------

   => Auxiliary Basis Set <=

  Basis Set: (AUG-CC-PVTZ AUX)
    Blend: AUG-CC-PVTZ-RI + DEF2-QZVPP-RI
    Number of shells: 322
    Number of basis functions: 1156
    Number of Cartesian functions: 1444
    Spherical Harmonics?: true
    Max angular momentum: 4

	 --------------------------------------------------------
	                 NBF =   510, NAUX =  1156
	 --------------------------------------------------------
	   CLASS    FOCC     OCC    AOCC    AVIR     VIR    FVIR
	   PAIRS       0       5       5     505     505       0
	 --------------------------------------------------------

	-----------------------------------------------------------
	 ==================> DF-MP2 Energies <==================== 
	-----------------------------------------------------------
	 Reference Energy          =    -161.6760880087645091 [Eh]
	 Singles Energy            =      -0.0000000000000000 [Eh]
	 Same-Spin Energy          =      -0.0058392440135148 [Eh]
	 Opposite-Spin Energy      =      -0.0181300846608913 [Eh]
	 Correlation Energy        =      -0.0239693286744061 [Eh]
	 Total Energy              =    -161.7000573374389205 [Eh]
	-----------------------------------------------------------
	 ================> DF-SCS-MP2 Energies <================== 
	-----------------------------------------------------------
	 SCS Same-Spin Scale       =       0.3333333333333333 [-]
	 SCS Opposite-Spin Scale   =       1.2000000000000000 [-]
	 SCS Same-Spin Energy      =      -0.0019464146711716 [Eh]
	 SCS Opposite-Spin Energy  =      -0.0217561015930696 [Eh]
	 SCS Correlation Energy    =      -0.0237025162642412 [Eh]
	 SCS Total Energy          =    -161.6997905250287602 [Eh]
	-----------------------------------------------------------


*** tstop() called on moses-razer at Sat Jan  6 18:56:13 2024
Module time:
	user time   =      12.38 seconds =       0.21 minutes
	system time =       0.84 seconds =       0.01 minutes
	total time  =          3 seconds =       0.05 minutes
Total time:
	user time   =     114.19 seconds =       1.90 minutes
	system time =       5.55 seconds =       0.09 minutes
	total time  =         25 seconds =       0.42 minutes

    Psi4 stopped on: Saturday, 06 January 2024 06:56PM
    Psi4 wall time for execution: 0:00:10.48


    -----------------------------------------------------------------------
          Psi4: An Open-Source Ab Initio Electronic Structure Package
                               Psi4 1.9 release

                         Git: Rev {} zzzzzzz 


    D. G. A. Smith, L. A. Burns, A. C. Simmonett, R. M. Parrish,
    M. C. Schieber, R. Galvelis, P. Kraus, H. Kruse, R. Di Remigio,
    A. Alenaizan, A. M. James, S. Lehtola, J. P. Misiewicz, M. Scheurer,
    R. A. Shaw, J. B. Schriber, Y. Xie, Z. L. Glick, D. A. Sirianni,
    J. S. O'Brien, J. M. Waldrop, A. Kumar, E. G. Hohenstein,
    B. P. Pritchard, B. R. Brooks, H. F. Schaefer III, A. Yu. Sokolov,
    K. Patkowski, A. E. DePrince III, U. Bozkaya, R. A. King,
    F. A. Evangelista, J. M. Turney, T. D. Crawford, C. D. Sherrill,
    J. Chem. Phys. 152(18) 184108 (2020). https://doi.org/10.1063/5.0006002

                            Additional Code Authors
    E. T. Seidl, C. L. Janssen, E. F. Valeev, M. L. Leininger,
    J. F. Gonthier, R. M. Richard, H. R. McAlexander, M. Saitow, X. Wang,
    P. Verma, M. H. Lechner, A. Jiang, S. Behnle, A. G. Heide,
    M. F. Herbst, and D. L. Poole

             Previous Authors, Complete List of Code Contributors,
                       and Citations for Specific Modules
    https://github.com/psi4/psi4/blob/master/codemeta.json
    https://github.com/psi4/psi4/graphs/contributors
    http://psicode.org/psi4manual/master/introduction.html#citing-psifour

    -----------------------------------------------------------------------


    Psi4 started on: Saturday, 06 January 2024 06:55PM

    Process ID: 552411
    Host:       moses-razer
    PSIDATADIR: /home/kchung25/anaconda3/envs/psi4_19/share/psi4
    Memory:     55.9 GiB
    Threads:    6
    
  ==> Input QCSchema <==

--------------------------------------------------------------------------
{'driver': 'energy',
 'extras': {'psiapi': True, 'wfn_qcvars_only': True},
 'id': None,
 'keywords': {'SCF_TYPE': 'DF', 'function_kwargs': {}},
 'model': {'basis': 'aug-cc-pvtz', 'method': 'mp2'},
 'molecule': {'atom_labels': ['', '', '', '', '', '', '', '', '', '', '', '', '', '', '', ''],
              'atomic_numbers': [11, 8, 1, 1, 8, 1, 1, 8, 1, 1, 8, 1, 1, 8, 1, 1],
              'extras': {},
              'fix_com': True,
              'fix_orientation': True,
              'fix_symmetry': 'c1',
              'fragment_charges': [1.0, 0.0],
              'fragment_multiplicities': [1, 1],
              'fragments': [[0], [1, 2, 3, 4, 5, 6, 7, 8, 9, 10, 11, 12, 13, 14, 15]],
              'geometry': [0.0, 0.0, 0.0, -0.34121461839104184, -4.124204436613555, -1.9599974811591028,
                           -0.12420980850021758, -5.273815545583574, -0.646231532848939, 1.063038975710545,
                           -4.451081702890749, -3.1056741803359182, -3.7803045173982377, 1.3255748468681499,
                           2.4465509358591064, -3.929214936084315, 2.7035801450871277, 3.6186403370914464,
                           -5.513969500511257, 0.8111592701743964, 2.142883285854786, 3.96320732962905,
                           -1.535289093366958, 2.5015306277531764, 3.8256069218038378, -1.8793420803984373,
                           4.219953079938252, 5.6629196034459675, -0.8705458033930341, 2.3769220870404872,
                           -3.7307010963310954, 1.6718482620970425, -2.900092764873487, -3.2188479882634624,
                           3.4205838110605873, -2.8610963765485393, -5.37368757131402, 1.6662490035873108,
                           -2.120913329920213, 3.356911378989411, 1.1684441195363315, -2.400526656073581,
                           3.2212328226337905, 0.7349674025220622, -4.178740042868143, 3.6323994330109044,
                           2.9242907079099747, -2.3508306384262907],
              'mass_numbers': [23, 16, 1, 1, 16, 1, 1, 16, 1, 1, 16, 1, 1, 16, 1, 1],
              'masses': [22.989769282, 15.99491461957, 1.00782503223, 1.00782503223, 15.99491461957, 1.00782503223,
                         1.00782503223, 15.99491461957, 1.00782503223, 1.00782503223, 15.99491461957, 1.00782503223,
                         1.00782503223, 15.99491461957, 1.00782503223, 1.00782503223],
              'molecular_charge': 1.0,
              'molecular_multiplicity': 1,
              'name': 'dimer',
              'provenance': {'creator': 'QCElemental',
                             'routine': 'qcelemental.molparse.from_string',
                             'version': '0.27.1'},
              'real': [True, True, True, True, True, True, True, True, True, True, True, True, True, True, True, True],
              'schema_name': 'qcschema_molecule',
              'schema_version': 2,
              'symbols': ['Na', 'O', 'H', 'H', 'O', 'H', 'H', 'O', 'H', 'H', 'O', 'H', 'H', 'O', 'H', 'H'],
              'validated': True},
 'protocols': {'stdout': True},
 'provenance': {'creator': 'QCElemental', 'routine': 'qcelemental.models.results', 'version': '0.27.1'},
 'schema_name': 'qcschema_input',
 'schema_version': 1}
--------------------------------------------------------------------------

Scratch directory: /scratch/
   => Libint2 <=

    Primary   basis highest AM E, G, H:  5, 4, 3
    Auxiliary basis highest AM E, G, H:  6, 5, 4
    Onebody   basis highest AM E, G, H:  6, 5, 4
    Solid Harmonics ordering:            gaussian

*** tstart() called on moses-razer
*** at Sat Jan  6 18:56:13 2024

   => Loading Basis Set <=

    Name: AUG-CC-PVTZ
    Role: ORBITAL
    Keyword: BASIS
    atoms 1                            entry NA         line   469 file /home/kchung25/anaconda3/envs/p415env/share/psi4/basis/aug-cc-pvtz.gbs 
    atoms 2, 5, 8, 11, 14              entry O          line   331 file /home/kchung25/anaconda3/envs/p415env/share/psi4/basis/aug-cc-pvtz.gbs 
    atoms 3-4, 6-7, 9-10, 12-13, 15-16 entry H          line    40 file /home/kchung25/anaconda3/envs/p415env/share/psi4/basis/aug-cc-pvtz.gbs 


         ---------------------------------------------------------
                                   SCF
               by Justin Turney, Rob Parrish, Andy Simmonett
                          and Daniel G. A. Smith
                              RHF Reference
                        6 Threads,  57220 MiB Core
         ---------------------------------------------------------

  ==> Geometry <==

    Molecular point group: c1
    Full point group: C1

    Geometry (in Bohr), charge = 1, multiplicity = 1:

       Center              X                  Y                   Z               Mass       
    ------------   -----------------  -----------------  -----------------  -----------------
         NA           0.000000000000     0.000000000000     0.000000000000    22.989769282000
         O           -0.341214618391    -4.124204436614    -1.959997481159    15.994914619570
         H           -0.124209808500    -5.273815545584    -0.646231532849     1.007825032230
         H            1.063038975711    -4.451081702891    -3.105674180336     1.007825032230
         O           -3.780304517398     1.325574846868     2.446550935859    15.994914619570
         H           -3.929214936084     2.703580145087     3.618640337091     1.007825032230
         H           -5.513969500511     0.811159270174     2.142883285855     1.007825032230
         O            3.963207329629    -1.535289093367     2.501530627753    15.994914619570
         H            3.825606921804    -1.879342080398     4.219953079938     1.007825032230
         H            5.662919603446    -0.870545803393     2.376922087040     1.007825032230
         O           -3.730701096331     1.671848262097    -2.900092764873    15.994914619570
         H           -3.218847988263     3.420583811061    -2.861096376549     1.007825032230
         H           -5.373687571314     1.666249003587    -2.120913329920     1.007825032230
         O            3.356911378989     1.168444119536    -2.400526656074    15.994914619570
         H            3.221232822634     0.734967402522    -4.178740042868     1.007825032230
         H            3.632399433011     2.924290707910    -2.350830638426     1.007825032230

  Running in c1 symmetry.

  Rotational constants: A =      0.06209  B =      0.03918  C =      0.03544 [cm^-1]
  Rotational constants: A =   1861.45941  B =   1174.61412  C =   1062.46839 [MHz]
  Nuclear repulsion =  296.306131787740753

  Charge       = 1
  Multiplicity = 1
  Electrons    = 60
  Nalpha       = 30
  Nbeta        = 30

  ==> Algorithm <==

  SCF Algorithm Type is DF.
  DIIS enabled.
  MOM disabled.
  Fractional occupation disabled.
  Guess Type is SAD.
  Energy threshold   = 1.00e-08
  Density threshold  = 1.00e-08
  Integral threshold = 1.00e-12

  ==> Primary Basis <==

  Basis Set: AUG-CC-PVTZ
    Blend: AUG-CC-PVTZ
    Number of shells: 176
    Number of basis functions: 510
    Number of Cartesian functions: 584
    Spherical Harmonics?: true
    Max angular momentum: 3

   => Loading Basis Set <=

    Name: (AUG-CC-PVTZ AUX)
    Role: JKFIT
    Keyword: DF_BASIS_SCF
    atoms 1                            entry NA         line   498 file /home/kchung25/anaconda3/envs/p415env/share/psi4/basis/def2-universal-jkfit.gbs 
    atoms 2, 5, 8, 11, 14              entry O          line   286 file /home/kchung25/anaconda3/envs/p415env/share/psi4/basis/aug-cc-pvtz-jkfit.gbs 
    atoms 3-4, 6-7, 9-10, 12-13, 15-16 entry H          line    70 file /home/kchung25/anaconda3/envs/p415env/share/psi4/basis/aug-cc-pvtz-jkfit.gbs 

  ==> Integral Setup <==

  DFHelper Memory: AOs need 1.979 GiB; user supplied 41.910 GiB. 
  Using in-core AOs.

  ==> MemDFJK: Density-Fitted J/K Matrices <==

    J tasked:                   Yes
    K tasked:                   Yes
    wK tasked:                   No
    OpenMP threads:               6
    Memory [MiB]:             42915
    Algorithm:                 Core
    Schwarz Cutoff:           1E-12
    Mask sparsity (%):       9.9108
    Fitting Condition:        1E-10

   => Auxiliary Basis Set <=

  Basis Set: (AUG-CC-PVTZ AUX)
    Blend: AUG-CC-PVTZ-JKFIT + DEF2-UNIVERSAL-JKFIT
    Number of shells: 324
    Number of basis functions: 1092
    Number of Cartesian functions: 1342
    Spherical Harmonics?: true
    Max angular momentum: 4

  Minimum eigenvalue in the overlap matrix is 3.5964932544E-05.
  Reciprocal condition number of the overlap matrix is 2.6913512705E-06.
    Using symmetric orthogonalization.

  ==> Pre-Iterations <==

  SCF Guess: Superposition of Atomic Densities via on-the-fly atomic UHF (no occupation information).

   -------------------------
    Irrep   Nso     Nmo    
   -------------------------
     A        510     510 
   -------------------------
    Total     510     510
   -------------------------

  ==> Iterations <==

                           Total Energy        Delta E     RMS |[F,P]|

   @DF-RHF iter SAD:  -539.48924479620746   -5.39489e+02   0.00000e+00 
   @DF-RHF iter   1:  -541.66145329119581   -2.17221e+00   2.07097e-03 DIIS/ADIIS
   @DF-RHF iter   2:  -541.93679335473610   -2.75340e-01   1.36292e-03 DIIS/ADIIS
   @DF-RHF iter   3:  -542.08539807244915   -1.48605e-01   9.94265e-05 DIIS
   @DF-RHF iter   4:  -542.08744812212478   -2.05005e-03   2.37155e-05 DIIS
   @DF-RHF iter   5:  -542.08757097506327   -1.22853e-04   5.79964e-06 DIIS
   @DF-RHF iter   6:  -542.08758101149397   -1.00364e-05   2.10675e-06 DIIS
   @DF-RHF iter   7:  -542.08758171503280   -7.03539e-07   6.51000e-07 DIIS
   @DF-RHF iter   8:  -542.08758182122028   -1.06187e-07   1.09822e-07 DIIS
   @DF-RHF iter   9:  -542.08758182495001   -3.72972e-09   2.06582e-08 DIIS
   @DF-RHF iter  10:  -542.08758182506620   -1.16188e-10   6.52053e-09 DIIS
  Energy and wave function converged.


  ==> Post-Iterations <==

    Orbital Energies [Eh]
    ---------------------

    Doubly Occupied:                                                      

       1A    -40.567514     2A    -20.729972     3A    -20.729067  
       4A    -20.709566     5A    -20.707940     6A    -20.705283  
       7A     -2.888420     8A     -1.614117     9A     -1.612826  
      10A     -1.611452    11A     -1.521477    12A     -1.514172  
      13A     -1.504235    14A     -1.500622    15A     -1.489999  
      16A     -0.888087    17A     -0.877629    18A     -0.864293  
      19A     -0.861164    20A     -0.852080    21A     -0.765697  
      22A     -0.760644    23A     -0.739185    24A     -0.736947  
      25A     -0.725200    26A     -0.685279    27A     -0.682222  
      28A     -0.660848    29A     -0.656991    30A     -0.642526  

    Virtual:                                                              

      31A     -0.094785    32A     -0.073896    33A     -0.070953  
      34A     -0.066356    35A     -0.045062    36A     -0.044193  
      37A     -0.042402    38A     -0.040552    39A     -0.037214  
      40A     -0.033427    41A     -0.029679    42A     -0.028099  
      43A     -0.021774    44A     -0.014925    45A     -0.011065  
      46A     -0.010236    47A     -0.007860    48A     -0.001486  
      49A      0.001101    50A      0.015816    51A      0.019323  
      52A      0.024120    53A      0.027527    54A      0.039061  
      55A      0.042419    56A      0.046208    57A      0.053435  
      58A      0.062066    59A      0.068971    60A      0.071176  
      61A      0.073700    62A      0.080138    63A      0.089297  
      64A      0.092020    65A      0.097286    66A      0.100883  
      67A      0.105602    68A      0.106685    69A      0.109764  
      70A      0.116446    71A      0.117755    72A      0.123915  
      73A      0.125439    74A      0.130702    75A      0.149053  
      76A      0.152508    77A      0.161793    78A      0.166875  
      79A      0.172217    80A      0.176275    81A      0.180516  
      82A      0.183112    83A      0.187099    84A      0.197946  
      85A      0.209809    86A      0.217506    87A      0.218430  
      88A      0.227225    89A      0.235390    90A      0.237347  
      91A      0.247800    92A      0.254536    93A      0.258365  
      94A      0.271046    95A      0.282035    96A      0.291012  
      97A      0.295519    98A      0.307875    99A      0.309873  
     100A      0.312780   101A      0.318124   102A      0.326425  
     103A      0.329496   104A      0.329911   105A      0.335827  
     106A      0.337643   107A      0.340679   108A      0.344816  
     109A      0.346536   110A      0.353317   111A      0.359760  
     112A      0.360839   113A      0.364689   114A      0.367483  
     115A      0.369560   116A      0.374027   117A      0.381298  
     118A      0.387378   119A      0.393992   120A      0.395298  
     121A      0.401401   122A      0.406893   123A      0.408889  
     124A      0.413678   125A      0.421401   126A      0.430477  
     127A      0.441463   128A      0.448609   129A      0.463345  
     130A      0.470862   131A      0.478048   132A      0.495720  
     133A      0.504527   134A      0.516835   135A      0.530213  
     136A      0.539302   137A      0.551520   138A      0.559284  
     139A      0.574712   140A      0.583548   141A      0.590421  
     142A      0.596951   143A      0.614772   144A      0.617958  
     145A      0.625985   146A      0.629401   147A      0.653966  
     148A      0.658328   149A      0.671276   150A      0.682233  
     151A      0.690617   152A      0.698333   153A      0.706302  
     154A      0.718460   155A      0.720406   156A      0.733727  
     157A      0.738299   158A      0.749142   159A      0.756796  
     160A      0.765538   161A      0.774929   162A      0.784388  
     163A      0.791787   164A      0.797027   165A      0.798913  
     166A      0.802388   167A      0.808333   168A      0.818647  
     169A      0.820452   170A      0.827052   171A      0.834357  
     172A      0.840653   173A      0.850132   174A      0.854849  
     175A      0.863915   176A      0.869040   177A      0.873150  
     178A      0.877503   179A      0.880185   180A      0.885014  
     181A      0.885209   182A      0.898720   183A      0.904095  
     184A      0.913705   185A      0.928115   186A      0.932044  
     187A      0.937497   188A      0.946022   189A      0.953719  
     190A      0.956570   191A      0.961901   192A      0.970696  
     193A      0.973974   194A      0.981543   195A      0.989427  
     196A      0.998396   197A      1.003958   198A      1.010415  
     199A      1.023329   200A      1.030472   201A      1.037768  
     202A      1.048054   203A      1.056134   204A      1.058680  
     205A      1.074572   206A      1.082978   207A      1.087670  
     208A      1.091717   209A      1.103359   210A      1.112873  
     211A      1.116752   212A      1.125694   213A      1.134321  
     214A      1.143674   215A      1.144401   216A      1.152370  
     217A      1.173726   218A      1.176328   219A      1.178138  
     220A      1.188513   221A      1.189979   222A      1.212425  
     223A      1.225384   224A      1.232890   225A      1.247188  
     226A      1.260952   227A      1.268587   228A      1.281033  
     229A      1.290127   230A      1.293046   231A      1.302322  
     232A      1.323549   233A      1.329713   234A      1.342475  
     235A      1.354888   236A      1.363920   237A      1.398704  
     238A      1.418987   239A      1.434150   240A      1.450664  
     241A      1.471049   242A      1.487385   243A      1.508161  
     244A      1.510756   245A      1.520858   246A      1.542263  
     247A      1.544558   248A      1.562931   249A      1.570343  
     250A      1.586920   251A      1.596226   252A      1.615105  
     253A      1.633615   254A      1.650918   255A      1.664961  
     256A      1.698693   257A      1.717027   258A      1.720951  
     259A      1.731586   260A      1.738081   261A      1.751042  
     262A      1.756605   263A      1.765915   264A      1.779943  
     265A      1.839184   266A      1.855350   267A      1.873527  
     268A      1.895735   269A      1.913628   270A      1.917766  
     271A      1.924049   272A      1.937807   273A      1.944032  
     274A      1.965039   275A      2.023916   276A      2.038743  
     277A      2.048660   278A      2.061175   279A      2.087512  
     280A      2.188446   281A      2.198224   282A      2.209244  
     283A      2.219207   284A      2.220658   285A      2.237852  
     286A      2.247534   287A      2.273615   288A      2.278057  
     289A      2.285045   290A      2.322250   291A      2.326287  
     292A      2.345229   293A      2.348173   294A      2.358025  
     295A      2.381477   296A      2.391914   297A      2.401568  
     298A      2.411478   299A      2.418866   300A      2.430500  
     301A      2.446972   302A      2.456336   303A      2.468951  
     304A      2.484558   305A      2.496771   306A      2.504093  
     307A      2.522774   308A      2.530484   309A      2.564016  
     310A      2.573126   311A      2.593548   312A      2.599860  
     313A      2.607142   314A      2.615709   315A      2.639686  
     316A      2.646828   317A      2.659651   318A      2.677714  
     319A      2.688984   320A      2.689396   321A      2.709742  
     322A      2.713426   323A      2.721931   324A      2.725213  
     325A      2.743015   326A      2.753692   327A      2.756443  
     328A      2.773461   329A      2.792655   330A      2.798361  
     331A      2.807740   332A      2.816352   333A      2.831866  
     334A      2.839504   335A      2.858196   336A      2.864855  
     337A      2.882409   338A      2.895369   339A      2.935486  
     340A      3.143684   341A      3.625018   342A      3.666766  
     343A      3.689472   344A      3.699439   345A      3.716115  
     346A      3.726988   347A      3.750959   348A      3.757952  
     349A      3.773845   350A      3.797192   351A      3.921838  
     352A      3.946429   353A      3.976995   354A      3.988132  
     355A      4.009338   356A      4.067410   357A      4.075306  
     358A      4.092930   359A      4.112006   360A      4.121391  
     361A      4.123022   362A      4.146437   363A      4.169568  
     364A      4.174671   365A      4.182152   366A      4.194825  
     367A      4.198805   368A      4.207229   369A      4.222853  
     370A      4.235088   371A      4.259576   372A      4.264228  
     373A      4.307023   374A      4.321212   375A      4.344480  
     376A      4.363457   377A      4.371067   378A      4.379685  
     379A      4.380891   380A      4.392232   381A      4.399666  
     382A      4.407336   383A      4.414997   384A      4.423417  
     385A      4.428231   386A      4.449410   387A      4.451549  
     388A      4.470907   389A      4.472606   390A      4.487537  
     391A      4.510536   392A      4.536365   393A      4.549328  
     394A      4.562518   395A      4.581379   396A      4.689522  
     397A      4.701105   398A      4.715551   399A      4.725580  
     400A      4.740642   401A      4.746773   402A      4.758082  
     403A      4.792519   404A      4.813946   405A      4.827529  
     406A      4.986749   407A      5.023414   408A      5.032365  
     409A      5.044596   410A      5.058198   411A      5.063382  
     412A      5.076560   413A      5.083720   414A      5.090387  
     415A      5.092095   416A      5.142001   417A      5.161340  
     418A      5.166150   419A      5.188693   420A      5.189609  
     421A      5.223987   422A      5.251392   423A      5.273278  
     424A      5.313972   425A      5.322285   426A      5.424459  
     427A      5.429170   428A      5.463737   429A      5.470208  
     430A      5.490697   431A      5.651027   432A      5.657816  
     433A      5.673697   434A      5.690568   435A      5.728118  
     436A      6.130894   437A      6.160111   438A      6.177674  
     439A      6.192489   440A      6.214538   441A      6.432736  
     442A      6.470991   443A      6.476994   444A      6.498043  
     445A      6.507337   446A      6.614392   447A      6.620402  
     448A      6.637056   449A      6.663257   450A      6.695587  
     451A      6.787617   452A      6.811374   453A      6.838328  
     454A      6.856484   455A      6.863704   456A      7.026637  
     457A      7.030025   458A      7.041104   459A      7.065605  
     460A      7.077407   461A      7.163793   462A      7.170468  
     463A      7.174939   464A      7.183006   465A      7.199602  
     466A      7.203090   467A      7.208264   468A      7.220016  
     469A      7.225136   470A      7.228870   471A      7.234903  
     472A      7.247428   473A      7.250040   474A      7.259330  
     475A      7.262894   476A      7.270405   477A      7.278912  
     478A      7.289570   479A      7.296578   480A      7.315575  
     481A      7.331397   482A      7.348794   483A      7.369792  
     484A      7.381388   485A      7.409215   486A      7.496563  
     487A      7.515336   488A      7.525979   489A      7.542535  
     490A      7.578145   491A      7.760809   492A      7.762142  
     493A      7.783679   494A      7.786960   495A      7.801197  
     496A      7.842199   497A      7.853726   498A      7.862084  
     499A      7.891940   500A      7.910975   501A      8.709587  
     502A      8.727411   503A      8.734098   504A      8.769842  
     505A      8.804172   506A     15.790714   507A     15.983248  
     508A     16.227558   509A     16.268424   510A     16.352137  

    Final Occupation by Irrep:
              A 
    DOCC [    30 ]
    NA   [    30 ]
    NB   [    30 ]

  @DF-RHF Final Energy:  -542.08758182506620

   => Energetics <=

    Nuclear Repulsion Energy =            296.3061317877407532
    One-Electron Energy =               -1335.1765134889856199
    Two-Electron Energy =                 496.7827998761787285
    Total Energy =                       -542.0875818250661951

Computation Completed


Properties will be evaluated at   0.000000,   0.000000,   0.000000 [a0]

Properties computed using the SCF density matrix


 Multipole Moments:

 ------------------------------------------------------------------------------------
     Multipole            Electronic (a.u.)      Nuclear  (a.u.)        Total (a.u.)
 ------------------------------------------------------------------------------------

 L = 1.  Multiply by 2.5417464519 to convert [e a0] to [Debye]
 Dipole X            :          5.1693446           -5.0115442            0.1578003
 Dipole Y            :         13.0669834          -12.1629652            0.9040182
 Dipole Z            :         21.9346827          -21.4053700            0.5293127
 Magnitude           :                                                    1.0593969

 ------------------------------------------------------------------------------------

*** tstop() called on moses-razer at Sat Jan  6 18:56:23 2024
Module time:
	user time   =      50.42 seconds =       0.84 minutes
	system time =       2.18 seconds =       0.04 minutes
	total time  =         10 seconds =       0.17 minutes
Total time:
	user time   =     164.94 seconds =       2.75 minutes
	system time =       7.74 seconds =       0.13 minutes
	total time  =         35 seconds =       0.58 minutes

*** tstart() called on moses-razer
*** at Sat Jan  6 18:56:23 2024


  //>>>>>>>>>>>>>>>>>>>>>>>>>>>>>>>>>>>//
  //               DFMP2               //
  //<<<<<<<<<<<<<<<<<<<<<<<<<<<<<<<<<<<//

   => Loading Basis Set <=

    Name: (AUG-CC-PVTZ AUX)
    Role: RIFIT
    Keyword: DF_BASIS_MP2
    atoms 1                            entry NA         line   610 file /home/kchung25/anaconda3/envs/p415env/share/psi4/basis/def2-qzvpp-ri.gbs 
    atoms 2, 5, 8, 11, 14              entry O          line   264 file /home/kchung25/anaconda3/envs/p415env/share/psi4/basis/aug-cc-pvtz-ri.gbs 
    atoms 3-4, 6-7, 9-10, 12-13, 15-16 entry H          line    30 file /home/kchung25/anaconda3/envs/p415env/share/psi4/basis/aug-cc-pvtz-ri.gbs 

	 --------------------------------------------------------
	                          DF-MP2                         
	      2nd-Order Density-Fitted Moller-Plesset Theory     
	              RMP2 Wavefunction,   6 Threads             
	                                                         
	        Rob Parrish, Justin Turney, Andy Simmonett,      
	           Ed Hohenstein, and C. David Sherrill          
	 --------------------------------------------------------

   => Auxiliary Basis Set <=

  Basis Set: (AUG-CC-PVTZ AUX)
    Blend: AUG-CC-PVTZ-RI + DEF2-QZVPP-RI
    Number of shells: 322
    Number of basis functions: 1156
    Number of Cartesian functions: 1444
    Spherical Harmonics?: true
    Max angular momentum: 4

	 --------------------------------------------------------
	                 NBF =   510, NAUX =  1156
	 --------------------------------------------------------
	   CLASS    FOCC     OCC    AOCC    AVIR     VIR    FVIR
	   PAIRS       0      30      30     480     480       0
	 --------------------------------------------------------

	-----------------------------------------------------------
	 ==================> DF-MP2 Energies <==================== 
	-----------------------------------------------------------
	 Reference Energy          =    -542.0875818250661951 [Eh]
	 Singles Energy            =      -0.0000000000000000 [Eh]
	 Same-Spin Energy          =      -0.3497336923152420 [Eh]
	 Opposite-Spin Energy      =      -1.0955492121991477 [Eh]
	 Correlation Energy        =      -1.4452829045143898 [Eh]
	 Total Energy              =    -543.5328647295806377 [Eh]
	-----------------------------------------------------------
	 ================> DF-SCS-MP2 Energies <================== 
	-----------------------------------------------------------
	 SCS Same-Spin Scale       =       0.3333333333333333 [-]
	 SCS Opposite-Spin Scale   =       1.2000000000000000 [-]
	 SCS Same-Spin Energy      =      -0.1165778974384140 [Eh]
	 SCS Opposite-Spin Energy  =      -1.3146590546389771 [Eh]
	 SCS Correlation Energy    =      -1.4312369520773911 [Eh]
	 SCS Total Energy          =    -543.5188187771435651 [Eh]
	-----------------------------------------------------------


*** tstop() called on moses-razer at Sat Jan  6 18:56:29 2024
Module time:
	user time   =      23.04 seconds =       0.38 minutes
	system time =       1.31 seconds =       0.02 minutes
	total time  =          6 seconds =       0.10 minutes
Total time:
	user time   =     187.98 seconds =       3.13 minutes
	system time =       9.05 seconds =       0.15 minutes
	total time  =         41 seconds =       0.68 minutes

    Psi4 stopped on: Saturday, 06 January 2024 06:56PM
    Psi4 wall time for execution: 0:00:15.38


  //>>>>>>>>>>>>>>>>>>>>>>>>>>>>>>>>>>>//
  //          ManyBody Results         //
  //<<<<<<<<<<<<<<<<<<<<<<<<<<<<<<<<<<<//


   ==> N-Body: Counterpoise Corrected (CP) energies <==

        n-Body     Total Energy            Interaction Energy                          N-body Contribution to Interaction Energy
                   [Eh]                    [Eh]                  [kcal/mol]            [Eh]                  [kcal/mol]
             1  N/A                         0.000000000000        0.000000000000        0.000000000000        0.000000000000
  FULL/RTN   2  N/A                        -0.127187600408      -79.811424202824       -0.127187600408      -79.811424202824


    Psi4 stopped on: Saturday, 06 January 2024 06:56PM
    Psi4 wall time for execution: 0:00:42.13

*** Psi4 exiting successfully. Buy a developer a beer!
