
    -----------------------------------------------------------------------
          Psi4: An Open-Source Ab Initio Electronic Structure Package
                               Psi4 1.8.2 release

                         Git: Rev {} zzzzzzz 


    D. G. A. Smith, L. A. Burns, A. C. Simmonett, R. M. Parrish,
    M. C. Schieber, R. Galvelis, P. Kraus, H. Kruse, R. Di Remigio,
    A. Alenaizan, A. M. James, S. Lehtola, J. P. Misiewicz, M. Scheurer,
    R. A. Shaw, J. B. Schriber, Y. Xie, Z. L. Glick, D. A. Sirianni,
    J. S. O'Brien, J. M. Waldrop, A. Kumar, E. G. Hohenstein,
    B. P. Pritchard, B. R. Brooks, H. F. Schaefer III, A. Yu. Sokolov,
    K. Patkowski, A. E. DePrince III, U. Bozkaya, R. A. King,
    F. A. Evangelista, J. M. Turney, T. D. Crawford, C. D. Sherrill,
    J. Chem. Phys. 152(18) 184108 (2020). https://doi.org/10.1063/5.0006002

                            Additional Code Authors
    E. T. Seidl, C. L. Janssen, E. F. Valeev, M. L. Leininger,
    J. F. Gonthier, R. M. Richard, H. R. McAlexander, M. Saitow, X. Wang,
    P. Verma, M. H. Lechner, A. Jiang, S. Behnle, A. G. Heide,
    M. F. Herbst, and D. L. Poole

             Previous Authors, Complete List of Code Contributors,
                       and Citations for Specific Modules
    https://github.com/psi4/psi4/blob/master/codemeta.json
    https://github.com/psi4/psi4/graphs/contributors
    http://psicode.org/psi4manual/master/introduction.html#citing-psifour

    -----------------------------------------------------------------------


    Psi4 started on: Monday, 22 January 2024 03:28PM

    Process ID: 72553
    Host:       ddmfs1
    PSIDATADIR: /ddmfs1b/softs/psi4conda/share/psi4
    Memory:     500.0 MiB
    Threads:    20
    
  ==> Input File <==

--------------------------------------------------------------------------
MEMORY 60 GB

molecule dimer {
1 1
Na         0.000000     0.000000     0.000000
O          1.592894    -1.543639    -0.308375
H          1.423686    -2.341419    -0.830979
H          2.403710    -1.151684    -0.598431
O          1.988946     0.824225     1.115878
H          2.779875     0.295505     1.252466
H          2.237778     1.548762     0.503946
O         -0.323220     1.312717     2.049838
H          0.524459     0.926454     2.265662
H         -1.000485     1.060576     2.756433
O         -1.798560    -1.449805     0.232533
H         -2.520777    -1.195942    -0.335276
H         -2.004259    -2.272448     0.655052
O          1.457351     0.926491    -1.892607
H          2.288674     0.755986    -1.447960
H          1.638498     1.608992    -2.536718
O         -1.853918     1.628861    -0.694243
H         -2.596561     1.796080    -1.223462
H         -1.590046     2.537809    -0.490567

units ang
no_reorient
no_com
symmetry c1
}

set {
basis        aug-cc-pVTZ
scf_type     df
}

energy("mp2")
--------------------------------------------------------------------------

  Memory set to  55.879 GiB by Python driver.

Scratch directory: /ddmfs1a/scratch/
   => Libint2 <=

    Primary   basis highest AM E, G, H:  5, 4, 3
    Auxiliary basis highest AM E, G, H:  6, 5, 4
    Onebody   basis highest AM E, G, H:  6, 5, 4
    Solid Harmonics ordering:            gaussian

*** tstart() called on ddmfs1
*** at Mon Jan 22 15:28:31 2024

   => Loading Basis Set <=

    Name: AUG-CC-PVTZ
    Role: ORBITAL
    Keyword: BASIS
    atoms 1                                   entry NA         line   469 file /ddmfs1b/softs/psi4conda/share/psi4/basis/aug-cc-pvtz.gbs 
    atoms 2, 5, 8, 11, 14, 17                 entry O          line   331 file /ddmfs1b/softs/psi4conda/share/psi4/basis/aug-cc-pvtz.gbs 
    atoms 3-4, 6-7, 9-10, 12-13, 15-16, 18-19 entry H          line    40 file /ddmfs1b/softs/psi4conda/share/psi4/basis/aug-cc-pvtz.gbs 


         ---------------------------------------------------------
                                   SCF
               by Justin Turney, Rob Parrish, Andy Simmonett
                          and Daniel G. A. Smith
                              RHF Reference
                       20 Threads,  57220 MiB Core
         ---------------------------------------------------------

  ==> Geometry <==

    Molecular point group: c1
    Full point group: C1

    Geometry (in Angstrom), charge = 1, multiplicity = 1:

       Center              X                  Y                   Z               Mass       
    ------------   -----------------  -----------------  -----------------  -----------------
         NA           0.000000000000     0.000000000000     0.000000000000    22.989769282000
         O            1.592894000000    -1.543639000000    -0.308375000000    15.994914619570
         H            1.423686000000    -2.341419000000    -0.830979000000     1.007825032230
         H            2.403710000000    -1.151684000000    -0.598431000000     1.007825032230
         O            1.988946000000     0.824225000000     1.115878000000    15.994914619570
         H            2.779875000000     0.295505000000     1.252466000000     1.007825032230
         H            2.237778000000     1.548762000000     0.503946000000     1.007825032230
         O           -0.323220000000     1.312717000000     2.049838000000    15.994914619570
         H            0.524459000000     0.926454000000     2.265662000000     1.007825032230
         H           -1.000485000000     1.060576000000     2.756433000000     1.007825032230
         O           -1.798560000000    -1.449805000000     0.232533000000    15.994914619570
         H           -2.520777000000    -1.195942000000    -0.335276000000     1.007825032230
         H           -2.004259000000    -2.272448000000     0.655052000000     1.007825032230
         O            1.457351000000     0.926491000000    -1.892607000000    15.994914619570
         H            2.288674000000     0.755986000000    -1.447960000000     1.007825032230
         H            1.638498000000     1.608992000000    -2.536718000000     1.007825032230
         O           -1.853918000000     1.628861000000    -0.694243000000    15.994914619570
         H           -2.596561000000     1.796080000000    -1.223462000000     1.007825032230
         H           -1.590046000000     2.537809000000    -0.490567000000     1.007825032230

  Running in c1 symmetry.

  Rotational constants: A =      0.04487  B =      0.03577  C =      0.03360 [cm^-1]
  Rotational constants: A =   1345.29244  B =   1072.25885  C =   1007.16999 [MHz]
  Nuclear repulsion =  411.659790412342431

  Charge       = 1
  Multiplicity = 1
  Electrons    = 70
  Nalpha       = 35
  Nbeta        = 35

  ==> Algorithm <==

  SCF Algorithm Type is DF.
  DIIS enabled.
  MOM disabled.
  Fractional occupation disabled.
  Guess Type is SAD.
  Energy threshold   = 1.00e-08
  Density threshold  = 1.00e-08
  Integral threshold = 1.00e-12

  ==> Primary Basis <==

  Basis Set: AUG-CC-PVTZ
    Blend: AUG-CC-PVTZ
    Number of shells: 208
    Number of basis functions: 602
    Number of Cartesian functions: 689
    Spherical Harmonics?: true
    Max angular momentum: 3

   => Loading Basis Set <=

    Name: (AUG-CC-PVTZ AUX)
    Role: JKFIT
    Keyword: DF_BASIS_SCF
    atoms 1                                   entry NA         line   498 file /ddmfs1b/softs/psi4conda/share/psi4/basis/def2-universal-jkfit.gbs 
    atoms 2, 5, 8, 11, 14, 17                 entry O          line   286 file /ddmfs1b/softs/psi4conda/share/psi4/basis/aug-cc-pvtz-jkfit.gbs 
    atoms 3-4, 6-7, 9-10, 12-13, 15-16, 18-19 entry H          line    70 file /ddmfs1b/softs/psi4conda/share/psi4/basis/aug-cc-pvtz-jkfit.gbs 

  ==> Integral Setup <==

  DFHelper Memory: AOs need 3.296 GiB; user supplied 41.910 GiB. 
  Using in-core AOs.

  ==> MemDFJK: Density-Fitted J/K Matrices <==

    J tasked:                   Yes
    K tasked:                   Yes
    wK tasked:                   No
    OpenMP threads:              20
    Memory [MiB]:             42915
    Algorithm:                 Core
    Schwarz Cutoff:           1E-12
    Mask sparsity (%):       9.2284
    Fitting Condition:        1E-10

   => Auxiliary Basis Set <=

  Basis Set: (AUG-CC-PVTZ AUX)
    Blend: AUG-CC-PVTZ-JKFIT + DEF2-UNIVERSAL-JKFIT
    Number of shells: 382
    Number of basis functions: 1288
    Number of Cartesian functions: 1583
    Spherical Harmonics?: true
    Max angular momentum: 4

  Minimum eigenvalue in the overlap matrix is 1.6989857442E-05.
  Reciprocal condition number of the overlap matrix is 1.0552765674E-06.
    Using symmetric orthogonalization.

  ==> Pre-Iterations <==

  SCF Guess: Superposition of Atomic Densities via on-the-fly atomic UHF (no occupation information).

   -------------------------
    Irrep   Nso     Nmo    
   -------------------------
     A        602     602 
   -------------------------
    Total     602     602
   -------------------------

  ==> Iterations <==

                           Total Energy        Delta E     RMS |[F,P]|

   @DF-RHF iter SAD:  -615.21739640729459   -6.15217e+02   0.00000e+00 
   @DF-RHF iter   1:  -617.63190246250531   -2.41451e+00   1.92040e-03 ADIIS/DIIS
   @DF-RHF iter   2:  -617.96548316190751   -3.33581e-01   1.26373e-03 ADIIS/DIIS
   @DF-RHF iter   3:  -618.14533182551645   -1.79849e-01   9.46149e-05 DIIS
   @DF-RHF iter   4:  -618.14793957888924   -2.60775e-03   2.29324e-05 DIIS
   @DF-RHF iter   5:  -618.14809368154351   -1.54103e-04   6.49881e-06 DIIS
   @DF-RHF iter   6:  -618.14810811348912   -1.44319e-05   2.84875e-06 DIIS
   @DF-RHF iter   7:  -618.14810980842321   -1.69493e-06   6.34226e-07 DIIS
   @DF-RHF iter   8:  -618.14810998341625   -1.74993e-07   1.25700e-07 DIIS
   @DF-RHF iter   9:  -618.14810998983796   -6.42171e-09   3.74523e-08 DIIS
   @DF-RHF iter  10:  -618.14810999019483   -3.56863e-10   1.34547e-08 DIIS
   @DF-RHF iter  11:  -618.14810999023587   -4.10409e-11   3.63138e-09 DIIS
  Energy and wave function converged.


  ==> Post-Iterations <==

    Orbital Energies [Eh]
    ---------------------

    Doubly Occupied:                                                      

       1A    -40.535667     2A    -20.736258     3A    -20.725540  
       4A    -20.723368     5A    -20.705449     6A    -20.696850  
       7A    -20.679952     8A     -2.858569     9A     -1.584901  
      10A     -1.584094    11A     -1.582936    12A     -1.525604  
      13A     -1.514796    14A     -1.511191    15A     -1.498206  
      16A     -1.494051    17A     -1.454675    18A     -0.899487  
      19A     -0.893724    20A     -0.875130    21A     -0.871276  
      22A     -0.848637    23A     -0.844977    24A     -0.759807  
      25A     -0.748506    26A     -0.742282    27A     -0.739821  
      28A     -0.731029    29A     -0.694081    30A     -0.686334  
      31A     -0.678020    32A     -0.666190    33A     -0.656924  
      34A     -0.644641    35A     -0.626052  

    Virtual:                                                              

      36A     -0.092804    37A     -0.071416    38A     -0.067438  
      39A     -0.061975    40A     -0.045591    41A     -0.044858  
      42A     -0.039287    43A     -0.037751    44A     -0.034211  
      45A     -0.031997    46A     -0.027608    47A     -0.023717  
      48A     -0.021148    49A     -0.016151    50A     -0.013379  
      51A     -0.009599    52A     -0.007743    53A     -0.004560  
      54A      0.000006    55A      0.007639    56A      0.015492  
      57A      0.022083    58A      0.024804    59A      0.026032  
      60A      0.027809    61A      0.047730    62A      0.050450  
      63A      0.054408    64A      0.056029    65A      0.061683  
      66A      0.070713    67A      0.076049    68A      0.080241  
      69A      0.081212    70A      0.086706    71A      0.090578  
      72A      0.094207    73A      0.098316    74A      0.106813  
      75A      0.110903    76A      0.114801    77A      0.120900  
      78A      0.123446    79A      0.125378    80A      0.127248  
      81A      0.135737    82A      0.140220    83A      0.142967  
      84A      0.147783    85A      0.156852    86A      0.163987  
      87A      0.172720    88A      0.181966    89A      0.189217  
      90A      0.192496    91A      0.200995    92A      0.206129  
      93A      0.207145    94A      0.212316    95A      0.214412  
      96A      0.222722    97A      0.229151    98A      0.235835  
      99A      0.253479   100A      0.259487   101A      0.261526  
     102A      0.272377   103A      0.280583   104A      0.285144  
     105A      0.289885   106A      0.297011   107A      0.300480  
     108A      0.304892   109A      0.309343   110A      0.311468  
     111A      0.314721   112A      0.314986   113A      0.321732  
     114A      0.326939   115A      0.331232   116A      0.336463  
     117A      0.338044   118A      0.342865   119A      0.346688  
     120A      0.351341   121A      0.352149   122A      0.354738  
     123A      0.359310   124A      0.362992   125A      0.369040  
     126A      0.376055   127A      0.381115   128A      0.386982  
     129A      0.387734   130A      0.391208   131A      0.398497  
     132A      0.403166   133A      0.403610   134A      0.407264  
     135A      0.410618   136A      0.416530   137A      0.425198  
     138A      0.433069   139A      0.433658   140A      0.436537  
     141A      0.440886   142A      0.448654   143A      0.454215  
     144A      0.458028   145A      0.465668   146A      0.476421  
     147A      0.482744   148A      0.487362   149A      0.501592  
     150A      0.524964   151A      0.529781   152A      0.545513  
     153A      0.556119   154A      0.568274   155A      0.577704  
     156A      0.584645   157A      0.603694   158A      0.607105  
     159A      0.615182   160A      0.625058   161A      0.633690  
     162A      0.636972   163A      0.643119   164A      0.654064  
     165A      0.666900   166A      0.680767   167A      0.690449  
     168A      0.699574   169A      0.700222   170A      0.707280  
     171A      0.713684   172A      0.716710   173A      0.729724  
     174A      0.738222   175A      0.743853   176A      0.757072  
     177A      0.762004   178A      0.763452   179A      0.770777  
     180A      0.772008   181A      0.781114   182A      0.785201  
     183A      0.795470   184A      0.800423   185A      0.806691  
     186A      0.814815   187A      0.822399   188A      0.824457  
     189A      0.830016   190A      0.837916   191A      0.847149  
     192A      0.848631   193A      0.856663   194A      0.859886  
     195A      0.864735   196A      0.875844   197A      0.877093  
     198A      0.882036   199A      0.891595   200A      0.894374  
     201A      0.903606   202A      0.904949   203A      0.915289  
     204A      0.919032   205A      0.928437   206A      0.936619  
     207A      0.941245   208A      0.943833   209A      0.955513  
     210A      0.957281   211A      0.963946   212A      0.965241  
     213A      0.967033   214A      0.969213   215A      0.980144  
     216A      0.983158   217A      0.989618   218A      0.995359  
     219A      1.003159   220A      1.005363   221A      1.020424  
     222A      1.023833   223A      1.028083   224A      1.032717  
     225A      1.053062   226A      1.056437   227A      1.060271  
     228A      1.070462   229A      1.075720   230A      1.083254  
     231A      1.085528   232A      1.093953   233A      1.099440  
     234A      1.104694   235A      1.119368   236A      1.122745  
     237A      1.137506   238A      1.147890   239A      1.151246  
     240A      1.158409   241A      1.161549   242A      1.173651  
     243A      1.183664   244A      1.197577   245A      1.200492  
     246A      1.211681   247A      1.223663   248A      1.230426  
     249A      1.237309   250A      1.248139   251A      1.252268  
     252A      1.258203   253A      1.260707   254A      1.277483  
     255A      1.284572   256A      1.301177   257A      1.309426  
     258A      1.314770   259A      1.323105   260A      1.330320  
     261A      1.335166   262A      1.345740   263A      1.356766  
     264A      1.364101   265A      1.372104   266A      1.384452  
     267A      1.396312   268A      1.402939   269A      1.416330  
     270A      1.420801   271A      1.438743   272A      1.441968  
     273A      1.462414   274A      1.489932   275A      1.492708  
     276A      1.514592   277A      1.519029   278A      1.523377  
     279A      1.538044   280A      1.546091   281A      1.565008  
     282A      1.576917   283A      1.589269   284A      1.606735  
     285A      1.611722   286A      1.624880   287A      1.630980  
     288A      1.655393   289A      1.657641   290A      1.670491  
     291A      1.681711   292A      1.693402   293A      1.704820  
     294A      1.707424   295A      1.711796   296A      1.736362  
     297A      1.742523   298A      1.754925   299A      1.765429  
     300A      1.779677   301A      1.797431   302A      1.801243  
     303A      1.809846   304A      1.819053   305A      1.838174  
     306A      1.855860   307A      1.874916   308A      1.898808  
     309A      1.920025   310A      1.925498   311A      1.941713  
     312A      1.948746   313A      1.948997   314A      1.965939  
     315A      1.977315   316A      1.981563   317A      1.987274  
     318A      2.013547   319A      2.055582   320A      2.095201  
     321A      2.134398   322A      2.143057   323A      2.158916  
     324A      2.178851   325A      2.192526   326A      2.227529  
     327A      2.235354   328A      2.245319   329A      2.247584  
     330A      2.274187   331A      2.281628   332A      2.288896  
     333A      2.307026   334A      2.317961   335A      2.342892  
     336A      2.349523   337A      2.359742   338A      2.374734  
     339A      2.378630   340A      2.381392   341A      2.391370  
     342A      2.411124   343A      2.418777   344A      2.424781  
     345A      2.441626   346A      2.453172   347A      2.466731  
     348A      2.478839   349A      2.486279   350A      2.498425  
     351A      2.508321   352A      2.512689   353A      2.525735  
     354A      2.530519   355A      2.551817   356A      2.555572  
     357A      2.581577   358A      2.590827   359A      2.595816  
     360A      2.619632   361A      2.624054   362A      2.643788  
     363A      2.654377   364A      2.658482   365A      2.678404  
     366A      2.684403   367A      2.685326   368A      2.694066  
     369A      2.708338   370A      2.724382   371A      2.729990  
     372A      2.749437   373A      2.754716   374A      2.762775  
     375A      2.767852   376A      2.777498   377A      2.783431  
     378A      2.791646   379A      2.802075   380A      2.807513  
     381A      2.816621   382A      2.821690   383A      2.846150  
     384A      2.857747   385A      2.868456   386A      2.879148  
     387A      2.892787   388A      2.907006   389A      2.912819  
     390A      2.932290   391A      2.940436   392A      2.974118  
     393A      2.993590   394A      3.009012   395A      3.043396  
     396A      3.068707   397A      3.123376   398A      3.570456  
     399A      3.668901   400A      3.683491   401A      3.708402  
     402A      3.721422   403A      3.767339   404A      3.779825  
     405A      3.816603   406A      3.832255   407A      3.842803  
     408A      3.869069   409A      3.917554   410A      3.946735  
     411A      3.963195   412A      3.995062   413A      4.006872  
     414A      4.021334   415A      4.027065   416A      4.073702  
     417A      4.092893   418A      4.124414   419A      4.133867  
     420A      4.151318   421A      4.163082   422A      4.171269  
     423A      4.177882   424A      4.190817   425A      4.195357  
     426A      4.211482   427A      4.214410   428A      4.221430  
     429A      4.230679   430A      4.247029   431A      4.265670  
     432A      4.271610   433A      4.275037   434A      4.290787  
     435A      4.300379   436A      4.304970   437A      4.336645  
     438A      4.358282   439A      4.372572   440A      4.377980  
     441A      4.393869   442A      4.412397   443A      4.420435  
     444A      4.432723   445A      4.435594   446A      4.450316  
     447A      4.465059   448A      4.475642   449A      4.484273  
     450A      4.491598   451A      4.506766   452A      4.512958  
     453A      4.518585   454A      4.540829   455A      4.550830  
     456A      4.562414   457A      4.575390   458A      4.585252  
     459A      4.605078   460A      4.624501   461A      4.635203  
     462A      4.652376   463A      4.686515   464A      4.712959  
     465A      4.716292   466A      4.722333   467A      4.748296  
     468A      4.766011   469A      4.776442   470A      4.792672  
     471A      4.811102   472A      4.820763   473A      4.831005  
     474A      4.891826   475A      4.908780   476A      4.967318  
     477A      4.998880   478A      5.022900   479A      5.033229  
     480A      5.051401   481A      5.058461   482A      5.088641  
     483A      5.095570   484A      5.109059   485A      5.113488  
     486A      5.129423   487A      5.141333   488A      5.170571  
     489A      5.189018   490A      5.192142   491A      5.248014  
     492A      5.255319   493A      5.268337   494A      5.283940  
     495A      5.311910   496A      5.329468   497A      5.344961  
     498A      5.355764   499A      5.370730   500A      5.410706  
     501A      5.419142   502A      5.421176   503A      5.454443  
     504A      5.474703   505A      5.486154   506A      5.529927  
     507A      5.684365   508A      5.724915   509A      5.769330  
     510A      5.813210   511A      5.839297   512A      5.899784  
     513A      6.142596   514A      6.144995   515A      6.178555  
     516A      6.201299   517A      6.276997   518A      6.310783  
     519A      6.489987   520A      6.495721   521A      6.509951  
     522A      6.537762   523A      6.564029   524A      6.612739  
     525A      6.641167   526A      6.656916   527A      6.699070  
     528A      6.717593   529A      6.730834   530A      6.762477  
     531A      6.803856   532A      6.811436   533A      6.835155  
     534A      6.853455   535A      6.937568   536A      6.960993  
     537A      7.041016   538A      7.053110   539A      7.066780  
     540A      7.073952   541A      7.076827   542A      7.090261  
     543A      7.170190   544A      7.186286   545A      7.197758  
     546A      7.207464   547A      7.217067   548A      7.222775  
     549A      7.229901   550A      7.233094   551A      7.247382  
     552A      7.254596   553A      7.258810   554A      7.265273  
     555A      7.270218   556A      7.273888   557A      7.289336  
     558A      7.292206   559A      7.302594   560A      7.310928  
     561A      7.319610   562A      7.325749   563A      7.332344  
     564A      7.340717   565A      7.360919   566A      7.367601  
     567A      7.385055   568A      7.397029   569A      7.412520  
     570A      7.429974   571A      7.444755   572A      7.522320  
     573A      7.604874   574A      7.611318   575A      7.668611  
     576A      7.673699   577A      7.681124   578A      7.694873  
     579A      7.746632   580A      7.790584   581A      7.822668  
     582A      7.830502   583A      7.868836   584A      7.883202  
     585A      7.892462   586A      7.899923   587A      7.932677  
     588A      7.972465   589A      8.011671   590A      8.023320  
     591A      8.630697   592A      8.712894   593A      8.726441  
     594A      8.757706   595A      8.777177   596A      8.861973  
     597A     15.799623   598A     16.186566   599A     16.375658  
     600A     16.458409   601A     16.549253   602A     16.650007  

    Final Occupation by Irrep:
              A 
    DOCC [    35 ]
    NA   [    35 ]
    NB   [    35 ]

  @DF-RHF Final Energy:  -618.14810999023587

   => Energetics <=

    Nuclear Repulsion Energy =            411.6597904123424314
    One-Electron Energy =               -1669.5777379608798583
    Two-Electron Energy =                 639.7698375583016741
    Total Energy =                       -618.1481099902358665

Computation Completed


Properties will be evaluated at   0.000000,   0.000000,   0.000000 [a0]

Properties computed using the SCF density matrix


 Multipole Moments:

 ------------------------------------------------------------------------------------
     Multipole            Electronic (a.u.)      Nuclear  (a.u.)        Total (a.u.)
 ------------------------------------------------------------------------------------

 L = 1.  Multiply by 2.5417464519 to convert [e a0] to [Debye]
 Dipole X            :        -21.8267770           22.8515056            1.0247286
 Dipole Y            :        -32.2837497           32.4267006            0.1429510
 Dipole Z            :         -8.2911571            7.5482427           -0.7429144
 Magnitude           :                                                    1.2737447

 ------------------------------------------------------------------------------------

*** tstop() called on ddmfs1 at Mon Jan 22 15:28:45 2024
Module time:
	user time   =     210.17 seconds =       3.50 minutes
	system time =      13.38 seconds =       0.22 minutes
	total time  =         14 seconds =       0.23 minutes
Total time:
	user time   =     210.17 seconds =       3.50 minutes
	system time =      13.38 seconds =       0.22 minutes
	total time  =         14 seconds =       0.23 minutes

*** tstart() called on ddmfs1
*** at Mon Jan 22 15:28:45 2024


  //>>>>>>>>>>>>>>>>>>>>>>>>>>>>>>>>>>>//
  //               DFMP2               //
  //<<<<<<<<<<<<<<<<<<<<<<<<<<<<<<<<<<<//

   => Loading Basis Set <=

    Name: (AUG-CC-PVTZ AUX)
    Role: RIFIT
    Keyword: DF_BASIS_MP2
    atoms 1                                   entry NA         line   610 file /ddmfs1b/softs/psi4conda/share/psi4/basis/def2-qzvpp-ri.gbs 
    atoms 2, 5, 8, 11, 14, 17                 entry O          line   264 file /ddmfs1b/softs/psi4conda/share/psi4/basis/aug-cc-pvtz-ri.gbs 
    atoms 3-4, 6-7, 9-10, 12-13, 15-16, 18-19 entry H          line    30 file /ddmfs1b/softs/psi4conda/share/psi4/basis/aug-cc-pvtz-ri.gbs 

	 --------------------------------------------------------
	                          DF-MP2                         
	      2nd-Order Density-Fitted Moller-Plesset Theory     
	              RMP2 Wavefunction,  20 Threads             
	                                                         
	        Rob Parrish, Justin Turney, Andy Simmonett,      
	           Ed Hohenstein, and C. David Sherrill          
	 --------------------------------------------------------

   => Auxiliary Basis Set <=

  Basis Set: (AUG-CC-PVTZ AUX)
    Blend: AUG-CC-PVTZ-RI + DEF2-QZVPP-RI
    Number of shells: 378
    Number of basis functions: 1354
    Number of Cartesian functions: 1690
    Spherical Harmonics?: true
    Max angular momentum: 4

	 --------------------------------------------------------
	                 NBF =   602, NAUX =  1354
	 --------------------------------------------------------
	   CLASS    FOCC     OCC    AOCC    AVIR     VIR    FVIR
	   PAIRS       0      35      35     567     567       0
	 --------------------------------------------------------

	-----------------------------------------------------------
	 ==================> DF-MP2 Energies <==================== 
	-----------------------------------------------------------
	 Reference Energy          =    -618.1481099902358665 [Eh]
	 Singles Energy            =      -0.0000000000000000 [Eh]
	 Same-Spin Energy          =      -0.4236312565035539 [Eh]
	 Opposite-Spin Energy      =      -1.3197823740393795 [Eh]
	 Correlation Energy        =      -1.7434136305429333 [Eh]
	 Total Energy              =    -619.8915236207787984 [Eh]
	-----------------------------------------------------------
	 ================> DF-SCS-MP2 Energies <================== 
	-----------------------------------------------------------
	 SCS Same-Spin Scale       =       0.3333333333333333 [-]
	 SCS Opposite-Spin Scale   =       1.2000000000000000 [-]
	 SCS Same-Spin Energy      =      -0.1412104188345180 [Eh]
	 SCS Opposite-Spin Energy  =      -1.5837388488472552 [Eh]
	 SCS Correlation Energy    =      -1.7249492676817733 [Eh]
	 SCS Total Energy          =    -619.8730592579175891 [Eh]
	-----------------------------------------------------------


*** tstop() called on ddmfs1 at Mon Jan 22 15:28:56 2024
Module time:
	user time   =      71.35 seconds =       1.19 minutes
	system time =       3.32 seconds =       0.06 minutes
	total time  =         11 seconds =       0.18 minutes
Total time:
	user time   =     281.54 seconds =       4.69 minutes
	system time =      16.70 seconds =       0.28 minutes
	total time  =         25 seconds =       0.42 minutes

    Psi4 stopped on: Monday, 22 January 2024 03:28PM
    Psi4 wall time for execution: 0:00:24.29

*** Psi4 exiting successfully. Buy a developer a beer!
