
    -----------------------------------------------------------------------
          Psi4: An Open-Source Ab Initio Electronic Structure Package
                               Psi4 1.8.2 release

                         Git: Rev {} zzzzzzz 


    D. G. A. Smith, L. A. Burns, A. C. Simmonett, R. M. Parrish,
    M. C. Schieber, R. Galvelis, P. Kraus, H. Kruse, R. Di Remigio,
    A. Alenaizan, A. M. James, S. Lehtola, J. P. Misiewicz, M. Scheurer,
    R. A. Shaw, J. B. Schriber, Y. Xie, Z. L. Glick, D. A. Sirianni,
    J. S. O'Brien, J. M. Waldrop, A. Kumar, E. G. Hohenstein,
    B. P. Pritchard, B. R. Brooks, H. F. Schaefer III, A. Yu. Sokolov,
    K. Patkowski, A. E. DePrince III, U. Bozkaya, R. A. King,
    F. A. Evangelista, J. M. Turney, T. D. Crawford, C. D. Sherrill,
    J. Chem. Phys. 152(18) 184108 (2020). https://doi.org/10.1063/5.0006002

                            Additional Code Authors
    E. T. Seidl, C. L. Janssen, E. F. Valeev, M. L. Leininger,
    J. F. Gonthier, R. M. Richard, H. R. McAlexander, M. Saitow, X. Wang,
    P. Verma, M. H. Lechner, A. Jiang, S. Behnle, A. G. Heide,
    M. F. Herbst, and D. L. Poole

             Previous Authors, Complete List of Code Contributors,
                       and Citations for Specific Modules
    https://github.com/psi4/psi4/blob/master/codemeta.json
    https://github.com/psi4/psi4/graphs/contributors
    http://psicode.org/psi4manual/master/introduction.html#citing-psifour

    -----------------------------------------------------------------------


    Psi4 started on: Monday, 22 January 2024 01:59PM

    Process ID: 64377
    Host:       ddmfs1
    PSIDATADIR: /ddmfs1b/softs/psi4conda/share/psi4
    Memory:     500.0 MiB
    Threads:    20
    
  ==> Input File <==

--------------------------------------------------------------------------
MEMORY 60 GB

molecule dimer {
0 1
Gh(Na)     0.000000     0.000000     0.000000
Gh(O)     -1.270703     1.958564     0.911769
Gh(H)     -2.124725     1.551684     0.575181
Gh(H)     -1.379974     2.228364     1.821269
Gh(O)      0.587472    -2.201463     0.748927
Gh(H)     -0.101641    -2.358357     1.431600
Gh(H)      1.379076    -2.483852     1.213110
O         -2.211830    -1.319853     0.286643
H         -2.899654    -0.680785     0.484013
H         -1.960837    -1.588265     1.197980
Gh(O)      1.514145     0.926826     1.650245
Gh(H)      1.294798     1.672359     2.220085
Gh(H)      2.399115     1.116522     1.261384
Gh(O)     -0.863562     0.600979    -1.935483
Gh(H)     -1.872318     0.424331    -1.975920
Gh(H)     -0.615829     1.523469    -1.858067

units ang
no_reorient
no_com
symmetry c1
}

set {
basis        aug-cc-pVTZ
scf_type     df
}

energy("mp2")
--------------------------------------------------------------------------

  Memory set to  55.879 GiB by Python driver.

Scratch directory: /ddmfs1a/scratch/
   => Libint2 <=

    Primary   basis highest AM E, G, H:  5, 4, 3
    Auxiliary basis highest AM E, G, H:  6, 5, 4
    Onebody   basis highest AM E, G, H:  6, 5, 4
    Solid Harmonics ordering:            gaussian

*** tstart() called on ddmfs1
*** at Mon Jan 22 13:59:59 2024

   => Loading Basis Set <=

    Name: AUG-CC-PVTZ
    Role: ORBITAL
    Keyword: BASIS
    atoms 1                            entry NA         line   469 file /ddmfs1b/softs/psi4conda/share/psi4/basis/aug-cc-pvtz.gbs 
    atoms 2, 5, 8, 11, 14              entry O          line   331 file /ddmfs1b/softs/psi4conda/share/psi4/basis/aug-cc-pvtz.gbs 
    atoms 3-4, 6-7, 9-10, 12-13, 15-16 entry H          line    40 file /ddmfs1b/softs/psi4conda/share/psi4/basis/aug-cc-pvtz.gbs 


         ---------------------------------------------------------
                                   SCF
               by Justin Turney, Rob Parrish, Andy Simmonett
                          and Daniel G. A. Smith
                              RHF Reference
                       20 Threads,  57220 MiB Core
         ---------------------------------------------------------

  ==> Geometry <==

    Molecular point group: c1
    Full point group: C1

    Geometry (in Angstrom), charge = 0, multiplicity = 1:

       Center              X                  Y                   Z               Mass       
    ------------   -----------------  -----------------  -----------------  -----------------
      Gh(NA)          0.000000000000     0.000000000000     0.000000000000    22.989769282000
      Gh(O)          -1.270703000000     1.958564000000     0.911769000000    15.994914619570
      Gh(H)          -2.124725000000     1.551684000000     0.575181000000     1.007825032230
      Gh(H)          -1.379974000000     2.228364000000     1.821269000000     1.007825032230
      Gh(O)           0.587472000000    -2.201463000000     0.748927000000    15.994914619570
      Gh(H)          -0.101641000000    -2.358357000000     1.431600000000     1.007825032230
      Gh(H)           1.379076000000    -2.483852000000     1.213110000000     1.007825032230
         O           -2.211830000000    -1.319853000000     0.286643000000    15.994914619570
         H           -2.899654000000    -0.680785000000     0.484013000000     1.007825032230
         H           -1.960837000000    -1.588265000000     1.197980000000     1.007825032230
      Gh(O)           1.514145000000     0.926826000000     1.650245000000    15.994914619570
      Gh(H)           1.294798000000     1.672359000000     2.220085000000     1.007825032230
      Gh(H)           2.399115000000     1.116522000000     1.261384000000     1.007825032230
      Gh(O)          -0.863562000000     0.600979000000    -1.935483000000    15.994914619570
      Gh(H)          -1.872318000000     0.424331000000    -1.975920000000     1.007825032230
      Gh(H)          -0.615829000000     1.523469000000    -1.858067000000     1.007825032230

  Running in c1 symmetry.

  Rotational constants: A =      0.05088  B =      0.04952  C =      0.03839 [cm^-1]
  Rotational constants: A =   1525.27884  B =   1484.64078  C =   1150.98178 [MHz]
  Nuclear repulsion =    9.076334902151302

  Charge       = 0
  Multiplicity = 1
  Electrons    = 10
  Nalpha       = 5
  Nbeta        = 5

  ==> Algorithm <==

  SCF Algorithm Type is DF.
  DIIS enabled.
  MOM disabled.
  Fractional occupation disabled.
  Guess Type is SAD.
  Energy threshold   = 1.00e-08
  Density threshold  = 1.00e-08
  Integral threshold = 1.00e-12

  ==> Primary Basis <==

  Basis Set: AUG-CC-PVTZ
    Blend: AUG-CC-PVTZ
    Number of shells: 176
    Number of basis functions: 510
    Number of Cartesian functions: 584
    Spherical Harmonics?: true
    Max angular momentum: 3

   => Loading Basis Set <=

    Name: (AUG-CC-PVTZ AUX)
    Role: JKFIT
    Keyword: DF_BASIS_SCF
    atoms 1                            entry NA         line   498 file /ddmfs1b/softs/psi4conda/share/psi4/basis/def2-universal-jkfit.gbs 
    atoms 2, 5, 8, 11, 14              entry O          line   286 file /ddmfs1b/softs/psi4conda/share/psi4/basis/aug-cc-pvtz-jkfit.gbs 
    atoms 3-4, 6-7, 9-10, 12-13, 15-16 entry H          line    70 file /ddmfs1b/softs/psi4conda/share/psi4/basis/aug-cc-pvtz-jkfit.gbs 

  ==> Integral Setup <==

  DFHelper Memory: AOs need 2.055 GiB; user supplied 41.910 GiB. 
  Using in-core AOs.

  ==> MemDFJK: Density-Fitted J/K Matrices <==

    J tasked:                   Yes
    K tasked:                   Yes
    wK tasked:                   No
    OpenMP threads:              20
    Memory [MiB]:             42915
    Algorithm:                 Core
    Schwarz Cutoff:           1E-12
    Mask sparsity (%):       7.5925
    Fitting Condition:        1E-10

   => Auxiliary Basis Set <=

  Basis Set: (AUG-CC-PVTZ AUX)
    Blend: AUG-CC-PVTZ-JKFIT + DEF2-UNIVERSAL-JKFIT
    Number of shells: 324
    Number of basis functions: 1092
    Number of Cartesian functions: 1342
    Spherical Harmonics?: true
    Max angular momentum: 4

  Minimum eigenvalue in the overlap matrix is 3.6915396177E-05.
  Reciprocal condition number of the overlap matrix is 2.4969847080E-06.
    Using symmetric orthogonalization.

  ==> Pre-Iterations <==

  SCF Guess: Superposition of Atomic Densities via on-the-fly atomic UHF (no occupation information).

   -------------------------
    Irrep   Nso     Nmo    
   -------------------------
     A        510     510 
   -------------------------
    Total     510     510
   -------------------------

  ==> Iterations <==

                           Total Energy        Delta E     RMS |[F,P]|

   @DF-RHF iter SAD:   -75.46672651119152   -7.54667e+01   0.00000e+00 
   @DF-RHF iter   1:   -75.97310598950506   -5.06379e-01   9.17418e-04 ADIIS/DIIS
   @DF-RHF iter   2:   -76.02538164398281   -5.22757e-02   6.36497e-04 ADIIS/DIIS
   @DF-RHF iter   3:   -76.05810318129951   -3.27215e-02   4.32181e-05 DIIS
   @DF-RHF iter   4:   -76.05850539830632   -4.02217e-04   1.06571e-05 DIIS
   @DF-RHF iter   5:   -76.05853268958504   -2.72913e-05   2.48769e-06 DIIS
   @DF-RHF iter   6:   -76.05853500508526   -2.31550e-06   5.38769e-07 DIIS
   @DF-RHF iter   7:   -76.05853512223069   -1.17145e-07   9.12337e-08 DIIS
   @DF-RHF iter   8:   -76.05853512512593   -2.89523e-09   1.53634e-08 DIIS
   @DF-RHF iter   9:   -76.05853512518949   -6.35652e-11   3.68526e-09 DIIS
  Energy and wave function converged.


  ==> Post-Iterations <==

    Orbital Energies [Eh]
    ---------------------

    Doubly Occupied:                                                      

       1A    -20.571292     2A     -1.349772     3A     -0.701542  
       4A     -0.590870     5A     -0.510535  

    Virtual:                                                              

       6A      0.007021     7A      0.016017     8A      0.016519  
       9A      0.018599    10A      0.036743    11A      0.051805  
      12A      0.052503    13A      0.053961    14A      0.055109  
      15A      0.056518    16A      0.058295    17A      0.060522  
      18A      0.064773    19A      0.080124    20A      0.083373  
      21A      0.084891    22A      0.087854    23A      0.090704  
      24A      0.091908    25A      0.096436    26A      0.102825  
      27A      0.110161    28A      0.123631    29A      0.132559  
      30A      0.135255    31A      0.141913    32A      0.158810  
      33A      0.161147    34A      0.169550    35A      0.173190  
      36A      0.177520    37A      0.184366    38A      0.192508  
      39A      0.202119    40A      0.206853    41A      0.210507  
      42A      0.213774    43A      0.217793    44A      0.221454  
      45A      0.226163    46A      0.226758    47A      0.244504  
      48A      0.251503    49A      0.261482    50A      0.266626  
      51A      0.273019    52A      0.280274    53A      0.286587  
      54A      0.292087    55A      0.301751    56A      0.310311  
      57A      0.317993    58A      0.326511    59A      0.334609  
      60A      0.340166    61A      0.343418    62A      0.350042  
      63A      0.353937    64A      0.363955    65A      0.366872  
      66A      0.376065    67A      0.378614    68A      0.386696  
      69A      0.391024    70A      0.397658    71A      0.403101  
      72A      0.405660    73A      0.416445    74A      0.420378  
      75A      0.423929    76A      0.431681    77A      0.439227  
      78A      0.445588    79A      0.451187    80A      0.453648  
      81A      0.457324    82A      0.462201    83A      0.465832  
      84A      0.477030    85A      0.479716    86A      0.482558  
      87A      0.487687    88A      0.495202    89A      0.496435  
      90A      0.502481    91A      0.510457    92A      0.515864  
      93A      0.519288    94A      0.529783    95A      0.530685  
      96A      0.539282    97A      0.548391    98A      0.553185  
      99A      0.557779   100A      0.564711   101A      0.576046  
     102A      0.582557   103A      0.607107   104A      0.620625  
     105A      0.638079   106A      0.640835   107A      0.667381  
     108A      0.670973   109A      0.682768   110A      0.702927  
     111A      0.717400   112A      0.725731   113A      0.729246  
     114A      0.748471   115A      0.754899   116A      0.775561  
     117A      0.781567   118A      0.784820   119A      0.798049  
     120A      0.802677   121A      0.808642   122A      0.825177  
     123A      0.831352   124A      0.841751   125A      0.846908  
     126A      0.851756   127A      0.861455   128A      0.863236  
     129A      0.871209   130A      0.875594   131A      0.891298  
     132A      0.903033   133A      0.908555   134A      0.913404  
     135A      0.915330   136A      0.924255   137A      0.935613  
     138A      0.941237   139A      0.945851   140A      0.956149  
     141A      0.960247   142A      0.966329   143A      0.970482  
     144A      0.973573   145A      0.982337   146A      0.990839  
     147A      0.998717   148A      1.002123   149A      1.017111  
     150A      1.024805   151A      1.038256   152A      1.047850  
     153A      1.053182   154A      1.057545   155A      1.067272  
     156A      1.070755   157A      1.071973   158A      1.081362  
     159A      1.094730   160A      1.096854   161A      1.103511  
     162A      1.104814   163A      1.114378   164A      1.122766  
     165A      1.132343   166A      1.133559   167A      1.142526  
     168A      1.147579   169A      1.156551   170A      1.169264  
     171A      1.171038   172A      1.178960   173A      1.187603  
     174A      1.193286   175A      1.208986   176A      1.214411  
     177A      1.226839   178A      1.233533   179A      1.237186  
     180A      1.246512   181A      1.269008   182A      1.272781  
     183A      1.276916   184A      1.283153   185A      1.302025  
     186A      1.306908   187A      1.315911   188A      1.320287  
     189A      1.324598   190A      1.346519   191A      1.358148  
     192A      1.367416   193A      1.374707   194A      1.379418  
     195A      1.392544   196A      1.402908   197A      1.414963  
     198A      1.422361   199A      1.433355   200A      1.436837  
     201A      1.453647   202A      1.471022   203A      1.489774  
     204A      1.495882   205A      1.509904   206A      1.518027  
     207A      1.525681   208A      1.543937   209A      1.560827  
     210A      1.577083   211A      1.587785   212A      1.595928  
     213A      1.611017   214A      1.613644   215A      1.624428  
     216A      1.633748   217A      1.639520   218A      1.667996  
     219A      1.694652   220A      1.722420   221A      1.739230  
     222A      1.742411   223A      1.754018   224A      1.762414  
     225A      1.803489   226A      1.822105   227A      1.837658  
     228A      1.846265   229A      1.852472   230A      1.865526  
     231A      1.879061   232A      1.887258   233A      1.911617  
     234A      1.924611   235A      1.937598   236A      1.938763  
     237A      1.950101   238A      1.970311   239A      1.975698  
     240A      1.981300   241A      1.991964   242A      2.006356  
     243A      2.009089   244A      2.025302   245A      2.051910  
     246A      2.058580   247A      2.063622   248A      2.072993  
     249A      2.081532   250A      2.100643   251A      2.115354  
     252A      2.130550   253A      2.152213   254A      2.210255  
     255A      2.329675   256A      2.431644   257A      2.443902  
     258A      2.471956   259A      2.474469   260A      2.509345  
     261A      2.518768   262A      2.533433   263A      2.558104  
     264A      2.573235   265A      2.576997   266A      2.588903  
     267A      2.594762   268A      2.603147   269A      2.624569  
     270A      2.629378   271A      2.648818   272A      2.659486  
     273A      2.669678   274A      2.675557   275A      2.688162  
     276A      2.691604   277A      2.697261   278A      2.730471  
     279A      2.743976   280A      2.753567   281A      2.767313  
     282A      2.788513   283A      2.796462   284A      2.807126  
     285A      2.837593   286A      2.845273   287A      2.859443  
     288A      2.883942   289A      2.905497   290A      2.929788  
     291A      2.932840   292A      2.949404   293A      2.958291  
     294A      2.972253   295A      2.993673   296A      3.007669  
     297A      3.030321   298A      3.046278   299A      3.060943  
     300A      3.089759   301A      3.121434   302A      3.140356  
     303A      3.199490   304A      3.209101   305A      3.214756  
     306A      3.234801   307A      3.242288   308A      3.259982  
     309A      3.265480   310A      3.291475   311A      3.308419  
     312A      3.317916   313A      3.321713   314A      3.330367  
     315A      3.374244   316A      3.376774   317A      3.396292  
     318A      3.410291   319A      3.442838   320A      3.466407  
     321A      3.469439   322A      3.483494   323A      3.502785  
     324A      3.606862   325A      3.635082   326A      3.662723  
     327A      3.690446   328A      3.761426   329A      3.775718  
     330A      3.810820   331A      3.832506   332A      3.907115  
     333A      3.961097   334A      4.215323   335A      4.264636  
     336A      4.337664   337A      4.362825   338A      4.408069  
     339A      4.433064   340A      4.440842   341A      4.457548  
     342A      4.467748   343A      4.513191   344A      4.515071  
     345A      4.532363   346A      4.555367   347A      4.573221  
     348A      4.576079   349A      4.596373   350A      4.598899  
     351A      4.618560   352A      4.631615   353A      4.655601  
     354A      4.674387   355A      4.674944   356A      4.699773  
     357A      4.707182   358A      4.734541   359A      4.749472  
     360A      4.766501   361A      4.783513   362A      4.789201  
     363A      4.802976   364A      4.823443   365A      4.832613  
     366A      4.877715   367A      4.906757   368A      4.968882  
     369A      4.990124   370A      5.009129   371A      5.020750  
     372A      5.034095   373A      5.057808   374A      5.075650  
     375A      5.083029   376A      5.101259   377A      5.123816  
     378A      5.143291   379A      5.148917   380A      5.183718  
     381A      5.199676   382A      5.222935   383A      5.249253  
     384A      5.259098   385A      5.317995   386A      5.340524  
     387A      5.352985   388A      5.440870   389A      5.467553  
     390A      5.475648   391A      5.478155   392A      5.484757  
     393A      5.559077   394A      5.576634   395A      5.592189  
     396A      5.598315   397A      5.614823   398A      5.674916  
     399A      5.686050   400A      5.711444   401A      5.717726  
     402A      5.743607   403A      5.770332   404A      5.817365  
     405A      5.845421   406A      5.910638   407A      5.997059  
     408A      6.196918   409A      6.212489   410A      6.243912  
     411A      6.282229   412A      6.337604   413A      6.362684  
     414A      6.381058   415A      6.390819   416A      6.422231  
     417A      6.603033   418A      6.660227   419A      6.694507  
     420A      6.761709   421A      6.777517   422A      6.819612  
     423A      7.004700   424A      7.036624   425A      7.058369  
     426A      7.074620   427A      7.087604   428A      7.102854  
     429A      7.209833   430A      7.256750   431A      7.299139  
     432A      7.391487   433A      7.422160   434A      7.459127  
     435A      7.477600   436A      7.512079   437A      7.691784  
     438A      7.714161   439A      7.757480   440A      7.764749  
     441A      7.786531   442A      7.814910   443A      7.829039  
     444A      7.857490   445A      7.907685   446A      7.920700  
     447A      8.051083   448A      8.103506   449A      8.112317  
     450A      8.134026   451A      8.154462   452A      8.178703  
     453A      8.214379   454A      8.254463   455A      8.280353  
     456A      8.298751   457A      8.310637   458A      8.313585  
     459A      8.347182   460A      8.663445   461A      8.728210  
     462A      8.756369   463A      8.769399   464A      8.780479  
     465A      8.793169   466A      8.804855   467A      8.862447  
     468A      8.891018   469A      9.873327   470A      9.885777  
     471A      9.926772   472A      9.975278   473A      9.983950  
     474A     10.006724   475A     10.016113   476A     10.035250  
     477A     10.055684   478A     10.064046   479A     10.106426  
     480A     10.115108   481A     10.144365   482A     10.215241  
     483A     10.233988   484A     10.322346   485A     10.885550  
     486A     11.046668   487A     11.121161   488A     11.208202  
     489A     11.814623   490A     11.846578   491A     11.887160  
     492A     11.951079   493A     12.086410   494A     12.120364  
     495A     12.187248   496A     12.192455   497A     13.417837  
     498A     13.475924   499A     13.499915   500A     13.594229  
     501A     13.951979   502A     13.963236   503A     14.008712  
     504A     14.088194   505A     16.160775   506A     64.533797  
     507A     64.746413   508A     64.822438   509A     64.923303  
     510A     65.328361  

    Final Occupation by Irrep:
              A 
    DOCC [     5 ]
    NA   [     5 ]
    NB   [     5 ]

  @DF-RHF Final Energy:   -76.05853512518949

   => Energetics <=

    Nuclear Repulsion Energy =              9.0763349021513022
    One-Electron Energy =                -122.8217134522933520
    Two-Electron Energy =                  37.6868434249525492
    Total Energy =                        -76.0585351251895077

Computation Completed


Properties will be evaluated at   0.000000,   0.000000,   0.000000 [a0]

Properties computed using the SCF density matrix


 Multipole Moments:

 ------------------------------------------------------------------------------------
     Multipole            Electronic (a.u.)      Nuclear  (a.u.)        Total (a.u.)
 ------------------------------------------------------------------------------------

 L = 1.  Multiply by 2.5417464519 to convert [e a0] to [Debye]
 Dipole X            :         42.3356540          -42.6230203           -0.2873664
 Dipole Y            :         24.4850202          -24.2411686            0.2438516
 Dipole Z            :         -6.7923598            7.5119202            0.7195605
 Magnitude           :                                                    0.8122871

 ------------------------------------------------------------------------------------

*** tstop() called on ddmfs1 at Mon Jan 22 14:00:05 2024
Module time:
	user time   =      92.22 seconds =       1.54 minutes
	system time =       5.72 seconds =       0.10 minutes
	total time  =          6 seconds =       0.10 minutes
Total time:
	user time   =      92.22 seconds =       1.54 minutes
	system time =       5.72 seconds =       0.10 minutes
	total time  =          6 seconds =       0.10 minutes

*** tstart() called on ddmfs1
*** at Mon Jan 22 14:00:05 2024


  //>>>>>>>>>>>>>>>>>>>>>>>>>>>>>>>>>>>//
  //               DFMP2               //
  //<<<<<<<<<<<<<<<<<<<<<<<<<<<<<<<<<<<//

   => Loading Basis Set <=

    Name: (AUG-CC-PVTZ AUX)
    Role: RIFIT
    Keyword: DF_BASIS_MP2
    atoms 1                            entry NA         line   610 file /ddmfs1b/softs/psi4conda/share/psi4/basis/def2-qzvpp-ri.gbs 
    atoms 2, 5, 8, 11, 14              entry O          line   264 file /ddmfs1b/softs/psi4conda/share/psi4/basis/aug-cc-pvtz-ri.gbs 
    atoms 3-4, 6-7, 9-10, 12-13, 15-16 entry H          line    30 file /ddmfs1b/softs/psi4conda/share/psi4/basis/aug-cc-pvtz-ri.gbs 

	 --------------------------------------------------------
	                          DF-MP2                         
	      2nd-Order Density-Fitted Moller-Plesset Theory     
	              RMP2 Wavefunction,  20 Threads             
	                                                         
	        Rob Parrish, Justin Turney, Andy Simmonett,      
	           Ed Hohenstein, and C. David Sherrill          
	 --------------------------------------------------------

   => Auxiliary Basis Set <=

  Basis Set: (AUG-CC-PVTZ AUX)
    Blend: AUG-CC-PVTZ-RI + DEF2-QZVPP-RI
    Number of shells: 322
    Number of basis functions: 1156
    Number of Cartesian functions: 1444
    Spherical Harmonics?: true
    Max angular momentum: 4

	 --------------------------------------------------------
	                 NBF =   510, NAUX =  1156
	 --------------------------------------------------------
	   CLASS    FOCC     OCC    AOCC    AVIR     VIR    FVIR
	   PAIRS       0       5       5     505     505       0
	 --------------------------------------------------------

	-----------------------------------------------------------
	 ==================> DF-MP2 Energies <==================== 
	-----------------------------------------------------------
	 Reference Energy          =     -76.0585351251894934 [Eh]
	 Singles Energy            =      -0.0000000000000000 [Eh]
	 Same-Spin Energy          =      -0.0687739179691030 [Eh]
	 Opposite-Spin Energy      =      -0.2170467315595601 [Eh]
	 Correlation Energy        =      -0.2858206495286632 [Eh]
	 Total Energy              =     -76.3443557747181529 [Eh]
	-----------------------------------------------------------
	 ================> DF-SCS-MP2 Energies <================== 
	-----------------------------------------------------------
	 SCS Same-Spin Scale       =       0.3333333333333333 [-]
	 SCS Opposite-Spin Scale   =       1.2000000000000000 [-]
	 SCS Same-Spin Energy      =      -0.0229246393230343 [Eh]
	 SCS Opposite-Spin Energy  =      -0.2604560778714721 [Eh]
	 SCS Correlation Energy    =      -0.2833807171945065 [Eh]
	 SCS Total Energy          =     -76.3419158423839974 [Eh]
	-----------------------------------------------------------


*** tstop() called on ddmfs1 at Mon Jan 22 14:00:12 2024
Module time:
	user time   =      28.69 seconds =       0.48 minutes
	system time =       1.93 seconds =       0.03 minutes
	total time  =          7 seconds =       0.12 minutes
Total time:
	user time   =     120.93 seconds =       2.02 minutes
	system time =       7.65 seconds =       0.13 minutes
	total time  =         13 seconds =       0.22 minutes

    Psi4 stopped on: Monday, 22 January 2024 02:00PM
    Psi4 wall time for execution: 0:00:13.24

*** Psi4 exiting successfully. Buy a developer a beer!
