
    -----------------------------------------------------------------------
          Psi4: An Open-Source Ab Initio Electronic Structure Package
                               Psi4 1.8.2 release

                         Git: Rev {} zzzzzzz 


    D. G. A. Smith, L. A. Burns, A. C. Simmonett, R. M. Parrish,
    M. C. Schieber, R. Galvelis, P. Kraus, H. Kruse, R. Di Remigio,
    A. Alenaizan, A. M. James, S. Lehtola, J. P. Misiewicz, M. Scheurer,
    R. A. Shaw, J. B. Schriber, Y. Xie, Z. L. Glick, D. A. Sirianni,
    J. S. O'Brien, J. M. Waldrop, A. Kumar, E. G. Hohenstein,
    B. P. Pritchard, B. R. Brooks, H. F. Schaefer III, A. Yu. Sokolov,
    K. Patkowski, A. E. DePrince III, U. Bozkaya, R. A. King,
    F. A. Evangelista, J. M. Turney, T. D. Crawford, C. D. Sherrill,
    J. Chem. Phys. 152(18) 184108 (2020). https://doi.org/10.1063/5.0006002

                            Additional Code Authors
    E. T. Seidl, C. L. Janssen, E. F. Valeev, M. L. Leininger,
    J. F. Gonthier, R. M. Richard, H. R. McAlexander, M. Saitow, X. Wang,
    P. Verma, M. H. Lechner, A. Jiang, S. Behnle, A. G. Heide,
    M. F. Herbst, and D. L. Poole

             Previous Authors, Complete List of Code Contributors,
                       and Citations for Specific Modules
    https://github.com/psi4/psi4/blob/master/codemeta.json
    https://github.com/psi4/psi4/graphs/contributors
    http://psicode.org/psi4manual/master/introduction.html#citing-psifour

    -----------------------------------------------------------------------


    Psi4 started on: Monday, 22 January 2024 02:33PM

    Process ID: 67377
    Host:       ddmfs1
    PSIDATADIR: /ddmfs1b/softs/psi4conda/share/psi4
    Memory:     500.0 MiB
    Threads:    20
    
  ==> Input File <==

--------------------------------------------------------------------------
MEMORY 60 GB

molecule dimer {
0 1
Gh(Na)     0.000000     0.000000     0.000000
O         -1.599330     1.629936    -0.826504
H         -2.060317     0.981063    -1.364915
H         -1.486177     2.393893    -1.396625
Gh(O)     -0.042840    -0.395400    -2.442957
Gh(H)      0.550503     0.190653    -2.874800
Gh(H)     -0.913132    -0.259864    -2.869914
Gh(O)     -0.515091    -0.239782     2.281892
Gh(H)     -1.087173    -1.040340     2.258925
Gh(H)     -0.899990     0.406767     2.844373
Gh(O)      1.517695     1.592560     0.966864
Gh(H)      2.451653     1.871029     1.146830
Gh(H)      0.876999     1.867977     1.656428

units ang
no_reorient
no_com
symmetry c1
}

set {
basis        aug-cc-pVTZ
scf_type     df
}

energy("mp2")
--------------------------------------------------------------------------

  Memory set to  55.879 GiB by Python driver.

Scratch directory: /ddmfs1a/scratch/
   => Libint2 <=

    Primary   basis highest AM E, G, H:  5, 4, 3
    Auxiliary basis highest AM E, G, H:  6, 5, 4
    Onebody   basis highest AM E, G, H:  6, 5, 4
    Solid Harmonics ordering:            gaussian

*** tstart() called on ddmfs1
*** at Mon Jan 22 14:33:07 2024

   => Loading Basis Set <=

    Name: AUG-CC-PVTZ
    Role: ORBITAL
    Keyword: BASIS
    atoms 1                     entry NA         line   469 file /ddmfs1b/softs/psi4conda/share/psi4/basis/aug-cc-pvtz.gbs 
    atoms 2, 5, 8, 11           entry O          line   331 file /ddmfs1b/softs/psi4conda/share/psi4/basis/aug-cc-pvtz.gbs 
    atoms 3-4, 6-7, 9-10, 12-13 entry H          line    40 file /ddmfs1b/softs/psi4conda/share/psi4/basis/aug-cc-pvtz.gbs 


         ---------------------------------------------------------
                                   SCF
               by Justin Turney, Rob Parrish, Andy Simmonett
                          and Daniel G. A. Smith
                              RHF Reference
                       20 Threads,  57220 MiB Core
         ---------------------------------------------------------

  ==> Geometry <==

    Molecular point group: c1
    Full point group: C1

    Geometry (in Angstrom), charge = 0, multiplicity = 1:

       Center              X                  Y                   Z               Mass       
    ------------   -----------------  -----------------  -----------------  -----------------
      Gh(NA)          0.000000000000     0.000000000000     0.000000000000    22.989769282000
         O           -1.599330000000     1.629936000000    -0.826504000000    15.994914619570
         H           -2.060317000000     0.981063000000    -1.364915000000     1.007825032230
         H           -1.486177000000     2.393893000000    -1.396625000000     1.007825032230
      Gh(O)          -0.042840000000    -0.395400000000    -2.442957000000    15.994914619570
      Gh(H)           0.550503000000     0.190653000000    -2.874800000000     1.007825032230
      Gh(H)          -0.913132000000    -0.259864000000    -2.869914000000     1.007825032230
      Gh(O)          -0.515091000000    -0.239782000000     2.281892000000    15.994914619570
      Gh(H)          -1.087173000000    -1.040340000000     2.258925000000     1.007825032230
      Gh(H)          -0.899990000000     0.406767000000     2.844373000000     1.007825032230
      Gh(O)           1.517695000000     1.592560000000     0.966864000000    15.994914619570
      Gh(H)           2.451653000000     1.871029000000     1.146830000000     1.007825032230
      Gh(H)           0.876999000000     1.867977000000     1.656428000000     1.007825032230

  Running in c1 symmetry.

  Rotational constants: A =      0.08758  B =      0.04937  C =      0.04799 [cm^-1]
  Rotational constants: A =   2625.54884  B =   1479.95735  C =   1438.57939 [MHz]
  Nuclear repulsion =    9.162470262031487

  Charge       = 0
  Multiplicity = 1
  Electrons    = 10
  Nalpha       = 5
  Nbeta        = 5

  ==> Algorithm <==

  SCF Algorithm Type is DF.
  DIIS enabled.
  MOM disabled.
  Fractional occupation disabled.
  Guess Type is SAD.
  Energy threshold   = 1.00e-08
  Density threshold  = 1.00e-08
  Integral threshold = 1.00e-12

  ==> Primary Basis <==

  Basis Set: AUG-CC-PVTZ
    Blend: AUG-CC-PVTZ
    Number of shells: 144
    Number of basis functions: 418
    Number of Cartesian functions: 479
    Spherical Harmonics?: true
    Max angular momentum: 3

   => Loading Basis Set <=

    Name: (AUG-CC-PVTZ AUX)
    Role: JKFIT
    Keyword: DF_BASIS_SCF
    atoms 1                     entry NA         line   498 file /ddmfs1b/softs/psi4conda/share/psi4/basis/def2-universal-jkfit.gbs 
    atoms 2, 5, 8, 11           entry O          line   286 file /ddmfs1b/softs/psi4conda/share/psi4/basis/aug-cc-pvtz-jkfit.gbs 
    atoms 3-4, 6-7, 9-10, 12-13 entry H          line    70 file /ddmfs1b/softs/psi4conda/share/psi4/basis/aug-cc-pvtz-jkfit.gbs 

  ==> Integral Setup <==

  DFHelper Memory: AOs need 1.141 GiB; user supplied 41.910 GiB. 
  Using in-core AOs.

  ==> MemDFJK: Density-Fitted J/K Matrices <==

    J tasked:                   Yes
    K tasked:                   Yes
    wK tasked:                   No
    OpenMP threads:              20
    Memory [MiB]:             42915
    Algorithm:                 Core
    Schwarz Cutoff:           1E-12
    Mask sparsity (%):       7.8959
    Fitting Condition:        1E-10

   => Auxiliary Basis Set <=

  Basis Set: (AUG-CC-PVTZ AUX)
    Blend: AUG-CC-PVTZ-JKFIT + DEF2-UNIVERSAL-JKFIT
    Number of shells: 266
    Number of basis functions: 896
    Number of Cartesian functions: 1101
    Spherical Harmonics?: true
    Max angular momentum: 4

  Minimum eigenvalue in the overlap matrix is 5.0447330487E-05.
  Reciprocal condition number of the overlap matrix is 3.9682639169E-06.
    Using symmetric orthogonalization.

  ==> Pre-Iterations <==

  SCF Guess: Superposition of Atomic Densities via on-the-fly atomic UHF (no occupation information).

   -------------------------
    Irrep   Nso     Nmo    
   -------------------------
     A        418     418 
   -------------------------
    Total     418     418
   -------------------------

  ==> Iterations <==

                           Total Energy        Delta E     RMS |[F,P]|

   @DF-RHF iter SAD:   -75.47373276597401   -7.54737e+01   0.00000e+00 
   @DF-RHF iter   1:   -75.97621685642466   -5.02484e-01   1.12060e-03 ADIIS/DIIS
   @DF-RHF iter   2:   -76.02866818062918   -5.24513e-02   7.63995e-04 ADIIS/DIIS
   @DF-RHF iter   3:   -76.06010701161917   -3.14388e-02   5.19722e-05 DIIS
   @DF-RHF iter   4:   -76.06049879680671   -3.91785e-04   1.24501e-05 DIIS
   @DF-RHF iter   5:   -76.06052331171520   -2.45149e-05   2.82695e-06 DIIS
   @DF-RHF iter   6:   -76.06052532085461   -2.00914e-06   6.21995e-07 DIIS
   @DF-RHF iter   7:   -76.06052542821651   -1.07362e-07   1.13610e-07 DIIS
   @DF-RHF iter   8:   -76.06052543137341   -3.15690e-09   1.90129e-08 DIIS
   @DF-RHF iter   9:   -76.06052543144294   -6.95337e-11   4.71092e-09 DIIS
  Energy and wave function converged.


  ==> Post-Iterations <==

    Orbital Energies [Eh]
    ---------------------

    Doubly Occupied:                                                      

       1A    -20.567279     2A     -1.351378     3A     -0.717173  
       4A     -0.583004     5A     -0.509875  

    Virtual:                                                              

       6A      0.007787     7A      0.016258     8A      0.017264  
       9A      0.018449    10A      0.039374    11A      0.052491  
      12A      0.054097    13A      0.054991    14A      0.057866  
      15A      0.058899    16A      0.060261    17A      0.064372  
      18A      0.068794    19A      0.080450    20A      0.084223  
      21A      0.086133    22A      0.090523    23A      0.094447  
      24A      0.098047    25A      0.104650    26A      0.113792  
      27A      0.138096    28A      0.138904    29A      0.146372  
      30A      0.159129    31A      0.168045    32A      0.171109  
      33A      0.175828    34A      0.187471    35A      0.190450  
      36A      0.201925    37A      0.203026    38A      0.206553  
      39A      0.211195    40A      0.214906    41A      0.228661  
      42A      0.236516    43A      0.245177    44A      0.255090  
      45A      0.266901    46A      0.274104    47A      0.279915  
      48A      0.287337    49A      0.292301    50A      0.297198  
      51A      0.309654    52A      0.317311    53A      0.321873  
      54A      0.330445    55A      0.344984    56A      0.345720  
      57A      0.351915    58A      0.355589    59A      0.365308  
      60A      0.371888    61A      0.381703    62A      0.390410  
      63A      0.395887    64A      0.398194    65A      0.402288  
      66A      0.410575    67A      0.415062    68A      0.423035  
      69A      0.429108    70A      0.434682    71A      0.437206  
      72A      0.445031    73A      0.453984    74A      0.455694  
      75A      0.463779    76A      0.468461    77A      0.472694  
      78A      0.480387    79A      0.483488    80A      0.490117  
      81A      0.502964    82A      0.506989    83A      0.512079  
      84A      0.516478    85A      0.522631    86A      0.533473  
      87A      0.546073    88A      0.565680    89A      0.572140  
      90A      0.577563    91A      0.591492    92A      0.601352  
      93A      0.654017    94A      0.674602    95A      0.680553  
      96A      0.691885    97A      0.716729    98A      0.727654  
      99A      0.740523   100A      0.745750   101A      0.758261  
     102A      0.767755   103A      0.775460   104A      0.780106  
     105A      0.796177   106A      0.813391   107A      0.823205  
     108A      0.830063   109A      0.832864   110A      0.845415  
     111A      0.845585   112A      0.851662   113A      0.871030  
     114A      0.872805   115A      0.888093   116A      0.895447  
     117A      0.900132   118A      0.911509   119A      0.923177  
     120A      0.933819   121A      0.941818   122A      0.950559  
     123A      0.957462   124A      0.965914   125A      0.972296  
     126A      0.976733   127A      0.987411   128A      0.990793  
     129A      0.997601   130A      1.004055   131A      1.016346  
     132A      1.026822   133A      1.032361   134A      1.035253  
     135A      1.046336   136A      1.059384   137A      1.069966  
     138A      1.071353   139A      1.087175   140A      1.088732  
     141A      1.090108   142A      1.102245   143A      1.109034  
     144A      1.121855   145A      1.124603   146A      1.138940  
     147A      1.146965   148A      1.155853   149A      1.165273  
     150A      1.174396   151A      1.179800   152A      1.187290  
     153A      1.201755   154A      1.210402   155A      1.219835  
     156A      1.231625   157A      1.236361   158A      1.244881  
     159A      1.259028   160A      1.273371   161A      1.277930  
     162A      1.293484   163A      1.296847   164A      1.325953  
     165A      1.327740   166A      1.334028   167A      1.336326  
     168A      1.351000   169A      1.370502   170A      1.384090  
     171A      1.396496   172A      1.408398   173A      1.420217  
     174A      1.448398   175A      1.475725   176A      1.493518  
     177A      1.496944   178A      1.511934   179A      1.523580  
     180A      1.561441   181A      1.573830   182A      1.599286  
     183A      1.617977   184A      1.621291   185A      1.635471  
     186A      1.676603   187A      1.689919   188A      1.718361  
     189A      1.745245   190A      1.762929   191A      1.790218  
     192A      1.799874   193A      1.826255   194A      1.853673  
     195A      1.859931   196A      1.871055   197A      1.876038  
     198A      1.883358   199A      1.902070   200A      1.908480  
     201A      1.919187   202A      1.945285   203A      1.954971  
     204A      1.978951   205A      1.989034   206A      2.017532  
     207A      2.032564   208A      2.042792   209A      2.052030  
     210A      2.067343   211A      2.103343   212A      2.123555  
     213A      2.133852   214A      2.221849   215A      2.383671  
     216A      2.403444   217A      2.447397   218A      2.477735  
     219A      2.491746   220A      2.535664   221A      2.547161  
     222A      2.561905   223A      2.566449   224A      2.580715  
     225A      2.588437   226A      2.608349   227A      2.622354  
     228A      2.634559   229A      2.641570   230A      2.654216  
     231A      2.658730   232A      2.675756   233A      2.689569  
     234A      2.698629   235A      2.714635   236A      2.732100  
     237A      2.756728   238A      2.786666   239A      2.787357  
     240A      2.810385   241A      2.846352   242A      2.871788  
     243A      2.896291   244A      2.920716   245A      2.933786  
     246A      2.960415   247A      2.968138   248A      2.975484  
     249A      3.001330   250A      3.048732   251A      3.052544  
     252A      3.097512   253A      3.143729   254A      3.214546  
     255A      3.230900   256A      3.247071   257A      3.253139  
     258A      3.262002   259A      3.294218   260A      3.301365  
     261A      3.325499   262A      3.344321   263A      3.377630  
     264A      3.394146   265A      3.400387   266A      3.417568  
     267A      3.440985   268A      3.460980   269A      3.602680  
     270A      3.626324   271A      3.652844   272A      3.740545  
     273A      3.761175   274A      3.782798   275A      3.855073  
     276A      3.919533   277A      4.134564   278A      4.263144  
     279A      4.315674   280A      4.334413   281A      4.390932  
     282A      4.402919   283A      4.431529   284A      4.443836  
     285A      4.493848   286A      4.521931   287A      4.536848  
     288A      4.547723   289A      4.552116   290A      4.583533  
     291A      4.589247   292A      4.594738   293A      4.618956  
     294A      4.650656   295A      4.672305   296A      4.690388  
     297A      4.701908   298A      4.715048   299A      4.735869  
     300A      4.754738   301A      4.792830   302A      4.811983  
     303A      4.825112   304A      4.850692   305A      4.882778  
     306A      4.998363   307A      5.002959   308A      5.022633  
     309A      5.030757   310A      5.050054   311A      5.076741  
     312A      5.098929   313A      5.101970   314A      5.151588  
     315A      5.193801   316A      5.211231   317A      5.219835  
     318A      5.248451   319A      5.280874   320A      5.352551  
     321A      5.399371   322A      5.465378   323A      5.510942  
     324A      5.522554   325A      5.540818   326A      5.573335  
     327A      5.596352   328A      5.617223   329A      5.646985  
     330A      5.683621   331A      5.749909   332A      5.773759  
     333A      5.785281   334A      5.805632   335A      5.902193  
     336A      5.931214   337A      6.178741   338A      6.210342  
     339A      6.275723   340A      6.280848   341A      6.295790  
     342A      6.389917   343A      6.442807   344A      6.622542  
     345A      6.708861   346A      6.765970   347A      6.821573  
     348A      6.826550   349A      6.907674   350A      6.938101  
     351A      7.001847   352A      7.084226   353A      7.124395  
     354A      7.155936   355A      7.218161   356A      7.321721  
     357A      7.365341   358A      7.393505   359A      7.437699  
     360A      7.452014   361A      7.510182   362A      7.644393  
     363A      7.729060   364A      7.752823   365A      7.759356  
     366A      7.769381   367A      7.836092   368A      7.873004  
     369A      7.951598   370A      7.993272   371A      8.138032  
     372A      8.143429   373A      8.157243   374A      8.239889  
     375A      8.257827   376A      8.285435   377A      8.299870  
     378A      8.315039   379A      8.351696   380A      8.682706  
     381A      8.757064   382A      8.800817   383A      8.835262  
     384A      8.860129   385A      8.866895   386A      8.883566  
     387A      9.885016   388A      9.896724   389A      9.926986  
     390A      9.960109   391A      9.997484   392A     10.016912  
     393A     10.068281   394A     10.073166   395A     10.079019  
     396A     10.168655   397A     10.226680   398A     10.227828  
     399A     10.993322   400A     11.171861   401A     11.206904  
     402A     11.699978   403A     11.868390   404A     11.916489  
     405A     12.012590   406A     12.275747   407A     12.333361  
     408A     13.421622   409A     13.608195   410A     13.623285  
     411A     13.903550   412A     13.943755   413A     13.990569  
     414A     16.176517   415A     64.106110   416A     64.815125  
     417A     65.510034   418A     65.556171  

    Final Occupation by Irrep:
              A 
    DOCC [     5 ]
    NA   [     5 ]
    NB   [     5 ]

  @DF-RHF Final Energy:   -76.06052543144294

   => Energetics <=

    Nuclear Repulsion Energy =              9.1624702620314871
    One-Electron Energy =                -122.9885690081486018
    Two-Electron Energy =                  37.7655733146741781
    Total Energy =                        -76.0605254314429260

Computation Completed


Properties will be evaluated at   0.000000,   0.000000,   0.000000 [a0]

Properties computed using the SCF density matrix


 Multipole Moments:

 ------------------------------------------------------------------------------------
     Multipole            Electronic (a.u.)      Nuclear  (a.u.)        Total (a.u.)
 ------------------------------------------------------------------------------------

 L = 1.  Multiply by 2.5417464519 to convert [e a0] to [Debye]
 Dipole X            :         30.6488392          -30.8802678           -0.2314286
 Dipole Y            :        -30.9420468           31.0188037            0.0767569
 Dipole Z            :         16.9764545          -17.7134839           -0.7370294
 Magnitude           :                                                    0.7763138

 ------------------------------------------------------------------------------------

*** tstop() called on ddmfs1 at Mon Jan 22 14:33:12 2024
Module time:
	user time   =      61.96 seconds =       1.03 minutes
	system time =       4.64 seconds =       0.08 minutes
	total time  =          5 seconds =       0.08 minutes
Total time:
	user time   =      61.96 seconds =       1.03 minutes
	system time =       4.64 seconds =       0.08 minutes
	total time  =          5 seconds =       0.08 minutes

*** tstart() called on ddmfs1
*** at Mon Jan 22 14:33:12 2024


  //>>>>>>>>>>>>>>>>>>>>>>>>>>>>>>>>>>>//
  //               DFMP2               //
  //<<<<<<<<<<<<<<<<<<<<<<<<<<<<<<<<<<<//

   => Loading Basis Set <=

    Name: (AUG-CC-PVTZ AUX)
    Role: RIFIT
    Keyword: DF_BASIS_MP2
    atoms 1                     entry NA         line   610 file /ddmfs1b/softs/psi4conda/share/psi4/basis/def2-qzvpp-ri.gbs 
    atoms 2, 5, 8, 11           entry O          line   264 file /ddmfs1b/softs/psi4conda/share/psi4/basis/aug-cc-pvtz-ri.gbs 
    atoms 3-4, 6-7, 9-10, 12-13 entry H          line    30 file /ddmfs1b/softs/psi4conda/share/psi4/basis/aug-cc-pvtz-ri.gbs 

	 --------------------------------------------------------
	                          DF-MP2                         
	      2nd-Order Density-Fitted Moller-Plesset Theory     
	              RMP2 Wavefunction,  20 Threads             
	                                                         
	        Rob Parrish, Justin Turney, Andy Simmonett,      
	           Ed Hohenstein, and C. David Sherrill          
	 --------------------------------------------------------

   => Auxiliary Basis Set <=

  Basis Set: (AUG-CC-PVTZ AUX)
    Blend: AUG-CC-PVTZ-RI + DEF2-QZVPP-RI
    Number of shells: 266
    Number of basis functions: 958
    Number of Cartesian functions: 1198
    Spherical Harmonics?: true
    Max angular momentum: 4

	 --------------------------------------------------------
	                 NBF =   418, NAUX =   958
	 --------------------------------------------------------
	   CLASS    FOCC     OCC    AOCC    AVIR     VIR    FVIR
	   PAIRS       0       5       5     413     413       0
	 --------------------------------------------------------

	-----------------------------------------------------------
	 ==================> DF-MP2 Energies <==================== 
	-----------------------------------------------------------
	 Reference Energy          =     -76.0605254314429402 [Eh]
	 Singles Energy            =      -0.0000000000000000 [Eh]
	 Same-Spin Energy          =      -0.0684481895353266 [Eh]
	 Opposite-Spin Energy      =      -0.2159087427560596 [Eh]
	 Correlation Energy        =      -0.2843569322913862 [Eh]
	 Total Energy              =     -76.3448823637343281 [Eh]
	-----------------------------------------------------------
	 ================> DF-SCS-MP2 Energies <================== 
	-----------------------------------------------------------
	 SCS Same-Spin Scale       =       0.3333333333333333 [-]
	 SCS Opposite-Spin Scale   =       1.2000000000000000 [-]
	 SCS Same-Spin Energy      =      -0.0228160631784422 [Eh]
	 SCS Opposite-Spin Energy  =      -0.2590904913072715 [Eh]
	 SCS Correlation Energy    =      -0.2819065544857137 [Eh]
	 SCS Total Energy          =     -76.3424319859286555 [Eh]
	-----------------------------------------------------------


*** tstop() called on ddmfs1 at Mon Jan 22 14:33:17 2024
Module time:
	user time   =      21.48 seconds =       0.36 minutes
	system time =       1.64 seconds =       0.03 minutes
	total time  =          5 seconds =       0.08 minutes
Total time:
	user time   =      83.45 seconds =       1.39 minutes
	system time =       6.28 seconds =       0.10 minutes
	total time  =         10 seconds =       0.17 minutes

    Psi4 stopped on: Monday, 22 January 2024 02:33PM
    Psi4 wall time for execution: 0:00:09.78

*** Psi4 exiting successfully. Buy a developer a beer!
