
    -----------------------------------------------------------------------
          Psi4: An Open-Source Ab Initio Electronic Structure Package
                               Psi4 1.8.2 release

                         Git: Rev {} zzzzzzz 


    D. G. A. Smith, L. A. Burns, A. C. Simmonett, R. M. Parrish,
    M. C. Schieber, R. Galvelis, P. Kraus, H. Kruse, R. Di Remigio,
    A. Alenaizan, A. M. James, S. Lehtola, J. P. Misiewicz, M. Scheurer,
    R. A. Shaw, J. B. Schriber, Y. Xie, Z. L. Glick, D. A. Sirianni,
    J. S. O'Brien, J. M. Waldrop, A. Kumar, E. G. Hohenstein,
    B. P. Pritchard, B. R. Brooks, H. F. Schaefer III, A. Yu. Sokolov,
    K. Patkowski, A. E. DePrince III, U. Bozkaya, R. A. King,
    F. A. Evangelista, J. M. Turney, T. D. Crawford, C. D. Sherrill,
    J. Chem. Phys. 152(18) 184108 (2020). https://doi.org/10.1063/5.0006002

                            Additional Code Authors
    E. T. Seidl, C. L. Janssen, E. F. Valeev, M. L. Leininger,
    J. F. Gonthier, R. M. Richard, H. R. McAlexander, M. Saitow, X. Wang,
    P. Verma, M. H. Lechner, A. Jiang, S. Behnle, A. G. Heide,
    M. F. Herbst, and D. L. Poole

             Previous Authors, Complete List of Code Contributors,
                       and Citations for Specific Modules
    https://github.com/psi4/psi4/blob/master/codemeta.json
    https://github.com/psi4/psi4/graphs/contributors
    http://psicode.org/psi4manual/master/introduction.html#citing-psifour

    -----------------------------------------------------------------------


    Psi4 started on: Monday, 22 January 2024 02:45PM

    Process ID: 68583
    Host:       ddmfs1
    PSIDATADIR: /ddmfs1b/softs/psi4conda/share/psi4
    Memory:     500.0 MiB
    Threads:    20
    
  ==> Input File <==

--------------------------------------------------------------------------
MEMORY 60 GB

molecule dimer {
0 1
Gh(Na)     0.000000     0.000000     0.000000
Gh(O)     -0.451034    -1.697463     1.269793
Gh(H)     -1.299480    -1.713730     1.650871
Gh(H)      0.116268    -2.326969     1.787042
O          2.181291     0.802292     0.600639
H          2.001660     1.202889    -0.254796
H          1.826088     1.341891     1.245008
Gh(O)     -2.020617     0.591528    -1.382805
Gh(H)     -2.011262     0.924934    -2.259301
Gh(H)     -2.600586     1.147604    -0.907925
Gh(O)      1.106793     1.662868    -1.598105
Gh(H)      0.664469     2.524075    -1.599745
Gh(H)      1.116358     1.388905    -2.523674
Gh(O)     -1.021770     1.888638     1.155341
Gh(H)     -1.838470     1.688382     1.662850
Gh(H)     -1.163799     2.645063     0.665315

units ang
no_reorient
no_com
symmetry c1
}

set {
basis        aug-cc-pVTZ
scf_type     df
}

energy("mp2")
--------------------------------------------------------------------------

  Memory set to  55.879 GiB by Python driver.

Scratch directory: /ddmfs1a/scratch/
   => Libint2 <=

    Primary   basis highest AM E, G, H:  5, 4, 3
    Auxiliary basis highest AM E, G, H:  6, 5, 4
    Onebody   basis highest AM E, G, H:  6, 5, 4
    Solid Harmonics ordering:            gaussian

*** tstart() called on ddmfs1
*** at Mon Jan 22 14:45:50 2024

   => Loading Basis Set <=

    Name: AUG-CC-PVTZ
    Role: ORBITAL
    Keyword: BASIS
    atoms 1                            entry NA         line   469 file /ddmfs1b/softs/psi4conda/share/psi4/basis/aug-cc-pvtz.gbs 
    atoms 2, 5, 8, 11, 14              entry O          line   331 file /ddmfs1b/softs/psi4conda/share/psi4/basis/aug-cc-pvtz.gbs 
    atoms 3-4, 6-7, 9-10, 12-13, 15-16 entry H          line    40 file /ddmfs1b/softs/psi4conda/share/psi4/basis/aug-cc-pvtz.gbs 


         ---------------------------------------------------------
                                   SCF
               by Justin Turney, Rob Parrish, Andy Simmonett
                          and Daniel G. A. Smith
                              RHF Reference
                       20 Threads,  57220 MiB Core
         ---------------------------------------------------------

  ==> Geometry <==

    Molecular point group: c1
    Full point group: C1

    Geometry (in Angstrom), charge = 0, multiplicity = 1:

       Center              X                  Y                   Z               Mass       
    ------------   -----------------  -----------------  -----------------  -----------------
      Gh(NA)          0.000000000000     0.000000000000     0.000000000000    22.989769282000
      Gh(O)          -0.451034000000    -1.697463000000     1.269793000000    15.994914619570
      Gh(H)          -1.299480000000    -1.713730000000     1.650871000000     1.007825032230
      Gh(H)           0.116268000000    -2.326969000000     1.787042000000     1.007825032230
         O            2.181291000000     0.802292000000     0.600639000000    15.994914619570
         H            2.001660000000     1.202889000000    -0.254796000000     1.007825032230
         H            1.826088000000     1.341891000000     1.245008000000     1.007825032230
      Gh(O)          -2.020617000000     0.591528000000    -1.382805000000    15.994914619570
      Gh(H)          -2.011262000000     0.924934000000    -2.259301000000     1.007825032230
      Gh(H)          -2.600586000000     1.147604000000    -0.907925000000     1.007825032230
      Gh(O)           1.106793000000     1.662868000000    -1.598105000000    15.994914619570
      Gh(H)           0.664469000000     2.524075000000    -1.599745000000     1.007825032230
      Gh(H)           1.116358000000     1.388905000000    -2.523674000000     1.007825032230
      Gh(O)          -1.021770000000     1.888638000000     1.155341000000    15.994914619570
      Gh(H)          -1.838470000000     1.688382000000     1.662850000000     1.007825032230
      Gh(H)          -1.163799000000     2.645063000000     0.665315000000     1.007825032230

  Running in c1 symmetry.

  Rotational constants: A =      0.05386  B =      0.04868  C =      0.03774 [cm^-1]
  Rotational constants: A =   1614.65269  B =   1459.35204  C =   1131.31423 [MHz]
  Nuclear repulsion =    9.391481172815350

  Charge       = 0
  Multiplicity = 1
  Electrons    = 10
  Nalpha       = 5
  Nbeta        = 5

  ==> Algorithm <==

  SCF Algorithm Type is DF.
  DIIS enabled.
  MOM disabled.
  Fractional occupation disabled.
  Guess Type is SAD.
  Energy threshold   = 1.00e-08
  Density threshold  = 1.00e-08
  Integral threshold = 1.00e-12

  ==> Primary Basis <==

  Basis Set: AUG-CC-PVTZ
    Blend: AUG-CC-PVTZ
    Number of shells: 176
    Number of basis functions: 510
    Number of Cartesian functions: 584
    Spherical Harmonics?: true
    Max angular momentum: 3

   => Loading Basis Set <=

    Name: (AUG-CC-PVTZ AUX)
    Role: JKFIT
    Keyword: DF_BASIS_SCF
    atoms 1                            entry NA         line   498 file /ddmfs1b/softs/psi4conda/share/psi4/basis/def2-universal-jkfit.gbs 
    atoms 2, 5, 8, 11, 14              entry O          line   286 file /ddmfs1b/softs/psi4conda/share/psi4/basis/aug-cc-pvtz-jkfit.gbs 
    atoms 3-4, 6-7, 9-10, 12-13, 15-16 entry H          line    70 file /ddmfs1b/softs/psi4conda/share/psi4/basis/aug-cc-pvtz-jkfit.gbs 

  ==> Integral Setup <==

  DFHelper Memory: AOs need 2.058 GiB; user supplied 41.910 GiB. 
  Using in-core AOs.

  ==> MemDFJK: Density-Fitted J/K Matrices <==

    J tasked:                   Yes
    K tasked:                   Yes
    wK tasked:                   No
    OpenMP threads:              20
    Memory [MiB]:             42915
    Algorithm:                 Core
    Schwarz Cutoff:           1E-12
    Mask sparsity (%):       7.4571
    Fitting Condition:        1E-10

   => Auxiliary Basis Set <=

  Basis Set: (AUG-CC-PVTZ AUX)
    Blend: AUG-CC-PVTZ-JKFIT + DEF2-UNIVERSAL-JKFIT
    Number of shells: 324
    Number of basis functions: 1092
    Number of Cartesian functions: 1342
    Spherical Harmonics?: true
    Max angular momentum: 4

  Minimum eigenvalue in the overlap matrix is 2.1268062184E-05.
  Reciprocal condition number of the overlap matrix is 1.4043921651E-06.
    Using symmetric orthogonalization.

  ==> Pre-Iterations <==

  SCF Guess: Superposition of Atomic Densities via on-the-fly atomic UHF (no occupation information).

   -------------------------
    Irrep   Nso     Nmo    
   -------------------------
     A        510     510 
   -------------------------
    Total     510     510
   -------------------------

  ==> Iterations <==

                           Total Energy        Delta E     RMS |[F,P]|

   @DF-RHF iter SAD:   -75.49646026491997   -7.54965e+01   0.00000e+00 
   @DF-RHF iter   1:   -75.97629826035272   -4.79838e-01   9.25416e-04 ADIIS/DIIS
   @DF-RHF iter   2:   -76.02967622464641   -5.33780e-02   6.13549e-04 ADIIS/DIIS
   @DF-RHF iter   3:   -76.05947285737128   -2.97966e-02   4.16300e-05 DIIS
   @DF-RHF iter   4:   -76.05984146387706   -3.68607e-04   9.51718e-06 DIIS
   @DF-RHF iter   5:   -76.05986206127726   -2.05974e-05   2.11961e-06 DIIS
   @DF-RHF iter   6:   -76.05986371037496   -1.64910e-06   4.71993e-07 DIIS
   @DF-RHF iter   7:   -76.05986380227409   -9.18991e-08   9.03801e-08 DIIS
   @DF-RHF iter   8:   -76.05986380530273   -3.02863e-09   1.46931e-08 DIIS
   @DF-RHF iter   9:   -76.05986380536483   -6.21014e-11   3.56133e-09 DIIS
  Energy and wave function converged.


  ==> Post-Iterations <==

    Orbital Energies [Eh]
    ---------------------

    Doubly Occupied:                                                      

       1A    -20.561695     2A     -1.362259     3A     -0.736076  
       4A     -0.581644     5A     -0.511125  

    Virtual:                                                              

       6A      0.006507     7A      0.015907     8A      0.016296  
       9A      0.018263    10A      0.033972    11A      0.049398  
      12A      0.052102    13A      0.053270    14A      0.055743  
      15A      0.056967    16A      0.057714    17A      0.060219  
      18A      0.062909    19A      0.078554    20A      0.082506  
      21A      0.084436    22A      0.087077    23A      0.090003  
      24A      0.090791    25A      0.093752    26A      0.101027  
      27A      0.109559    28A      0.120905    29A      0.130622  
      30A      0.134650    31A      0.140953    32A      0.161850  
      33A      0.164529    34A      0.166539    35A      0.171135  
      36A      0.174859    37A      0.182764    38A      0.193836  
      39A      0.201863    40A      0.202903    41A      0.208054  
      42A      0.215589    43A      0.216638    44A      0.222560  
      45A      0.229307    46A      0.237054    47A      0.238519  
      48A      0.243920    49A      0.247228    50A      0.257672  
      51A      0.269974    52A      0.281524    53A      0.283952  
      54A      0.287421    55A      0.299331    56A      0.312756  
      57A      0.325566    58A      0.327732    59A      0.332435  
      60A      0.336895    61A      0.343562    62A      0.345634  
      63A      0.352562    64A      0.356623    65A      0.364376  
      66A      0.373389    67A      0.380294    68A      0.382606  
      69A      0.387209    70A      0.398955    71A      0.400225  
      72A      0.410934    73A      0.413211    74A      0.420835  
      75A      0.424948    76A      0.432011    77A      0.433539  
      78A      0.444674    79A      0.447487    80A      0.449009  
      81A      0.449497    82A      0.457525    83A      0.462207  
      84A      0.466908    85A      0.470520    86A      0.476883  
      87A      0.479965    88A      0.493972    89A      0.499113  
      90A      0.500861    91A      0.510149    92A      0.517069  
      93A      0.520268    94A      0.525981    95A      0.529927  
      96A      0.545931    97A      0.550691    98A      0.552286  
      99A      0.562788   100A      0.568160   101A      0.574219  
     102A      0.582052   103A      0.600473   104A      0.615938  
     105A      0.625437   106A      0.658734   107A      0.677586  
     108A      0.686171   109A      0.705811   110A      0.711556  
     111A      0.719235   112A      0.731588   113A      0.747851  
     114A      0.755952   115A      0.760502   116A      0.770813  
     117A      0.776139   118A      0.785674   119A      0.790109  
     120A      0.801204   121A      0.812152   122A      0.813662  
     123A      0.832031   124A      0.834263   125A      0.842713  
     126A      0.846745   127A      0.850875   128A      0.859302  
     129A      0.868337   130A      0.878086   131A      0.888271  
     132A      0.891259   133A      0.906351   134A      0.915416  
     135A      0.927669   136A      0.931187   137A      0.940943  
     138A      0.943669   139A      0.947851   140A      0.950781  
     141A      0.965476   142A      0.971244   143A      0.982426  
     144A      0.987613   145A      0.992606   146A      0.993388  
     147A      1.001586   148A      1.010691   149A      1.017580  
     150A      1.027185   151A      1.034561   152A      1.043106  
     153A      1.047960   154A      1.057554   155A      1.065600  
     156A      1.070006   157A      1.079834   158A      1.084296  
     159A      1.091229   160A      1.094018   161A      1.101921  
     162A      1.104364   163A      1.119249   164A      1.125116  
     165A      1.130893   166A      1.143264   167A      1.143828  
     168A      1.155753   169A      1.157893   170A      1.160615  
     171A      1.169392   172A      1.178012   173A      1.197526  
     174A      1.201531   175A      1.214529   176A      1.217490  
     177A      1.219934   178A      1.226416   179A      1.246530  
     180A      1.253406   181A      1.255417   182A      1.281577  
     183A      1.286444   184A      1.289289   185A      1.296167  
     186A      1.310716   187A      1.314746   188A      1.327311  
     189A      1.334201   190A      1.349160   191A      1.363405  
     192A      1.363947   193A      1.374235   194A      1.392578  
     195A      1.396312   196A      1.413069   197A      1.419021  
     198A      1.434377   199A      1.445113   200A      1.449938  
     201A      1.456246   202A      1.463272   203A      1.472701  
     204A      1.490604   205A      1.507324   206A      1.514353  
     207A      1.536109   208A      1.547338   209A      1.560766  
     210A      1.574700   211A      1.591825   212A      1.613429  
     213A      1.623168   214A      1.625919   215A      1.646943  
     216A      1.669243   217A      1.670452   218A      1.692896  
     219A      1.709811   220A      1.718125   221A      1.742564  
     222A      1.757555   223A      1.766539   224A      1.775916  
     225A      1.799364   226A      1.817812   227A      1.834137  
     228A      1.848930   229A      1.860313   230A      1.877865  
     231A      1.891475   232A      1.893784   233A      1.911515  
     234A      1.922697   235A      1.948988   236A      1.956124  
     237A      1.971222   238A      1.979558   239A      1.987046  
     240A      2.007072   241A      2.011975   242A      2.022092  
     243A      2.045428   244A      2.061194   245A      2.065570  
     246A      2.076648   247A      2.095290   248A      2.107177  
     249A      2.131427   250A      2.147502   251A      2.162291  
     252A      2.173974   253A      2.217168   254A      2.247396  
     255A      2.430966   256A      2.450501   257A      2.458095  
     258A      2.509688   259A      2.513464   260A      2.530442  
     261A      2.540920   262A      2.555902   263A      2.566987  
     264A      2.570927   265A      2.582063   266A      2.592729  
     267A      2.600598   268A      2.618463   269A      2.628845  
     270A      2.639654   271A      2.649998   272A      2.653520  
     273A      2.674068   274A      2.682969   275A      2.705624  
     276A      2.713309   277A      2.722747   278A      2.729622  
     279A      2.752550   280A      2.760746   281A      2.784092  
     282A      2.794155   283A      2.802841   284A      2.823445  
     285A      2.870067   286A      2.894647   287A      2.910352  
     288A      2.913886   289A      2.923978   290A      2.947260  
     291A      2.968742   292A      2.972341   293A      2.981138  
     294A      2.989373   295A      3.010736   296A      3.024020  
     297A      3.047577   298A      3.069575   299A      3.104303  
     300A      3.112049   301A      3.124893   302A      3.154885  
     303A      3.238965   304A      3.248838   305A      3.267588  
     306A      3.275939   307A      3.289453   308A      3.305532  
     309A      3.309490   310A      3.328638   311A      3.331188  
     312A      3.350948   313A      3.363939   314A      3.369284  
     315A      3.380376   316A      3.387862   317A      3.408304  
     318A      3.440782   319A      3.445607   320A      3.460716  
     321A      3.478985   322A      3.497733   323A      3.564210  
     324A      3.622430   325A      3.647431   326A      3.694630  
     327A      3.713615   328A      3.771834   329A      3.789093  
     330A      3.802437   331A      3.882685   332A      4.014959  
     333A      4.220686   334A      4.247669   335A      4.357997  
     336A      4.386614   337A      4.413476   338A      4.424800  
     339A      4.452806   340A      4.470062   341A      4.492886  
     342A      4.532411   343A      4.535809   344A      4.550847  
     345A      4.562718   346A      4.568954   347A      4.581542  
     348A      4.596687   349A      4.614783   350A      4.633430  
     351A      4.640096   352A      4.667542   353A      4.684838  
     354A      4.718786   355A      4.735371   356A      4.743236  
     357A      4.758743   358A      4.770481   359A      4.780629  
     360A      4.793874   361A      4.803066   362A      4.820982  
     363A      4.842146   364A      4.863414   365A      4.882679  
     366A      4.900407   367A      4.977642   368A      4.997134  
     369A      5.016517   370A      5.019910   371A      5.031939  
     372A      5.050369   373A      5.069040   374A      5.098836  
     375A      5.099688   376A      5.120437   377A      5.131384  
     378A      5.145547   379A      5.191323   380A      5.237565  
     381A      5.245832   382A      5.263456   383A      5.329944  
     384A      5.344811   385A      5.365892   386A      5.392694  
     387A      5.466133   388A      5.541583   389A      5.575997  
     390A      5.597484   391A      5.609724   392A      5.626861  
     393A      5.653622   394A      5.656651   395A      5.682937  
     396A      5.746286   397A      5.766967   398A      5.778835  
     399A      5.792403   400A      5.798286   401A      5.865007  
     402A      5.908827   403A      5.922840   404A      5.949872  
     405A      5.982388   406A      6.020299   407A      6.159043  
     408A      6.234152   409A      6.253260   410A      6.277526  
     411A      6.306190   412A      6.403652   413A      6.459220  
     414A      6.498078   415A      6.533754   416A      6.549237  
     417A      6.610280   418A      6.758510   419A      6.776148  
     420A      6.836413   421A      6.888991   422A      6.930100  
     423A      7.023465   424A      7.051340   425A      7.161988  
     426A      7.172623   427A      7.210713   428A      7.261187  
     429A      7.273749   430A      7.344333   431A      7.447633  
     432A      7.499971   433A      7.505485   434A      7.599071  
     435A      7.628052   436A      7.708907   437A      7.759273  
     438A      7.783102   439A      7.820659   440A      7.838536  
     441A      7.874981   442A      7.881752   443A      7.919980  
     444A      7.955964   445A      8.081033   446A      8.098200  
     447A      8.128782   448A      8.158902   449A      8.161514  
     450A      8.179880   451A      8.204263   452A      8.230248  
     453A      8.284158   454A      8.299779   455A      8.302736  
     456A      8.318560   457A      8.356251   458A      8.360204  
     459A      8.416756   460A      8.813612   461A      8.870024  
     462A      8.878743   463A      8.898909   464A      8.931160  
     465A      8.974077   466A      8.992200   467A      9.001222  
     468A      9.089344   469A      9.924055   470A      9.970677  
     471A      9.973096   472A      9.994106   473A     10.008491  
     474A     10.018566   475A     10.032227   476A     10.044239  
     477A     10.058438   478A     10.062084   479A     10.082382  
     480A     10.106339   481A     10.226703   482A     10.250323  
     483A     10.259115   484A     10.449749   485A     11.167922  
     486A     11.194265   487A     11.205534   488A     11.410737  
     489A     11.822934   490A     11.859331   491A     11.882829  
     492A     11.957543   493A     12.418124   494A     12.502097  
     495A     12.524685   496A     12.696642   497A     13.605443  
     498A     13.623043   499A     13.778306   500A     13.858851  
     501A     13.890521   502A     13.933228   503A     13.946641  
     504A     13.977418   505A     18.171563   506A     64.903382  
     507A     65.912793   508A     66.779808   509A     67.058124  
     510A     67.342498  

    Final Occupation by Irrep:
              A 
    DOCC [     5 ]
    NA   [     5 ]
    NB   [     5 ]

  @DF-RHF Final Energy:   -76.05986380536483

   => Energetics <=

    Nuclear Repulsion Energy =              9.3914811728153502
    One-Electron Energy =                -123.3970897106496665
    Two-Electron Energy =                  37.9457447324695067
    Total Energy =                        -76.0598638053648131

Computation Completed


Properties will be evaluated at   0.000000,   0.000000,   0.000000 [a0]

Properties computed using the SCF density matrix


 Multipole Moments:

 ------------------------------------------------------------------------------------
     Multipole            Electronic (a.u.)      Nuclear  (a.u.)        Total (a.u.)
 ------------------------------------------------------------------------------------

 L = 1.  Multiply by 2.5417464519 to convert [e a0] to [Debye]
 Dipole X            :        -40.5746982           40.2097361           -0.3649621
 Dipole Y            :        -16.2965345           16.9378345            0.6413000
 Dipole Z            :        -11.0877533           10.9515752           -0.1361781
 Magnitude           :                                                    0.7503383

 ------------------------------------------------------------------------------------

*** tstop() called on ddmfs1 at Mon Jan 22 14:45:56 2024
Module time:
	user time   =      92.77 seconds =       1.55 minutes
	system time =       5.73 seconds =       0.10 minutes
	total time  =          6 seconds =       0.10 minutes
Total time:
	user time   =      92.77 seconds =       1.55 minutes
	system time =       5.73 seconds =       0.10 minutes
	total time  =          6 seconds =       0.10 minutes

*** tstart() called on ddmfs1
*** at Mon Jan 22 14:45:56 2024


  //>>>>>>>>>>>>>>>>>>>>>>>>>>>>>>>>>>>//
  //               DFMP2               //
  //<<<<<<<<<<<<<<<<<<<<<<<<<<<<<<<<<<<//

   => Loading Basis Set <=

    Name: (AUG-CC-PVTZ AUX)
    Role: RIFIT
    Keyword: DF_BASIS_MP2
    atoms 1                            entry NA         line   610 file /ddmfs1b/softs/psi4conda/share/psi4/basis/def2-qzvpp-ri.gbs 
    atoms 2, 5, 8, 11, 14              entry O          line   264 file /ddmfs1b/softs/psi4conda/share/psi4/basis/aug-cc-pvtz-ri.gbs 
    atoms 3-4, 6-7, 9-10, 12-13, 15-16 entry H          line    30 file /ddmfs1b/softs/psi4conda/share/psi4/basis/aug-cc-pvtz-ri.gbs 

	 --------------------------------------------------------
	                          DF-MP2                         
	      2nd-Order Density-Fitted Moller-Plesset Theory     
	              RMP2 Wavefunction,  20 Threads             
	                                                         
	        Rob Parrish, Justin Turney, Andy Simmonett,      
	           Ed Hohenstein, and C. David Sherrill          
	 --------------------------------------------------------

   => Auxiliary Basis Set <=

  Basis Set: (AUG-CC-PVTZ AUX)
    Blend: AUG-CC-PVTZ-RI + DEF2-QZVPP-RI
    Number of shells: 322
    Number of basis functions: 1156
    Number of Cartesian functions: 1444
    Spherical Harmonics?: true
    Max angular momentum: 4

	 --------------------------------------------------------
	                 NBF =   510, NAUX =  1156
	 --------------------------------------------------------
	   CLASS    FOCC     OCC    AOCC    AVIR     VIR    FVIR
	   PAIRS       0       5       5     505     505       0
	 --------------------------------------------------------

	-----------------------------------------------------------
	 ==================> DF-MP2 Energies <==================== 
	-----------------------------------------------------------
	 Reference Energy          =     -76.0598638053648273 [Eh]
	 Singles Energy            =      -0.0000000000000000 [Eh]
	 Same-Spin Energy          =      -0.0680468443630244 [Eh]
	 Opposite-Spin Energy      =      -0.2152413348059048 [Eh]
	 Correlation Energy        =      -0.2832881791689292 [Eh]
	 Total Energy              =     -76.3431519845337618 [Eh]
	-----------------------------------------------------------
	 ================> DF-SCS-MP2 Energies <================== 
	-----------------------------------------------------------
	 SCS Same-Spin Scale       =       0.3333333333333333 [-]
	 SCS Opposite-Spin Scale   =       1.2000000000000000 [-]
	 SCS Same-Spin Energy      =      -0.0226822814543415 [Eh]
	 SCS Opposite-Spin Energy  =      -0.2582896017670858 [Eh]
	 SCS Correlation Energy    =      -0.2809718832214272 [Eh]
	 SCS Total Energy          =     -76.3408356885862531 [Eh]
	-----------------------------------------------------------


*** tstop() called on ddmfs1 at Mon Jan 22 14:46:03 2024
Module time:
	user time   =      28.44 seconds =       0.47 minutes
	system time =       2.12 seconds =       0.04 minutes
	total time  =          7 seconds =       0.12 minutes
Total time:
	user time   =     121.23 seconds =       2.02 minutes
	system time =       7.85 seconds =       0.13 minutes
	total time  =         13 seconds =       0.22 minutes

    Psi4 stopped on: Monday, 22 January 2024 02:46PM
    Psi4 wall time for execution: 0:00:13.33

*** Psi4 exiting successfully. Buy a developer a beer!
