
    -----------------------------------------------------------------------
          Psi4: An Open-Source Ab Initio Electronic Structure Package
                               Psi4 1.9 release

                         Git: Rev {} zzzzzzz 


    D. G. A. Smith, L. A. Burns, A. C. Simmonett, R. M. Parrish,
    M. C. Schieber, R. Galvelis, P. Kraus, H. Kruse, R. Di Remigio,
    A. Alenaizan, A. M. James, S. Lehtola, J. P. Misiewicz, M. Scheurer,
    R. A. Shaw, J. B. Schriber, Y. Xie, Z. L. Glick, D. A. Sirianni,
    J. S. O'Brien, J. M. Waldrop, A. Kumar, E. G. Hohenstein,
    B. P. Pritchard, B. R. Brooks, H. F. Schaefer III, A. Yu. Sokolov,
    K. Patkowski, A. E. DePrince III, U. Bozkaya, R. A. King,
    F. A. Evangelista, J. M. Turney, T. D. Crawford, C. D. Sherrill,
    J. Chem. Phys. 152(18) 184108 (2020). https://doi.org/10.1063/5.0006002

                            Additional Code Authors
    E. T. Seidl, C. L. Janssen, E. F. Valeev, M. L. Leininger,
    J. F. Gonthier, R. M. Richard, H. R. McAlexander, M. Saitow, X. Wang,
    P. Verma, M. H. Lechner, A. Jiang, S. Behnle, A. G. Heide,
    M. F. Herbst, and D. L. Poole

             Previous Authors, Complete List of Code Contributors,
                       and Citations for Specific Modules
    https://github.com/psi4/psi4/blob/master/codemeta.json
    https://github.com/psi4/psi4/graphs/contributors
    http://psicode.org/psi4manual/master/introduction.html#citing-psifour

    -----------------------------------------------------------------------


    Psi4 started on: Saturday, 06 January 2024 06:27PM

    Process ID: 551305
    Host:       moses-razer
    PSIDATADIR: /home/kchung25/anaconda3/envs/psi4_19/share/psi4
    Memory:     500.0 MiB
    Threads:    6
    
  ==> Input File <==

--------------------------------------------------------------------------
MEMORY 60 GB

molecule dimer {
1 1
Na     0.000000     0.000000     0.000000
--
0 1
O     -1.303188     1.664866     1.104595
H     -0.470288     2.199361     1.156535
H     -1.573108     1.918059     0.254875
O      0.729354    -2.356522     0.687908
H      1.312049    -1.877683     1.251734
H      0.115995    -2.750276     1.273369
O      0.100788    -0.239392    -2.295890
H     -0.074582     0.302705    -3.084869
H     -0.313292    -1.090884    -2.589965
O      2.035040     1.209218     0.044939
H      2.826981     0.709029     0.335038
H      2.348264     1.657480    -0.765905

units ang
no_reorient
no_com
symmetry c1
}

set {
basis        aug-cc-pVTZ
scf_type     df
}

energy("mp2", bsse_type="cp")
--------------------------------------------------------------------------

  Memory set to  55.879 GiB by Python driver.

Scratch directory: /scratch/

  //>>>>>>>>>>>>>>>>>>>>>>>>>>>>>>>>>>>>>//
  // ManyBody Setup: N-Body Levels [1, 2]//
  //<<<<<<<<<<<<<<<<<<<<<<<<<<<<<<<<<<<<<//

        Number of 1-body computations:     2
        Number of 2-body computations:     1

    -----------------------------------------------------------------------
          Psi4: An Open-Source Ab Initio Electronic Structure Package
                               Psi4 1.9 release

                         Git: Rev {} zzzzzzz 


    D. G. A. Smith, L. A. Burns, A. C. Simmonett, R. M. Parrish,
    M. C. Schieber, R. Galvelis, P. Kraus, H. Kruse, R. Di Remigio,
    A. Alenaizan, A. M. James, S. Lehtola, J. P. Misiewicz, M. Scheurer,
    R. A. Shaw, J. B. Schriber, Y. Xie, Z. L. Glick, D. A. Sirianni,
    J. S. O'Brien, J. M. Waldrop, A. Kumar, E. G. Hohenstein,
    B. P. Pritchard, B. R. Brooks, H. F. Schaefer III, A. Yu. Sokolov,
    K. Patkowski, A. E. DePrince III, U. Bozkaya, R. A. King,
    F. A. Evangelista, J. M. Turney, T. D. Crawford, C. D. Sherrill,
    J. Chem. Phys. 152(18) 184108 (2020). https://doi.org/10.1063/5.0006002

                            Additional Code Authors
    E. T. Seidl, C. L. Janssen, E. F. Valeev, M. L. Leininger,
    J. F. Gonthier, R. M. Richard, H. R. McAlexander, M. Saitow, X. Wang,
    P. Verma, M. H. Lechner, A. Jiang, S. Behnle, A. G. Heide,
    M. F. Herbst, and D. L. Poole

             Previous Authors, Complete List of Code Contributors,
                       and Citations for Specific Modules
    https://github.com/psi4/psi4/blob/master/codemeta.json
    https://github.com/psi4/psi4/graphs/contributors
    http://psicode.org/psi4manual/master/introduction.html#citing-psifour

    -----------------------------------------------------------------------


    Psi4 started on: Saturday, 06 January 2024 06:27PM

    Process ID: 551305
    Host:       moses-razer
    PSIDATADIR: /home/kchung25/anaconda3/envs/psi4_19/share/psi4
    Memory:     55.9 GiB
    Threads:    6
    
  ==> Input QCSchema <==

--------------------------------------------------------------------------
{'driver': 'energy',
 'extras': {'psiapi': True, 'wfn_qcvars_only': True},
 'id': None,
 'keywords': {'SCF_TYPE': 'DF', 'function_kwargs': {}},
 'model': {'basis': 'aug-cc-pvtz', 'method': 'mp2'},
 'molecule': {'atom_labels': ['', '', '', '', '', '', '', '', '', '', '', '', ''],
              'atomic_numbers': [11, 8, 1, 1, 8, 1, 1, 8, 1, 1, 8, 1, 1],
              'extras': {},
              'fix_com': True,
              'fix_orientation': True,
              'fix_symmetry': 'c1',
              'fragment_charges': [0.0, 0.0],
              'fragment_multiplicities': [1, 1],
              'fragments': [[0], [1, 2, 3, 4, 5, 6, 7, 8, 9, 10, 11, 12]],
              'geometry': [0.0, 0.0, 0.0, -2.462668409983136, 3.1461407755864723, 2.08738202955009, -0.8887155200893111,
                           4.1561899410130545, 2.1855344045063694, -2.972743285766713, 3.6246062024695163,
                           0.481643946226064, 1.3782793085071687, -4.453181188616132, 1.2999577195114436,
                           2.479413273180818, -3.5483066204280305, 2.3654344419238282, 0.21919878192248077,
                           -5.197268409419654, 2.406318666648109, 0.1904617167326436, -0.4523853166256004,
                           -4.338603314177373, -0.14093955388889573, 0.5720295468067119, -5.829557542914965,
                           -0.592036077296934, -2.0614719946439375, -4.894324524521384, 3.8456682543516987,
                           2.2850908459738637, 0.08492240235194934, 5.342219851872897, 1.3398706250072385,
                           0.6331300616211398, 4.437575830272102, 3.1321832584238405, -1.4473506881187779],
              'mass_numbers': [23, 16, 1, 1, 16, 1, 1, 16, 1, 1, 16, 1, 1],
              'masses': [22.989769282, 15.99491461957, 1.00782503223, 1.00782503223, 15.99491461957, 1.00782503223,
                         1.00782503223, 15.99491461957, 1.00782503223, 1.00782503223, 15.99491461957, 1.00782503223,
                         1.00782503223],
              'molecular_charge': 0.0,
              'molecular_multiplicity': 1,
              'name': 'dimer',
              'provenance': {'creator': 'QCElemental',
                             'routine': 'qcelemental.molparse.from_string',
                             'version': '0.27.1'},
              'real': [False, True, True, True, True, True, True, True, True, True, True, True, True],
              'schema_name': 'qcschema_molecule',
              'schema_version': 2,
              'symbols': ['Na', 'O', 'H', 'H', 'O', 'H', 'H', 'O', 'H', 'H', 'O', 'H', 'H'],
              'validated': True},
 'protocols': {'stdout': True},
 'provenance': {'creator': 'QCElemental', 'routine': 'qcelemental.models.results', 'version': '0.27.1'},
 'schema_name': 'qcschema_input',
 'schema_version': 1}
--------------------------------------------------------------------------

Scratch directory: /scratch/
   => Libint2 <=

    Primary   basis highest AM E, G, H:  5, 4, 3
    Auxiliary basis highest AM E, G, H:  6, 5, 4
    Onebody   basis highest AM E, G, H:  6, 5, 4
    Solid Harmonics ordering:            gaussian

*** tstart() called on moses-razer
*** at Sat Jan  6 18:27:01 2024

   => Loading Basis Set <=

    Name: AUG-CC-PVTZ
    Role: ORBITAL
    Keyword: BASIS
    atoms 1                     entry NA         line   469 file /home/kchung25/anaconda3/envs/p415env/share/psi4/basis/aug-cc-pvtz.gbs 
    atoms 2, 5, 8, 11           entry O          line   331 file /home/kchung25/anaconda3/envs/p415env/share/psi4/basis/aug-cc-pvtz.gbs 
    atoms 3-4, 6-7, 9-10, 12-13 entry H          line    40 file /home/kchung25/anaconda3/envs/p415env/share/psi4/basis/aug-cc-pvtz.gbs 


         ---------------------------------------------------------
                                   SCF
               by Justin Turney, Rob Parrish, Andy Simmonett
                          and Daniel G. A. Smith
                              RHF Reference
                        6 Threads,  57220 MiB Core
         ---------------------------------------------------------

  ==> Geometry <==

    Molecular point group: c1
    Full point group: C1

    Geometry (in Bohr), charge = 0, multiplicity = 1:

       Center              X                  Y                   Z               Mass       
    ------------   -----------------  -----------------  -----------------  -----------------
      Gh(NA)          0.000000000000     0.000000000000     0.000000000000    22.989769282000
         O           -2.462668409983     3.146140775586     2.087382029550    15.994914619570
         H           -0.888715520089     4.156189941013     2.185534404506     1.007825032230
         H           -2.972743285767     3.624606202470     0.481643946226     1.007825032230
         O            1.378279308507    -4.453181188616     1.299957719511    15.994914619570
         H            2.479413273181    -3.548306620428     2.365434441924     1.007825032230
         H            0.219198781922    -5.197268409420     2.406318666648     1.007825032230
         O            0.190461716733    -0.452385316626    -4.338603314177    15.994914619570
         H           -0.140939553889     0.572029546807    -5.829557542915     1.007825032230
         H           -0.592036077297    -2.061471994644    -4.894324524521     1.007825032230
         O            3.845668254352     2.285090845974     0.084922402352    15.994914619570
         H            5.342219851873     1.339870625007     0.633130061621     1.007825032230
         H            4.437575830272     3.132183258424    -1.447350688119     1.007825032230

  Running in c1 symmetry.

  Rotational constants: A =      0.06995  B =      0.05610  C =      0.05127 [cm^-1]
  Rotational constants: A =   2097.00272  B =   1681.82450  C =   1536.95310 [MHz]
  Nuclear repulsion =  117.662358382025715

  Charge       = 0
  Multiplicity = 1
  Electrons    = 40
  Nalpha       = 20
  Nbeta        = 20

  ==> Algorithm <==

  SCF Algorithm Type is DF.
  DIIS enabled.
  MOM disabled.
  Fractional occupation disabled.
  Guess Type is SAD.
  Energy threshold   = 1.00e-08
  Density threshold  = 1.00e-08
  Integral threshold = 1.00e-12

  ==> Primary Basis <==

  Basis Set: AUG-CC-PVTZ
    Blend: AUG-CC-PVTZ
    Number of shells: 144
    Number of basis functions: 418
    Number of Cartesian functions: 479
    Spherical Harmonics?: true
    Max angular momentum: 3

   => Loading Basis Set <=

    Name: (AUG-CC-PVTZ AUX)
    Role: JKFIT
    Keyword: DF_BASIS_SCF
    atoms 1                     entry NA         line   498 file /home/kchung25/anaconda3/envs/p415env/share/psi4/basis/def2-universal-jkfit.gbs 
    atoms 2, 5, 8, 11           entry O          line   286 file /home/kchung25/anaconda3/envs/p415env/share/psi4/basis/aug-cc-pvtz-jkfit.gbs 
    atoms 3-4, 6-7, 9-10, 12-13 entry H          line    70 file /home/kchung25/anaconda3/envs/p415env/share/psi4/basis/aug-cc-pvtz-jkfit.gbs 

  ==> Integral Setup <==

  DFHelper Memory: AOs need 1.125 GiB; user supplied 41.910 GiB. 
  Using in-core AOs.

  ==> MemDFJK: Density-Fitted J/K Matrices <==

    J tasked:                   Yes
    K tasked:                   Yes
    wK tasked:                   No
    OpenMP threads:               6
    Memory [MiB]:             42915
    Algorithm:                 Core
    Schwarz Cutoff:           1E-12
    Mask sparsity (%):       7.7803
    Fitting Condition:        1E-10

   => Auxiliary Basis Set <=

  Basis Set: (AUG-CC-PVTZ AUX)
    Blend: AUG-CC-PVTZ-JKFIT + DEF2-UNIVERSAL-JKFIT
    Number of shells: 266
    Number of basis functions: 896
    Number of Cartesian functions: 1101
    Spherical Harmonics?: true
    Max angular momentum: 4

  Minimum eigenvalue in the overlap matrix is 6.0032813881E-05.
  Reciprocal condition number of the overlap matrix is 4.8833782923E-06.
    Using symmetric orthogonalization.

  ==> Pre-Iterations <==

  SCF Guess: Superposition of Atomic Densities via on-the-fly atomic UHF (no occupation information).

   -------------------------
    Irrep   Nso     Nmo    
   -------------------------
     A        418     418 
   -------------------------
    Total     418     418
   -------------------------

  ==> Iterations <==

                           Total Energy        Delta E     RMS |[F,P]|

   @DF-RHF iter SAD:  -301.91615590826677   -3.01916e+02   0.00000e+00 
   @DF-RHF iter   1:  -303.88923447318092   -1.97308e+00   2.24063e-03 ADIIS/DIIS
   @DF-RHF iter   2:  -304.09979058709024   -2.10556e-01   1.54146e-03 ADIIS/DIIS
   @DF-RHF iter   3:  -304.22868048980877   -1.28890e-01   1.07200e-04 ADIIS/DIIS
   @DF-RHF iter   4:  -304.23031859044062   -1.63810e-03   2.98534e-05 DIIS
   @DF-RHF iter   5:  -304.23043383964756   -1.15249e-04   1.11250e-05 DIIS
   @DF-RHF iter   6:  -304.23044804261497   -1.42030e-05   3.73055e-06 DIIS
   @DF-RHF iter   7:  -304.23045015423918   -2.11162e-06   7.36055e-07 DIIS
   @DF-RHF iter   8:  -304.23045029359139   -1.39352e-07   1.46203e-07 DIIS
   @DF-RHF iter   9:  -304.23045029726632   -3.67493e-09   6.51775e-08 DIIS
   @DF-RHF iter  10:  -304.23045029765217   -3.85853e-10   1.25027e-08 DIIS
   @DF-RHF iter  11:  -304.23045029767962   -2.74554e-11   3.49458e-09 DIIS
  Energy and wave function converged.


  ==> Post-Iterations <==

    Orbital Energies [Eh]
    ---------------------

    Doubly Occupied:                                                      

       1A    -20.563690     2A    -20.560330     3A    -20.545883  
       4A    -20.541112     5A     -1.346020     6A     -1.336205  
       7A     -1.331161     8A     -1.330021     9A     -0.710312  
      10A     -0.695458    11A     -0.680787    12A     -0.677214  
      13A     -0.579782    14A     -0.575224    15A     -0.570904  
      16A     -0.567827    17A     -0.501025    18A     -0.496364  
      19A     -0.493491    20A     -0.483495  

    Virtual:                                                              

      21A      0.008412    22A      0.015506    23A      0.017496  
      24A      0.020236    25A      0.046428    26A      0.052199  
      27A      0.053747    28A      0.056667    29A      0.058349  
      30A      0.061076    31A      0.062317    32A      0.064916  
      33A      0.073688    34A      0.081222    35A      0.088358  
      36A      0.092802    37A      0.096683    38A      0.100330  
      39A      0.101687    40A      0.112171    41A      0.115506  
      42A      0.153653    43A      0.160669    44A      0.163920  
      45A      0.172747    46A      0.176348    47A      0.183922  
      48A      0.191323    49A      0.194435    50A      0.206192  
      51A      0.210428    52A      0.221327    53A      0.225190  
      54A      0.235020    55A      0.238230    56A      0.241175  
      57A      0.249838    58A      0.257113    59A      0.261613  
      60A      0.270092    61A      0.270863    62A      0.280930  
      63A      0.285674    64A      0.298884    65A      0.303478  
      66A      0.310904    67A      0.322681    68A      0.330221  
      69A      0.334802    70A      0.337066    71A      0.345920  
      72A      0.355968    73A      0.361840    74A      0.373104  
      75A      0.384170    76A      0.393263    77A      0.399917  
      78A      0.408179    79A      0.415858    80A      0.419311  
      81A      0.425579    82A      0.436072    83A      0.440057  
      84A      0.445628    85A      0.452559    86A      0.461571  
      87A      0.463681    88A      0.473674    89A      0.476656  
      90A      0.488109    91A      0.491463    92A      0.492802  
      93A      0.498446    94A      0.506211    95A      0.514110  
      96A      0.523571    97A      0.529619    98A      0.531758  
      99A      0.535919   100A      0.543009   101A      0.550860  
     102A      0.561244   103A      0.571200   104A      0.583502  
     105A      0.592431   106A      0.617087   107A      0.630105  
     108A      0.651941   109A      0.675885   110A      0.695424  
     111A      0.700879   112A      0.707880   113A      0.718153  
     114A      0.722385   115A      0.730052   116A      0.739695  
     117A      0.747337   118A      0.773222   119A      0.780422  
     120A      0.794778   121A      0.802279   122A      0.809462  
     123A      0.821188   124A      0.823149   125A      0.845574  
     126A      0.852261   127A      0.860327   128A      0.871048  
     129A      0.890422   130A      0.899001   131A      0.904666  
     132A      0.910479   133A      0.927492   134A      0.932831  
     135A      0.939428   136A      0.944383   137A      0.948153  
     138A      0.959979   139A      0.963853   140A      0.976375  
     141A      0.980680   142A      0.989569   143A      0.997135  
     144A      1.008144   145A      1.008900   146A      1.021623  
     147A      1.024103   148A      1.027068   149A      1.037816  
     150A      1.055242   151A      1.063187   152A      1.075439  
     153A      1.082782   154A      1.085660   155A      1.091144  
     156A      1.105459   157A      1.109410   158A      1.110294  
     159A      1.118549   160A      1.121736   161A      1.125462  
     162A      1.134961   163A      1.135870   164A      1.150175  
     165A      1.152697   166A      1.177126   167A      1.187852  
     168A      1.197700   169A      1.200561   170A      1.215256  
     171A      1.219783   172A      1.227489   173A      1.243175  
     174A      1.249252   175A      1.257695   176A      1.267308  
     177A      1.282178   178A      1.287161   179A      1.291205  
     180A      1.308244   181A      1.313655   182A      1.331181  
     183A      1.342846   184A      1.359353   185A      1.372009  
     186A      1.383361   187A      1.400617   188A      1.416885  
     189A      1.429594   190A      1.446801   191A      1.471569  
     192A      1.478041   193A      1.495906   194A      1.521146  
     195A      1.542586   196A      1.564108   197A      1.570295  
     198A      1.597208   199A      1.634548   200A      1.640404  
     201A      1.656671   202A      1.681631   203A      1.691374  
     204A      1.698073   205A      1.722362   206A      1.728749  
     207A      1.737102   208A      1.778891   209A      1.793006  
     210A      1.802845   211A      1.823153   212A      1.861217  
     213A      1.893312   214A      1.908386   215A      1.923105  
     216A      1.934038   217A      1.980364   218A      2.020425  
     219A      2.030390   220A      2.042474   221A      2.072717  
     222A      2.085505   223A      2.085932   224A      2.117916  
     225A      2.158859   226A      2.186908   227A      2.237343  
     228A      2.249967   229A      2.312796   230A      2.369738  
     231A      2.383754   232A      2.390725   233A      2.406385  
     234A      2.419806   235A      2.425174   236A      2.449816  
     237A      2.475046   238A      2.487040   239A      2.495252  
     240A      2.506917   241A      2.527166   242A      2.548554  
     243A      2.556843   244A      2.568005   245A      2.570459  
     246A      2.589372   247A      2.618373   248A      2.625337  
     249A      2.643833   250A      2.647528   251A      2.661575  
     252A      2.683804   253A      2.697969   254A      2.725916  
     255A      2.746188   256A      2.754419   257A      2.764775  
     258A      2.773880   259A      2.781654   260A      2.817800  
     261A      2.825019   262A      2.840930   263A      2.845132  
     264A      2.865281   265A      2.881131   266A      2.893927  
     267A      2.898989   268A      2.909597   269A      2.915994  
     270A      2.919488   271A      2.950064   272A      2.955224  
     273A      2.960146   274A      2.986912   275A      3.004107  
     276A      3.028405   277A      3.061894   278A      3.748587  
     279A      3.807909   280A      3.821885   281A      3.848692  
     282A      3.872251   283A      3.883535   284A      3.912960  
     285A      3.980898   286A      4.076887   287A      4.097594  
     288A      4.147302   289A      4.178411   290A      4.190874  
     291A      4.216946   292A      4.236351   293A      4.258354  
     294A      4.287034   295A      4.288781   296A      4.298860  
     297A      4.319726   298A      4.328086   299A      4.352181  
     300A      4.356446   301A      4.365117   302A      4.398678  
     303A      4.422764   304A      4.448744   305A      4.462248  
     306A      4.484164   307A      4.486649   308A      4.504971  
     309A      4.517237   310A      4.527096   311A      4.546858  
     312A      4.556844   313A      4.567134   314A      4.575435  
     315A      4.582218   316A      4.600378   317A      4.604878  
     318A      4.613660   319A      4.638716   320A      4.654664  
     321A      4.686442   322A      4.836019   323A      4.847600  
     324A      4.858177   325A      4.870808   326A      4.888282  
     327A      4.909729   328A      4.972787   329A      4.988245  
     330A      5.115453   331A      5.145667   332A      5.153529  
     333A      5.181378   334A      5.210049   335A      5.237644  
     336A      5.247247   337A      5.255823   338A      5.265094  
     339A      5.288531   340A      5.298578   341A      5.311909  
     342A      5.328116   343A      5.355139   344A      5.479735  
     345A      5.496736   346A      5.514055   347A      5.520525  
     348A      5.591330   349A      5.674143   350A      5.695697  
     351A      5.725064   352A      5.759532   353A      5.839577  
     354A      5.894879   355A      6.258275   356A      6.299916  
     357A      6.343844   358A      6.390066   359A      6.582893  
     360A      6.592131   361A      6.608778   362A      6.624849  
     363A      6.766791   364A      6.800540   365A      6.808684  
     366A      6.819421   367A      6.941080   368A      6.965762  
     369A      7.006267   370A      7.032242   371A      7.047262  
     372A      7.078611   373A      7.115246   374A      7.164892  
     375A      7.180645   376A      7.233378   377A      7.242382  
     378A      7.261278   379A      7.282259   380A      7.293684  
     381A      7.308543   382A      7.322352   383A      7.391934  
     384A      7.398051   385A      7.403493   386A      7.413316  
     387A      7.417082   388A      7.422876   389A      7.430363  
     390A      7.446453   391A      7.458394   392A      7.478221  
     393A      7.486496   394A      7.488962   395A      7.527090  
     396A      7.546926   397A      7.593064   398A      7.643394  
     399A      7.687901   400A      7.706262   401A      7.725293  
     402A      7.844161   403A      7.873664   404A      7.890420  
     405A      7.949163   406A      7.989124   407A      7.991214  
     408A      8.080635   409A      8.101441   410A      8.787984  
     411A      8.813655   412A      8.944811   413A      9.010466  
     414A     15.445512   415A     15.543989   416A     16.321653  
     417A     16.884168   418A     64.926577  

    Final Occupation by Irrep:
              A 
    DOCC [    20 ]
    NA   [    20 ]
    NB   [    20 ]

  @DF-RHF Final Energy:  -304.23045029767962

   => Energetics <=

    Nuclear Repulsion Energy =            117.6623583820257153
    One-Electron Energy =                -654.6130034670627538
    Two-Electron Energy =                 232.7201947873574568
    Total Energy =                       -304.2304502976796243

Computation Completed


Properties will be evaluated at   0.000000,   0.000000,   0.000000 [a0]

Properties computed using the SCF density matrix


 Multipole Moments:

 ------------------------------------------------------------------------------------
     Multipole            Electronic (a.u.)      Nuclear  (a.u.)        Total (a.u.)
 ------------------------------------------------------------------------------------

 L = 1.  Multiply by 2.5417464519 to convert [e a0] to [Debye]
 Dipole X            :        -30.7973355           31.4979003            0.7005648
 Dipole Y            :         -5.9416231            6.2231535            0.2815304
 Dipole Z            :         10.2097595          -11.0299005           -0.8201410
 Magnitude           :                                                    1.1147563

 ------------------------------------------------------------------------------------

*** tstop() called on moses-razer at Sat Jan  6 18:27:07 2024
Module time:
	user time   =      27.80 seconds =       0.46 minutes
	system time =       1.30 seconds =       0.02 minutes
	total time  =          6 seconds =       0.10 minutes
Total time:
	user time   =      27.80 seconds =       0.46 minutes
	system time =       1.30 seconds =       0.02 minutes
	total time  =          6 seconds =       0.10 minutes

*** tstart() called on moses-razer
*** at Sat Jan  6 18:27:07 2024


  //>>>>>>>>>>>>>>>>>>>>>>>>>>>>>>>>>>>//
  //               DFMP2               //
  //<<<<<<<<<<<<<<<<<<<<<<<<<<<<<<<<<<<//

   => Loading Basis Set <=

    Name: (AUG-CC-PVTZ AUX)
    Role: RIFIT
    Keyword: DF_BASIS_MP2
    atoms 1                     entry NA         line   610 file /home/kchung25/anaconda3/envs/p415env/share/psi4/basis/def2-qzvpp-ri.gbs 
    atoms 2, 5, 8, 11           entry O          line   264 file /home/kchung25/anaconda3/envs/p415env/share/psi4/basis/aug-cc-pvtz-ri.gbs 
    atoms 3-4, 6-7, 9-10, 12-13 entry H          line    30 file /home/kchung25/anaconda3/envs/p415env/share/psi4/basis/aug-cc-pvtz-ri.gbs 

	 --------------------------------------------------------
	                          DF-MP2                         
	      2nd-Order Density-Fitted Moller-Plesset Theory     
	              RMP2 Wavefunction,   6 Threads             
	                                                         
	        Rob Parrish, Justin Turney, Andy Simmonett,      
	           Ed Hohenstein, and C. David Sherrill          
	 --------------------------------------------------------

   => Auxiliary Basis Set <=

  Basis Set: (AUG-CC-PVTZ AUX)
    Blend: AUG-CC-PVTZ-RI + DEF2-QZVPP-RI
    Number of shells: 266
    Number of basis functions: 958
    Number of Cartesian functions: 1198
    Spherical Harmonics?: true
    Max angular momentum: 4

	 --------------------------------------------------------
	                 NBF =   418, NAUX =   958
	 --------------------------------------------------------
	   CLASS    FOCC     OCC    AOCC    AVIR     VIR    FVIR
	   PAIRS       0      20      20     398     398       0
	 --------------------------------------------------------

	-----------------------------------------------------------
	 ==================> DF-MP2 Energies <==================== 
	-----------------------------------------------------------
	 Reference Energy          =    -304.2304502976796243 [Eh]
	 Singles Energy            =      -0.0000000000000000 [Eh]
	 Same-Spin Energy          =      -0.2755550570229366 [Eh]
	 Opposite-Spin Energy      =      -0.8666153768642588 [Eh]
	 Correlation Energy        =      -1.1421704338871954 [Eh]
	 Total Energy              =    -305.3726207315668262 [Eh]
	-----------------------------------------------------------
	 ================> DF-SCS-MP2 Energies <================== 
	-----------------------------------------------------------
	 SCS Same-Spin Scale       =       0.3333333333333333 [-]
	 SCS Opposite-Spin Scale   =       1.2000000000000000 [-]
	 SCS Same-Spin Energy      =      -0.0918516856743122 [Eh]
	 SCS Opposite-Spin Energy  =      -1.0399384522371105 [Eh]
	 SCS Correlation Energy    =      -1.1317901379114226 [Eh]
	 SCS Total Energy          =    -305.3622404355910476 [Eh]
	-----------------------------------------------------------


*** tstop() called on moses-razer at Sat Jan  6 18:27:10 2024
Module time:
	user time   =      10.83 seconds =       0.18 minutes
	system time =       0.68 seconds =       0.01 minutes
	total time  =          3 seconds =       0.05 minutes
Total time:
	user time   =      38.63 seconds =       0.64 minutes
	system time =       1.98 seconds =       0.03 minutes
	total time  =          9 seconds =       0.15 minutes

    Psi4 stopped on: Saturday, 06 January 2024 06:27PM
    Psi4 wall time for execution: 0:00:08.54


    -----------------------------------------------------------------------
          Psi4: An Open-Source Ab Initio Electronic Structure Package
                               Psi4 1.9 release

                         Git: Rev {} zzzzzzz 


    D. G. A. Smith, L. A. Burns, A. C. Simmonett, R. M. Parrish,
    M. C. Schieber, R. Galvelis, P. Kraus, H. Kruse, R. Di Remigio,
    A. Alenaizan, A. M. James, S. Lehtola, J. P. Misiewicz, M. Scheurer,
    R. A. Shaw, J. B. Schriber, Y. Xie, Z. L. Glick, D. A. Sirianni,
    J. S. O'Brien, J. M. Waldrop, A. Kumar, E. G. Hohenstein,
    B. P. Pritchard, B. R. Brooks, H. F. Schaefer III, A. Yu. Sokolov,
    K. Patkowski, A. E. DePrince III, U. Bozkaya, R. A. King,
    F. A. Evangelista, J. M. Turney, T. D. Crawford, C. D. Sherrill,
    J. Chem. Phys. 152(18) 184108 (2020). https://doi.org/10.1063/5.0006002

                            Additional Code Authors
    E. T. Seidl, C. L. Janssen, E. F. Valeev, M. L. Leininger,
    J. F. Gonthier, R. M. Richard, H. R. McAlexander, M. Saitow, X. Wang,
    P. Verma, M. H. Lechner, A. Jiang, S. Behnle, A. G. Heide,
    M. F. Herbst, and D. L. Poole

             Previous Authors, Complete List of Code Contributors,
                       and Citations for Specific Modules
    https://github.com/psi4/psi4/blob/master/codemeta.json
    https://github.com/psi4/psi4/graphs/contributors
    http://psicode.org/psi4manual/master/introduction.html#citing-psifour

    -----------------------------------------------------------------------


    Psi4 started on: Saturday, 06 January 2024 06:27PM

    Process ID: 551305
    Host:       moses-razer
    PSIDATADIR: /home/kchung25/anaconda3/envs/psi4_19/share/psi4
    Memory:     55.9 GiB
    Threads:    6
    
  ==> Input QCSchema <==

--------------------------------------------------------------------------
{'driver': 'energy',
 'extras': {'psiapi': True, 'wfn_qcvars_only': True},
 'id': None,
 'keywords': {'SCF_TYPE': 'DF', 'function_kwargs': {}},
 'model': {'basis': 'aug-cc-pvtz', 'method': 'mp2'},
 'molecule': {'atom_labels': ['', '', '', '', '', '', '', '', '', '', '', '', ''],
              'atomic_numbers': [11, 8, 1, 1, 8, 1, 1, 8, 1, 1, 8, 1, 1],
              'extras': {},
              'fix_com': True,
              'fix_orientation': True,
              'fix_symmetry': 'c1',
              'fragment_charges': [1.0, 0.0],
              'fragment_multiplicities': [1, 1],
              'fragments': [[0], [1, 2, 3, 4, 5, 6, 7, 8, 9, 10, 11, 12]],
              'geometry': [0.0, 0.0, 0.0, -2.462668409983136, 3.1461407755864723, 2.08738202955009, -0.8887155200893111,
                           4.1561899410130545, 2.1855344045063694, -2.972743285766713, 3.6246062024695163,
                           0.481643946226064, 1.3782793085071687, -4.453181188616132, 1.2999577195114436,
                           2.479413273180818, -3.5483066204280305, 2.3654344419238282, 0.21919878192248077,
                           -5.197268409419654, 2.406318666648109, 0.1904617167326436, -0.4523853166256004,
                           -4.338603314177373, -0.14093955388889573, 0.5720295468067119, -5.829557542914965,
                           -0.592036077296934, -2.0614719946439375, -4.894324524521384, 3.8456682543516987,
                           2.2850908459738637, 0.08492240235194934, 5.342219851872897, 1.3398706250072385,
                           0.6331300616211398, 4.437575830272102, 3.1321832584238405, -1.4473506881187779],
              'mass_numbers': [23, 16, 1, 1, 16, 1, 1, 16, 1, 1, 16, 1, 1],
              'masses': [22.989769282, 15.99491461957, 1.00782503223, 1.00782503223, 15.99491461957, 1.00782503223,
                         1.00782503223, 15.99491461957, 1.00782503223, 1.00782503223, 15.99491461957, 1.00782503223,
                         1.00782503223],
              'molecular_charge': 1.0,
              'molecular_multiplicity': 1,
              'name': 'dimer',
              'provenance': {'creator': 'QCElemental',
                             'routine': 'qcelemental.molparse.from_string',
                             'version': '0.27.1'},
              'real': [True, False, False, False, False, False, False, False, False, False, False, False, False],
              'schema_name': 'qcschema_molecule',
              'schema_version': 2,
              'symbols': ['Na', 'O', 'H', 'H', 'O', 'H', 'H', 'O', 'H', 'H', 'O', 'H', 'H'],
              'validated': True},
 'protocols': {'stdout': True},
 'provenance': {'creator': 'QCElemental', 'routine': 'qcelemental.models.results', 'version': '0.27.1'},
 'schema_name': 'qcschema_input',
 'schema_version': 1}
--------------------------------------------------------------------------

Scratch directory: /scratch/
   => Libint2 <=

    Primary   basis highest AM E, G, H:  5, 4, 3
    Auxiliary basis highest AM E, G, H:  6, 5, 4
    Onebody   basis highest AM E, G, H:  6, 5, 4
    Solid Harmonics ordering:            gaussian

*** tstart() called on moses-razer
*** at Sat Jan  6 18:27:10 2024

   => Loading Basis Set <=

    Name: AUG-CC-PVTZ
    Role: ORBITAL
    Keyword: BASIS
    atoms 1                     entry NA         line   469 file /home/kchung25/anaconda3/envs/p415env/share/psi4/basis/aug-cc-pvtz.gbs 
    atoms 2, 5, 8, 11           entry O          line   331 file /home/kchung25/anaconda3/envs/p415env/share/psi4/basis/aug-cc-pvtz.gbs 
    atoms 3-4, 6-7, 9-10, 12-13 entry H          line    40 file /home/kchung25/anaconda3/envs/p415env/share/psi4/basis/aug-cc-pvtz.gbs 


         ---------------------------------------------------------
                                   SCF
               by Justin Turney, Rob Parrish, Andy Simmonett
                          and Daniel G. A. Smith
                              RHF Reference
                        6 Threads,  57220 MiB Core
         ---------------------------------------------------------

  ==> Geometry <==

    Molecular point group: c1
    Full point group: C1

    Geometry (in Bohr), charge = 1, multiplicity = 1:

       Center              X                  Y                   Z               Mass       
    ------------   -----------------  -----------------  -----------------  -----------------
         NA           0.000000000000     0.000000000000     0.000000000000    22.989769282000
      Gh(O)          -2.462668409983     3.146140775586     2.087382029550    15.994914619570
      Gh(H)          -0.888715520089     4.156189941013     2.185534404506     1.007825032230
      Gh(H)          -2.972743285767     3.624606202470     0.481643946226     1.007825032230
      Gh(O)           1.378279308507    -4.453181188616     1.299957719511    15.994914619570
      Gh(H)           2.479413273181    -3.548306620428     2.365434441924     1.007825032230
      Gh(H)           0.219198781922    -5.197268409420     2.406318666648     1.007825032230
      Gh(O)           0.190461716733    -0.452385316626    -4.338603314177    15.994914619570
      Gh(H)          -0.140939553889     0.572029546807    -5.829557542915     1.007825032230
      Gh(H)          -0.592036077297    -2.061471994644    -4.894324524521     1.007825032230
      Gh(O)           3.845668254352     2.285090845974     0.084922402352    15.994914619570
      Gh(H)           5.342219851873     1.339870625007     0.633130061621     1.007825032230
      Gh(H)           4.437575830272     3.132183258424    -1.447350688119     1.007825032230

  Running in c1 symmetry.

  Rotational constants: A =      0.06995  B =      0.05610  C =      0.05127 [cm^-1]
  Rotational constants: A =   2097.00272  B =   1681.82450  C =   1536.95310 [MHz]
  Nuclear repulsion =    0.000000000000000

  Charge       = 1
  Multiplicity = 1
  Electrons    = 10
  Nalpha       = 5
  Nbeta        = 5

  ==> Algorithm <==

  SCF Algorithm Type is DF.
  DIIS enabled.
  MOM disabled.
  Fractional occupation disabled.
  Guess Type is SAD.
  Energy threshold   = 1.00e-08
  Density threshold  = 1.00e-08
  Integral threshold = 1.00e-12

  ==> Primary Basis <==

  Basis Set: AUG-CC-PVTZ
    Blend: AUG-CC-PVTZ
    Number of shells: 144
    Number of basis functions: 418
    Number of Cartesian functions: 479
    Spherical Harmonics?: true
    Max angular momentum: 3

   => Loading Basis Set <=

    Name: (AUG-CC-PVTZ AUX)
    Role: JKFIT
    Keyword: DF_BASIS_SCF
    atoms 1                     entry NA         line   498 file /home/kchung25/anaconda3/envs/p415env/share/psi4/basis/def2-universal-jkfit.gbs 
    atoms 2, 5, 8, 11           entry O          line   286 file /home/kchung25/anaconda3/envs/p415env/share/psi4/basis/aug-cc-pvtz-jkfit.gbs 
    atoms 3-4, 6-7, 9-10, 12-13 entry H          line    70 file /home/kchung25/anaconda3/envs/p415env/share/psi4/basis/aug-cc-pvtz-jkfit.gbs 

  ==> Integral Setup <==

  DFHelper Memory: AOs need 1.125 GiB; user supplied 41.910 GiB. 
  Using in-core AOs.

  ==> MemDFJK: Density-Fitted J/K Matrices <==

    J tasked:                   Yes
    K tasked:                   Yes
    wK tasked:                   No
    OpenMP threads:               6
    Memory [MiB]:             42915
    Algorithm:                 Core
    Schwarz Cutoff:           1E-12
    Mask sparsity (%):       7.7803
    Fitting Condition:        1E-10

   => Auxiliary Basis Set <=

  Basis Set: (AUG-CC-PVTZ AUX)
    Blend: AUG-CC-PVTZ-JKFIT + DEF2-UNIVERSAL-JKFIT
    Number of shells: 266
    Number of basis functions: 896
    Number of Cartesian functions: 1101
    Spherical Harmonics?: true
    Max angular momentum: 4

  Minimum eigenvalue in the overlap matrix is 6.0032813881E-05.
  Reciprocal condition number of the overlap matrix is 4.8833782923E-06.
    Using symmetric orthogonalization.

  ==> Pre-Iterations <==

  SCF Guess: Superposition of Atomic Densities via on-the-fly atomic UHF (no occupation information).

   -------------------------
    Irrep   Nso     Nmo    
   -------------------------
     A        418     418 
   -------------------------
    Total     418     418
   -------------------------

  ==> Iterations <==

                           Total Energy        Delta E     RMS |[F,P]|

   @DF-RHF iter SAD:  -161.74574193820663   -1.61746e+02   0.00000e+00 
   @DF-RHF iter   1:  -161.67606729900783    6.96746e-02   1.49774e-05 DIIS
   @DF-RHF iter   2:  -161.67608547756984   -1.81786e-05   2.89072e-06 DIIS
   @DF-RHF iter   3:  -161.67608597523693   -4.97667e-07   1.41288e-07 DIIS
   @DF-RHF iter   4:  -161.67608597620227   -9.65343e-10   1.50915e-08 DIIS
   @DF-RHF iter   5:  -161.67608597621432   -1.20508e-11   5.96283e-10 DIIS
  Energy and wave function converged.


  ==> Post-Iterations <==

    Orbital Energies [Eh]
    ---------------------

    Doubly Occupied:                                                      

       1A    -40.760720     2A     -3.073919     3A     -1.797255  
       4A     -1.797248     5A     -1.797228  

    Virtual:                                                              

       6A     -0.181807     7A     -0.109437     8A     -0.109434  
       9A     -0.109432    10A     -0.070061    11A     -0.051812  
      12A     -0.051666    13A     -0.051422    14A     -0.051316  
      15A     -0.051024    16A     -0.049256    17A     -0.049210  
      18A     -0.049174    19A     -0.025457    20A     -0.010883  
      21A     -0.010540    22A     -0.009426    23A     -0.008721  
      24A     -0.006650    25A     -0.005314    26A     -0.001207  
      27A      0.000421    28A      0.001080    29A      0.011278  
      30A      0.017862    31A      0.026590    32A      0.027656  
      33A      0.030055    34A      0.031590    35A      0.043944  
      36A      0.062629    37A      0.069354    38A      0.080816  
      39A      0.083371    40A      0.086969    41A      0.094047  
      42A      0.100980    43A      0.104166    44A      0.106803  
      45A      0.110234    46A      0.116397    47A      0.122263  
      48A      0.126102    49A      0.130702    50A      0.141085  
      51A      0.153496    52A      0.156765    53A      0.160052  
      54A      0.171325    55A      0.176511    56A      0.180749  
      57A      0.186614    58A      0.196177    59A      0.200270  
      60A      0.209300    61A      0.220336    62A      0.231934  
      63A      0.236266    64A      0.247202    65A      0.249768  
      66A      0.257197    67A      0.260815    68A      0.265922  
      69A      0.268435    70A      0.281676    71A      0.287481  
      72A      0.290216    73A      0.292757    74A      0.298692  
      75A      0.303301    76A      0.312205    77A      0.316109  
      78A      0.325723    79A      0.330032    80A      0.336251  
      81A      0.339576    82A      0.345857    83A      0.356050  
      84A      0.357660    85A      0.366548    86A      0.370128  
      87A      0.384469    88A      0.390363    89A      0.400508  
      90A      0.408069    91A      0.414194    92A      0.428287  
      93A      0.440486    94A      0.445133    95A      0.457224  
      96A      0.465905    97A      0.478648    98A      0.503913  
      99A      0.509530   100A      0.527673   101A      0.544661  
     102A      0.550580   103A      0.554952   104A      0.572592  
     105A      0.580457   106A      0.593098   107A      0.609825  
     108A      0.626733   109A      0.634382   110A      0.655029  
     111A      0.659983   112A      0.661178   113A      0.671804  
     114A      0.683069   115A      0.686160   116A      0.691240  
     117A      0.701215   118A      0.704658   119A      0.725237  
     120A      0.730810   121A      0.741697   122A      0.750371  
     123A      0.757265   124A      0.771229   125A      0.775532  
     126A      0.779008   127A      0.791421   128A      0.803025  
     129A      0.814326   130A      0.817163   131A      0.826535  
     132A      0.836933   133A      0.839644   134A      0.857629  
     135A      0.862657   136A      0.873912   137A      0.878848  
     138A      0.884200   139A      0.898807   140A      0.901705  
     141A      0.905718   142A      0.920745   143A      0.928310  
     144A      0.933622   145A      0.947745   146A      0.950825  
     147A      0.958340   148A      0.964035   149A      0.977241  
     150A      0.990873   151A      0.998332   152A      1.002782  
     153A      1.011552   154A      1.021909   155A      1.033976  
     156A      1.039831   157A      1.063067   158A      1.066348  
     159A      1.071021   160A      1.080573   161A      1.089076  
     162A      1.090271   163A      1.098222   164A      1.108468  
     165A      1.115849   166A      1.131820   167A      1.147610  
     168A      1.152210   169A      1.164734   170A      1.178741  
     171A      1.206346   172A      1.212067   173A      1.228411  
     174A      1.246509   175A      1.265924   176A      1.275298  
     177A      1.292664   178A      1.294236   179A      1.314464  
     180A      1.324187   181A      1.345085   182A      1.365808  
     183A      1.378943   184A      1.392501   185A      1.411531  
     186A      1.430935   187A      1.464998   188A      1.502482  
     189A      1.523519   190A      1.595873   191A      1.612442  
     192A      1.621864   193A      1.643229   194A      1.652587  
     195A      1.661377   196A      1.671513   197A      1.680390  
     198A      1.695925   199A      1.704471   200A      1.716714  
     201A      1.718197   202A      1.732100   203A      1.738093  
     204A      1.746304   205A      1.764998   206A      1.784454  
     207A      1.810575   208A      1.816149   209A      1.872152  
     210A      1.910804   211A      1.947812   212A      1.949644  
     213A      1.982017   214A      2.215649   215A      2.238897  
     216A      2.248116   217A      2.290102   218A      2.293427  
     219A      2.315486   220A      2.331049   221A      2.340358  
     222A      2.348888   223A      2.364951   224A      2.377759  
     225A      2.386203   226A      2.391441   227A      2.405097  
     228A      2.418864   229A      2.422905   230A      2.435601  
     231A      2.460580   232A      2.485656   233A      2.492344  
     234A      2.528421   235A      2.551112   236A      2.552048  
     237A      2.596811   238A      2.609226   239A      2.626739  
     240A      2.635936   241A      2.651235   242A      2.652805  
     243A      2.685372   244A      2.691729   245A      2.714912  
     246A      2.748761   247A      2.799993   248A      2.826176  
     249A      2.828606   250A      2.962296   251A      2.993931  
     252A      2.998370   253A      3.006586   254A      3.026319  
     255A      3.035856   256A      3.048919   257A      3.064243  
     258A      3.112157   259A      3.117900   260A      3.135532  
     261A      3.148900   262A      3.156211   263A      3.170146  
     264A      3.174431   265A      3.194781   266A      3.204326  
     267A      3.205235   268A      3.217364   269A      3.231509  
     270A      3.263862   271A      3.416230   272A      3.422878  
     273A      3.438677   274A      3.474426   275A      3.526917  
     276A      3.539241   277A      3.562120   278A      3.576265  
     279A      4.210126   280A      4.225812   281A      4.259306  
     282A      4.288919   283A      4.310382   284A      4.318985  
     285A      4.336044   286A      4.354206   287A      4.370592  
     288A      4.385549   289A      4.401473   290A      4.417295  
     291A      4.427500   292A      4.444184   293A      4.480577  
     294A      4.516102   295A      4.533468   296A      4.548423  
     297A      4.566225   298A      4.570848   299A      4.584993  
     300A      4.592682   301A      4.602616   302A      4.617611  
     303A      4.736038   304A      4.755534   305A      4.769492  
     306A      4.789659   307A      4.806758   308A      4.829146  
     309A      4.851642   310A      4.862721   311A      4.876926  
     312A      4.888364   313A      4.895750   314A      4.941638  
     315A      5.068791   316A      5.070567   317A      5.077595  
     318A      5.100130   319A      5.312833   320A      5.355272  
     321A      5.368763   322A      5.382299   323A      5.421558  
     324A      5.425299   325A      5.436856   326A      5.450352  
     327A      5.463300   328A      5.520214   329A      5.571443  
     330A      5.575227   331A      5.672029   332A      5.714977  
     333A      5.774548   334A      5.820882   335A      5.973376  
     336A      6.006074   337A      6.019888   338A      6.090989  
     339A      6.133198   340A      6.160930   341A      6.200011  
     342A      6.308974   343A      6.391167   344A      6.399170  
     345A      6.415791   346A      6.576613   347A      6.792103  
     348A      6.821971   349A      6.910946   350A      6.994933  
     351A      7.470251   352A      7.507465   353A      7.524623  
     354A      7.537316   355A      7.618180   356A      7.672175  
     357A      7.692682   358A      7.739320   359A      7.815136  
     360A      7.851338   361A      7.873936   362A      7.895304  
     363A      7.910554   364A      7.930389   365A      7.953584  
     366A      8.030566   367A      8.042455   368A      8.062989  
     369A      8.175215   370A      8.185859   371A      8.404613  
     372A      8.436005   373A      8.532815   374A      8.575218  
     375A      8.606032   376A      8.702611   377A      8.722382  
     378A      8.763408   379A      9.575709   380A      9.621472  
     381A      9.647746   382A      9.667644   383A      9.745405  
     384A      9.754384   385A      9.780982   386A      9.782878  
     387A      9.794254   388A      9.812881   389A      9.846351  
     390A      9.859647   391A     10.025487   392A     10.032003  
     393A     10.041366   394A     10.047720   395A     10.924144  
     396A     10.932126   397A     10.999999   398A     11.196565  
     399A     11.515832   400A     11.593958   401A     11.674946  
     402A     11.731808   403A     11.762254   404A     11.772213  
     405A     12.153443   406A     12.224791   407A     13.257245  
     408A     13.285662   409A     13.478501   410A     13.588659  
     411A     13.654614   412A     13.666486   413A     13.694802  
     414A     13.723690   415A     63.928596   416A     64.135763  
     417A     65.448180   418A     66.487290  

    Final Occupation by Irrep:
              A 
    DOCC [     5 ]
    NA   [     5 ]
    NB   [     5 ]

  @DF-RHF Final Energy:  -161.67608597621432

   => Energetics <=

    Nuclear Repulsion Energy =              0.0000000000000000
    One-Electron Energy =                -224.8994333038746447
    Two-Electron Energy =                  63.2233473276603490
    Total Energy =                       -161.6760859762142957

Computation Completed


Properties will be evaluated at   0.000000,   0.000000,   0.000000 [a0]

Properties computed using the SCF density matrix


 Multipole Moments:

 ------------------------------------------------------------------------------------
     Multipole            Electronic (a.u.)      Nuclear  (a.u.)        Total (a.u.)
 ------------------------------------------------------------------------------------

 L = 1.  Multiply by 2.5417464519 to convert [e a0] to [Debye]
 Dipole X            :          0.0000672            0.0000000            0.0000672
 Dipole Y            :          0.0000045            0.0000000            0.0000045
 Dipole Z            :          0.0000937            0.0000000            0.0000937
 Magnitude           :                                                    0.0001154

 ------------------------------------------------------------------------------------

*** tstop() called on moses-razer at Sat Jan  6 18:27:14 2024
Module time:
	user time   =      20.71 seconds =       0.35 minutes
	system time =       1.21 seconds =       0.02 minutes
	total time  =          4 seconds =       0.07 minutes
Total time:
	user time   =      59.70 seconds =       0.99 minutes
	system time =       3.20 seconds =       0.05 minutes
	total time  =         13 seconds =       0.22 minutes

*** tstart() called on moses-razer
*** at Sat Jan  6 18:27:14 2024


  //>>>>>>>>>>>>>>>>>>>>>>>>>>>>>>>>>>>//
  //               DFMP2               //
  //<<<<<<<<<<<<<<<<<<<<<<<<<<<<<<<<<<<//

   => Loading Basis Set <=

    Name: (AUG-CC-PVTZ AUX)
    Role: RIFIT
    Keyword: DF_BASIS_MP2
    atoms 1                     entry NA         line   610 file /home/kchung25/anaconda3/envs/p415env/share/psi4/basis/def2-qzvpp-ri.gbs 
    atoms 2, 5, 8, 11           entry O          line   264 file /home/kchung25/anaconda3/envs/p415env/share/psi4/basis/aug-cc-pvtz-ri.gbs 
    atoms 3-4, 6-7, 9-10, 12-13 entry H          line    30 file /home/kchung25/anaconda3/envs/p415env/share/psi4/basis/aug-cc-pvtz-ri.gbs 

	 --------------------------------------------------------
	                          DF-MP2                         
	      2nd-Order Density-Fitted Moller-Plesset Theory     
	              RMP2 Wavefunction,   6 Threads             
	                                                         
	        Rob Parrish, Justin Turney, Andy Simmonett,      
	           Ed Hohenstein, and C. David Sherrill          
	 --------------------------------------------------------

   => Auxiliary Basis Set <=

  Basis Set: (AUG-CC-PVTZ AUX)
    Blend: AUG-CC-PVTZ-RI + DEF2-QZVPP-RI
    Number of shells: 266
    Number of basis functions: 958
    Number of Cartesian functions: 1198
    Spherical Harmonics?: true
    Max angular momentum: 4

	 --------------------------------------------------------
	                 NBF =   418, NAUX =   958
	 --------------------------------------------------------
	   CLASS    FOCC     OCC    AOCC    AVIR     VIR    FVIR
	   PAIRS       0       5       5     413     413       0
	 --------------------------------------------------------

	-----------------------------------------------------------
	 ==================> DF-MP2 Energies <==================== 
	-----------------------------------------------------------
	 Reference Energy          =    -161.6760859762143241 [Eh]
	 Singles Energy            =      -0.0000000000000000 [Eh]
	 Same-Spin Energy          =      -0.0048286673863027 [Eh]
	 Opposite-Spin Energy      =      -0.0155874735202156 [Eh]
	 Correlation Energy        =      -0.0204161409065183 [Eh]
	 Total Energy              =    -161.6965021171208434 [Eh]
	-----------------------------------------------------------
	 ================> DF-SCS-MP2 Energies <================== 
	-----------------------------------------------------------
	 SCS Same-Spin Scale       =       0.3333333333333333 [-]
	 SCS Opposite-Spin Scale   =       1.2000000000000000 [-]
	 SCS Same-Spin Energy      =      -0.0016095557954342 [Eh]
	 SCS Opposite-Spin Energy  =      -0.0187049682242587 [Eh]
	 SCS Correlation Energy    =      -0.0203145240196929 [Eh]
	 SCS Total Energy          =    -161.6964005002340059 [Eh]
	-----------------------------------------------------------


*** tstop() called on moses-razer at Sat Jan  6 18:27:17 2024
Module time:
	user time   =       7.89 seconds =       0.13 minutes
	system time =       0.55 seconds =       0.01 minutes
	total time  =          3 seconds =       0.05 minutes
Total time:
	user time   =      67.60 seconds =       1.13 minutes
	system time =       3.75 seconds =       0.06 minutes
	total time  =         16 seconds =       0.27 minutes

    Psi4 stopped on: Saturday, 06 January 2024 06:27PM
    Psi4 wall time for execution: 0:00:06.87


    -----------------------------------------------------------------------
          Psi4: An Open-Source Ab Initio Electronic Structure Package
                               Psi4 1.9 release

                         Git: Rev {} zzzzzzz 


    D. G. A. Smith, L. A. Burns, A. C. Simmonett, R. M. Parrish,
    M. C. Schieber, R. Galvelis, P. Kraus, H. Kruse, R. Di Remigio,
    A. Alenaizan, A. M. James, S. Lehtola, J. P. Misiewicz, M. Scheurer,
    R. A. Shaw, J. B. Schriber, Y. Xie, Z. L. Glick, D. A. Sirianni,
    J. S. O'Brien, J. M. Waldrop, A. Kumar, E. G. Hohenstein,
    B. P. Pritchard, B. R. Brooks, H. F. Schaefer III, A. Yu. Sokolov,
    K. Patkowski, A. E. DePrince III, U. Bozkaya, R. A. King,
    F. A. Evangelista, J. M. Turney, T. D. Crawford, C. D. Sherrill,
    J. Chem. Phys. 152(18) 184108 (2020). https://doi.org/10.1063/5.0006002

                            Additional Code Authors
    E. T. Seidl, C. L. Janssen, E. F. Valeev, M. L. Leininger,
    J. F. Gonthier, R. M. Richard, H. R. McAlexander, M. Saitow, X. Wang,
    P. Verma, M. H. Lechner, A. Jiang, S. Behnle, A. G. Heide,
    M. F. Herbst, and D. L. Poole

             Previous Authors, Complete List of Code Contributors,
                       and Citations for Specific Modules
    https://github.com/psi4/psi4/blob/master/codemeta.json
    https://github.com/psi4/psi4/graphs/contributors
    http://psicode.org/psi4manual/master/introduction.html#citing-psifour

    -----------------------------------------------------------------------


    Psi4 started on: Saturday, 06 January 2024 06:27PM

    Process ID: 551305
    Host:       moses-razer
    PSIDATADIR: /home/kchung25/anaconda3/envs/psi4_19/share/psi4
    Memory:     55.9 GiB
    Threads:    6
    
  ==> Input QCSchema <==

--------------------------------------------------------------------------
{'driver': 'energy',
 'extras': {'psiapi': True, 'wfn_qcvars_only': True},
 'id': None,
 'keywords': {'SCF_TYPE': 'DF', 'function_kwargs': {}},
 'model': {'basis': 'aug-cc-pvtz', 'method': 'mp2'},
 'molecule': {'atom_labels': ['', '', '', '', '', '', '', '', '', '', '', '', ''],
              'atomic_numbers': [11, 8, 1, 1, 8, 1, 1, 8, 1, 1, 8, 1, 1],
              'extras': {},
              'fix_com': True,
              'fix_orientation': True,
              'fix_symmetry': 'c1',
              'fragment_charges': [1.0, 0.0],
              'fragment_multiplicities': [1, 1],
              'fragments': [[0], [1, 2, 3, 4, 5, 6, 7, 8, 9, 10, 11, 12]],
              'geometry': [0.0, 0.0, 0.0, -2.462668409983136, 3.1461407755864723, 2.08738202955009, -0.8887155200893111,
                           4.1561899410130545, 2.1855344045063694, -2.972743285766713, 3.6246062024695163,
                           0.481643946226064, 1.3782793085071687, -4.453181188616132, 1.2999577195114436,
                           2.479413273180818, -3.5483066204280305, 2.3654344419238282, 0.21919878192248077,
                           -5.197268409419654, 2.406318666648109, 0.1904617167326436, -0.4523853166256004,
                           -4.338603314177373, -0.14093955388889573, 0.5720295468067119, -5.829557542914965,
                           -0.592036077296934, -2.0614719946439375, -4.894324524521384, 3.8456682543516987,
                           2.2850908459738637, 0.08492240235194934, 5.342219851872897, 1.3398706250072385,
                           0.6331300616211398, 4.437575830272102, 3.1321832584238405, -1.4473506881187779],
              'mass_numbers': [23, 16, 1, 1, 16, 1, 1, 16, 1, 1, 16, 1, 1],
              'masses': [22.989769282, 15.99491461957, 1.00782503223, 1.00782503223, 15.99491461957, 1.00782503223,
                         1.00782503223, 15.99491461957, 1.00782503223, 1.00782503223, 15.99491461957, 1.00782503223,
                         1.00782503223],
              'molecular_charge': 1.0,
              'molecular_multiplicity': 1,
              'name': 'dimer',
              'provenance': {'creator': 'QCElemental',
                             'routine': 'qcelemental.molparse.from_string',
                             'version': '0.27.1'},
              'real': [True, True, True, True, True, True, True, True, True, True, True, True, True],
              'schema_name': 'qcschema_molecule',
              'schema_version': 2,
              'symbols': ['Na', 'O', 'H', 'H', 'O', 'H', 'H', 'O', 'H', 'H', 'O', 'H', 'H'],
              'validated': True},
 'protocols': {'stdout': True},
 'provenance': {'creator': 'QCElemental', 'routine': 'qcelemental.models.results', 'version': '0.27.1'},
 'schema_name': 'qcschema_input',
 'schema_version': 1}
--------------------------------------------------------------------------

Scratch directory: /scratch/
   => Libint2 <=

    Primary   basis highest AM E, G, H:  5, 4, 3
    Auxiliary basis highest AM E, G, H:  6, 5, 4
    Onebody   basis highest AM E, G, H:  6, 5, 4
    Solid Harmonics ordering:            gaussian

*** tstart() called on moses-razer
*** at Sat Jan  6 18:27:17 2024

   => Loading Basis Set <=

    Name: AUG-CC-PVTZ
    Role: ORBITAL
    Keyword: BASIS
    atoms 1                     entry NA         line   469 file /home/kchung25/anaconda3/envs/p415env/share/psi4/basis/aug-cc-pvtz.gbs 
    atoms 2, 5, 8, 11           entry O          line   331 file /home/kchung25/anaconda3/envs/p415env/share/psi4/basis/aug-cc-pvtz.gbs 
    atoms 3-4, 6-7, 9-10, 12-13 entry H          line    40 file /home/kchung25/anaconda3/envs/p415env/share/psi4/basis/aug-cc-pvtz.gbs 


         ---------------------------------------------------------
                                   SCF
               by Justin Turney, Rob Parrish, Andy Simmonett
                          and Daniel G. A. Smith
                              RHF Reference
                        6 Threads,  57220 MiB Core
         ---------------------------------------------------------

  ==> Geometry <==

    Molecular point group: c1
    Full point group: C1

    Geometry (in Bohr), charge = 1, multiplicity = 1:

       Center              X                  Y                   Z               Mass       
    ------------   -----------------  -----------------  -----------------  -----------------
         NA           0.000000000000     0.000000000000     0.000000000000    22.989769282000
         O           -2.462668409983     3.146140775586     2.087382029550    15.994914619570
         H           -0.888715520089     4.156189941013     2.185534404506     1.007825032230
         H           -2.972743285767     3.624606202470     0.481643946226     1.007825032230
         O            1.378279308507    -4.453181188616     1.299957719511    15.994914619570
         H            2.479413273181    -3.548306620428     2.365434441924     1.007825032230
         H            0.219198781922    -5.197268409420     2.406318666648     1.007825032230
         O            0.190461716733    -0.452385316626    -4.338603314177    15.994914619570
         H           -0.140939553889     0.572029546807    -5.829557542915     1.007825032230
         H           -0.592036077297    -2.061471994644    -4.894324524521     1.007825032230
         O            3.845668254352     2.285090845974     0.084922402352    15.994914619570
         H            5.342219851873     1.339870625007     0.633130061621     1.007825032230
         H            4.437575830272     3.132183258424    -1.447350688119     1.007825032230

  Running in c1 symmetry.

  Rotational constants: A =      0.06995  B =      0.05610  C =      0.05127 [cm^-1]
  Rotational constants: A =   2097.00272  B =   1681.82450  C =   1536.95310 [MHz]
  Nuclear repulsion =  211.852998431363460

  Charge       = 1
  Multiplicity = 1
  Electrons    = 50
  Nalpha       = 25
  Nbeta        = 25

  ==> Algorithm <==

  SCF Algorithm Type is DF.
  DIIS enabled.
  MOM disabled.
  Fractional occupation disabled.
  Guess Type is SAD.
  Energy threshold   = 1.00e-08
  Density threshold  = 1.00e-08
  Integral threshold = 1.00e-12

  ==> Primary Basis <==

  Basis Set: AUG-CC-PVTZ
    Blend: AUG-CC-PVTZ
    Number of shells: 144
    Number of basis functions: 418
    Number of Cartesian functions: 479
    Spherical Harmonics?: true
    Max angular momentum: 3

   => Loading Basis Set <=

    Name: (AUG-CC-PVTZ AUX)
    Role: JKFIT
    Keyword: DF_BASIS_SCF
    atoms 1                     entry NA         line   498 file /home/kchung25/anaconda3/envs/p415env/share/psi4/basis/def2-universal-jkfit.gbs 
    atoms 2, 5, 8, 11           entry O          line   286 file /home/kchung25/anaconda3/envs/p415env/share/psi4/basis/aug-cc-pvtz-jkfit.gbs 
    atoms 3-4, 6-7, 9-10, 12-13 entry H          line    70 file /home/kchung25/anaconda3/envs/p415env/share/psi4/basis/aug-cc-pvtz-jkfit.gbs 

  ==> Integral Setup <==

  DFHelper Memory: AOs need 1.125 GiB; user supplied 41.910 GiB. 
  Using in-core AOs.

  ==> MemDFJK: Density-Fitted J/K Matrices <==

    J tasked:                   Yes
    K tasked:                   Yes
    wK tasked:                   No
    OpenMP threads:               6
    Memory [MiB]:             42915
    Algorithm:                 Core
    Schwarz Cutoff:           1E-12
    Mask sparsity (%):       7.7803
    Fitting Condition:        1E-10

   => Auxiliary Basis Set <=

  Basis Set: (AUG-CC-PVTZ AUX)
    Blend: AUG-CC-PVTZ-JKFIT + DEF2-UNIVERSAL-JKFIT
    Number of shells: 266
    Number of basis functions: 896
    Number of Cartesian functions: 1101
    Spherical Harmonics?: true
    Max angular momentum: 4

  Minimum eigenvalue in the overlap matrix is 6.0032813881E-05.
  Reciprocal condition number of the overlap matrix is 4.8833782923E-06.
    Using symmetric orthogonalization.

  ==> Pre-Iterations <==

  SCF Guess: Superposition of Atomic Densities via on-the-fly atomic UHF (no occupation information).

   -------------------------
    Irrep   Nso     Nmo    
   -------------------------
     A        418     418 
   -------------------------
    Total     418     418
   -------------------------

  ==> Iterations <==

                           Total Energy        Delta E     RMS |[F,P]|

   @DF-RHF iter SAD:  -463.90804050397213   -4.63908e+02   0.00000e+00 
   @DF-RHF iter   1:  -465.67266359775067   -1.76462e+00   2.21945e-03 ADIIS/DIIS
   @DF-RHF iter   2:  -465.88527962439503   -2.12616e-01   1.46395e-03 ADIIS/DIIS
   @DF-RHF iter   3:  -465.99971222771353   -1.14433e-01   1.06826e-04 ADIIS/DIIS
   @DF-RHF iter   4:  -466.00129049193998   -1.57826e-03   2.60120e-05 DIIS
   @DF-RHF iter   5:  -466.00138721458711   -9.67226e-05   7.38211e-06 DIIS
   @DF-RHF iter   6:  -466.00139548523941   -8.27065e-06   3.27781e-06 DIIS
   @DF-RHF iter   7:  -466.00139657056064   -1.08532e-06   6.50722e-07 DIIS
   @DF-RHF iter   8:  -466.00139666200266   -9.14420e-08   1.14325e-07 DIIS
   @DF-RHF iter   9:  -466.00139666456494   -2.56227e-09   2.97061e-08 DIIS
   @DF-RHF iter  10:  -466.00139666466663   -1.01693e-10   1.15123e-08 DIIS
   @DF-RHF iter  11:  -466.00139666467965   -1.30171e-11   3.12857e-09 DIIS
  Energy and wave function converged.


  ==> Post-Iterations <==

    Orbital Energies [Eh]
    ---------------------

    Doubly Occupied:                                                      

       1A    -40.605672     2A    -20.751348     3A    -20.749763  
       4A    -20.741240     5A    -20.733106     6A     -2.927344  
       7A     -1.652321     8A     -1.651764     9A     -1.651044  
      10A     -1.534327    11A     -1.532778    12A     -1.526996  
      13A     -1.524373    14A     -0.897076    15A     -0.884738  
      16A     -0.877087    17A     -0.873562    18A     -0.785887  
      19A     -0.779252    20A     -0.768145    21A     -0.760648  
      22A     -0.697169    23A     -0.694005    24A     -0.690532  
      25A     -0.685759  

    Virtual:                                                              

      26A     -0.104464    27A     -0.082155    28A     -0.076946  
      29A     -0.069385    30A     -0.047841    31A     -0.047685  
      32A     -0.046035    33A     -0.042136    34A     -0.039577  
      35A     -0.035660    36A     -0.033021    37A     -0.031446  
      38A     -0.027646    39A     -0.015564    40A     -0.011004  
      41A     -0.008632    42A     -0.005917    43A      0.001634  
      44A      0.003505    45A      0.007036    46A      0.013679  
      47A      0.027734    48A      0.032829    49A      0.038466  
      50A      0.042932    51A      0.052843    52A      0.058796  
      53A      0.062744    54A      0.066875    55A      0.081904  
      56A      0.087136    57A      0.093894    58A      0.097665  
      59A      0.103799    60A      0.107032    61A      0.111580  
      62A      0.115519    63A      0.119901    64A      0.123775  
      65A      0.131778    66A      0.135688    67A      0.140182  
      68A      0.145516    69A      0.153522    70A      0.153923  
      71A      0.157727    72A      0.163163    73A      0.175388  
      74A      0.179602    75A      0.189808    76A      0.199018  
      77A      0.205909    78A      0.213656    79A      0.227340  
      80A      0.236823    81A      0.249607    82A      0.257101  
      83A      0.260611    84A      0.272190    85A      0.275752  
      86A      0.281645    87A      0.293527    88A      0.299330  
      89A      0.302239    90A      0.308583    91A      0.313501  
      92A      0.321973    93A      0.326955    94A      0.333574  
      95A      0.340659    96A      0.344304    97A      0.347767  
      98A      0.353007    99A      0.354781   100A      0.363126  
     101A      0.370361   102A      0.374819   103A      0.378951  
     104A      0.381679   105A      0.391365   106A      0.404891  
     107A      0.406479   108A      0.411576   109A      0.415775  
     110A      0.426259   111A      0.431726   112A      0.439583  
     113A      0.461619   114A      0.477548   115A      0.491134  
     116A      0.506886   117A      0.512168   118A      0.527704  
     119A      0.538011   120A      0.542384   121A      0.557873  
     122A      0.563753   123A      0.577366   124A      0.585201  
     125A      0.607626   126A      0.620011   127A      0.622991  
     128A      0.625723   129A      0.644249   130A      0.649113  
     131A      0.664010   132A      0.677941   133A      0.685857  
     134A      0.704290   135A      0.714199   136A      0.717780  
     137A      0.725559   138A      0.742966   139A      0.751200  
     140A      0.756298   141A      0.764144   142A      0.774872  
     143A      0.782694   144A      0.788309   145A      0.804262  
     146A      0.804471   147A      0.808074   148A      0.814162  
     149A      0.826942   150A      0.833582   151A      0.837927  
     152A      0.848581   153A      0.855134   154A      0.858986  
     155A      0.881563   156A      0.887873   157A      0.897173  
     158A      0.907255   159A      0.917109   160A      0.929099  
     161A      0.934262   162A      0.938658   163A      0.946310  
     164A      0.948936   165A      0.955020   166A      0.959934  
     167A      0.961810   168A      0.972019   169A      0.975775  
     170A      0.980953   171A      1.002593   172A      1.018486  
     173A      1.020864   174A      1.025986   175A      1.041968  
     176A      1.046047   177A      1.052915   178A      1.066461  
     179A      1.075514   180A      1.091211   181A      1.100529  
     182A      1.104351   183A      1.105852   184A      1.123471  
     185A      1.133228   186A      1.139070   187A      1.146663  
     188A      1.157902   189A      1.175547   190A      1.195211  
     191A      1.217858   192A      1.225916   193A      1.237453  
     194A      1.245230   195A      1.261162   196A      1.267038  
     197A      1.279845   198A      1.301886   199A      1.324365  
     200A      1.345118   201A      1.370433   202A      1.400107  
     203A      1.427832   204A      1.450072   205A      1.452147  
     206A      1.476844   207A      1.495549   208A      1.501084  
     209A      1.516656   210A      1.534000   211A      1.554490  
     212A      1.561116   213A      1.588475   214A      1.609984  
     215A      1.627141   216A      1.630012   217A      1.687547  
     218A      1.709748   219A      1.731762   220A      1.748938  
     221A      1.756226   222A      1.805204   223A      1.843358  
     224A      1.859254   225A      1.870643   226A      1.886501  
     227A      1.897285   228A      1.908570   229A      1.930602  
     230A      1.988430   231A      2.020011   232A      2.051704  
     233A      2.101678   234A      2.168426   235A      2.182960  
     236A      2.192671   237A      2.201302   238A      2.214716  
     239A      2.224759   240A      2.252375   241A      2.269777  
     242A      2.277817   243A      2.290578   244A      2.301786  
     245A      2.333338   246A      2.352143   247A      2.355475  
     248A      2.365582   249A      2.374563   250A      2.389283  
     251A      2.417884   252A      2.430258   253A      2.438142  
     254A      2.453972   255A      2.464138   256A      2.488281  
     257A      2.498862   258A      2.531605   259A      2.549539  
     260A      2.560121   261A      2.569049   262A      2.579535  
     263A      2.586068   264A      2.619979   265A      2.633461  
     266A      2.648515   267A      2.654634   268A      2.673894  
     269A      2.688371   270A      2.698215   271A      2.701651  
     272A      2.719098   273A      2.721092   274A      2.725575  
     275A      2.749064   276A      2.759123   277A      2.763238  
     278A      2.782460   279A      2.815315   280A      2.831024  
     281A      2.863499   282A      3.132945   283A      3.566470  
     284A      3.621998   285A      3.636203   286A      3.660620  
     287A      3.685910   288A      3.701224   289A      3.731150  
     290A      3.786302   291A      3.897409   292A      3.916945  
     293A      3.968374   294A      3.990036   295A      4.005949  
     296A      4.035401   297A      4.064823   298A      4.071315  
     299A      4.105996   300A      4.114565   301A      4.121153  
     302A      4.128695   303A      4.147527   304A      4.164422  
     305A      4.174767   306A      4.178274   307A      4.225476  
     308A      4.262454   309A      4.270898   310A      4.283756  
     311A      4.302835   312A      4.309856   313A      4.319052  
     314A      4.339256   315A      4.345169   316A      4.361681  
     317A      4.378587   318A      4.388197   319A      4.395497  
     320A      4.397205   321A      4.420452   322A      4.423715  
     323A      4.443091   324A      4.457177   325A      4.475681  
     326A      4.494968   327A      4.656441   328A      4.663856  
     329A      4.673630   330A      4.687361   331A      4.705719  
     332A      4.732446   333A      4.791483   334A      4.795052  
     335A      4.931665   336A      4.963969   337A      4.968273  
     338A      4.996394   339A      5.012879   340A      5.051003  
     341A      5.060847   342A      5.067557   343A      5.084177  
     344A      5.101118   345A      5.112301   346A      5.130579  
     347A      5.144899   348A      5.173683   349A      5.290651  
     350A      5.312118   351A      5.327048   352A      5.337069  
     353A      5.474830   354A      5.482311   355A      5.533501  
     356A      5.555257   357A      5.572777   358A      5.656659  
     359A      6.120859   360A      6.123630   361A      6.178119  
     362A      6.196517   363A      6.389352   364A      6.402720  
     365A      6.430289   366A      6.438810   367A      6.570443  
     368A      6.604581   369A      6.616045   370A      6.625291  
     371A      6.749710   372A      6.812797   373A      6.834878  
     374A      6.879610   375A      6.954459   376A      6.970915  
     377A      7.027478   378A      7.038335   379A      7.066444  
     380A      7.082365   381A      7.094241   382A      7.109674  
     383A      7.126920   384A      7.175231   385A      7.192287  
     386A      7.205758   387A      7.207967   388A      7.214437  
     389A      7.225165   390A      7.228503   391A      7.236500  
     392A      7.263550   393A      7.268784   394A      7.286100  
     395A      7.290434   396A      7.296739   397A      7.301950  
     398A      7.320800   399A      7.448421   400A      7.478161  
     401A      7.492769   402A      7.524603   403A      7.648119  
     404A      7.672005   405A      7.697303   406A      7.749746  
     407A      7.792695   408A      7.800860   409A      7.892165  
     410A      7.901983   411A      8.597396   412A      8.624545  
     413A      8.746668   414A      8.825328   415A     15.253954  
     416A     15.355161   417A     16.112002   418A     16.698203  

    Final Occupation by Irrep:
              A 
    DOCC [    25 ]
    NA   [    25 ]
    NB   [    25 ]

  @DF-RHF Final Energy:  -466.00139666467965

   => Energetics <=

    Nuclear Repulsion Energy =            211.8529984313634600
    One-Electron Energy =               -1061.7569174077100342
    Two-Electron Energy =                 383.9025223116669849
    Total Energy =                       -466.0013966646796462

Computation Completed


Properties will be evaluated at   0.000000,   0.000000,   0.000000 [a0]

Properties computed using the SCF density matrix


 Multipole Moments:

 ------------------------------------------------------------------------------------
     Multipole            Electronic (a.u.)      Nuclear  (a.u.)        Total (a.u.)
 ------------------------------------------------------------------------------------

 L = 1.  Multiply by 2.5417464519 to convert [e a0] to [Debye]
 Dipole X            :        -30.6072506           31.4979003            0.8906496
 Dipole Y            :         -5.8732834            6.2231535            0.3498701
 Dipole Z            :         10.0846783          -11.0299005           -0.9452223
 Magnitude           :                                                    1.3450320

 ------------------------------------------------------------------------------------

*** tstop() called on moses-razer at Sat Jan  6 18:27:23 2024
Module time:
	user time   =      29.70 seconds =       0.49 minutes
	system time =       1.29 seconds =       0.02 minutes
	total time  =          6 seconds =       0.10 minutes
Total time:
	user time   =      97.61 seconds =       1.63 minutes
	system time =       5.04 seconds =       0.08 minutes
	total time  =         22 seconds =       0.37 minutes

*** tstart() called on moses-razer
*** at Sat Jan  6 18:27:23 2024


  //>>>>>>>>>>>>>>>>>>>>>>>>>>>>>>>>>>>//
  //               DFMP2               //
  //<<<<<<<<<<<<<<<<<<<<<<<<<<<<<<<<<<<//

   => Loading Basis Set <=

    Name: (AUG-CC-PVTZ AUX)
    Role: RIFIT
    Keyword: DF_BASIS_MP2
    atoms 1                     entry NA         line   610 file /home/kchung25/anaconda3/envs/p415env/share/psi4/basis/def2-qzvpp-ri.gbs 
    atoms 2, 5, 8, 11           entry O          line   264 file /home/kchung25/anaconda3/envs/p415env/share/psi4/basis/aug-cc-pvtz-ri.gbs 
    atoms 3-4, 6-7, 9-10, 12-13 entry H          line    30 file /home/kchung25/anaconda3/envs/p415env/share/psi4/basis/aug-cc-pvtz-ri.gbs 

	 --------------------------------------------------------
	                          DF-MP2                         
	      2nd-Order Density-Fitted Moller-Plesset Theory     
	              RMP2 Wavefunction,   6 Threads             
	                                                         
	        Rob Parrish, Justin Turney, Andy Simmonett,      
	           Ed Hohenstein, and C. David Sherrill          
	 --------------------------------------------------------

   => Auxiliary Basis Set <=

  Basis Set: (AUG-CC-PVTZ AUX)
    Blend: AUG-CC-PVTZ-RI + DEF2-QZVPP-RI
    Number of shells: 266
    Number of basis functions: 958
    Number of Cartesian functions: 1198
    Spherical Harmonics?: true
    Max angular momentum: 4

	 --------------------------------------------------------
	                 NBF =   418, NAUX =   958
	 --------------------------------------------------------
	   CLASS    FOCC     OCC    AOCC    AVIR     VIR    FVIR
	   PAIRS       0      25      25     393     393       0
	 --------------------------------------------------------

	-----------------------------------------------------------
	 ==================> DF-MP2 Energies <==================== 
	-----------------------------------------------------------
	 Reference Energy          =    -466.0013966646796462 [Eh]
	 Singles Energy            =      -0.0000000000000000 [Eh]
	 Same-Spin Energy          =      -0.2800145404825649 [Eh]
	 Opposite-Spin Energy      =      -0.8787306829494109 [Eh]
	 Correlation Energy        =      -1.1587452234319757 [Eh]
	 Total Energy              =    -467.1601418881116388 [Eh]
	-----------------------------------------------------------
	 ================> DF-SCS-MP2 Energies <================== 
	-----------------------------------------------------------
	 SCS Same-Spin Scale       =       0.3333333333333333 [-]
	 SCS Opposite-Spin Scale   =       1.2000000000000000 [-]
	 SCS Same-Spin Energy      =      -0.0933381801608550 [Eh]
	 SCS Opposite-Spin Energy  =      -1.0544768195392931 [Eh]
	 SCS Correlation Energy    =      -1.1478149997001481 [Eh]
	 SCS Total Energy          =    -467.1492116643797772 [Eh]
	-----------------------------------------------------------


*** tstop() called on moses-razer at Sat Jan  6 18:27:26 2024
Module time:
	user time   =      12.21 seconds =       0.20 minutes
	system time =       0.79 seconds =       0.01 minutes
	total time  =          3 seconds =       0.05 minutes
Total time:
	user time   =     109.82 seconds =       1.83 minutes
	system time =       5.83 seconds =       0.10 minutes
	total time  =         25 seconds =       0.42 minutes

    Psi4 stopped on: Saturday, 06 January 2024 06:27PM
    Psi4 wall time for execution: 0:00:09.12


  //>>>>>>>>>>>>>>>>>>>>>>>>>>>>>>>>>>>//
  //          ManyBody Results         //
  //<<<<<<<<<<<<<<<<<<<<<<<<<<<<<<<<<<<//


   ==> N-Body: Counterpoise Corrected (CP) energies <==

        n-Body     Total Energy            Interaction Energy                          N-body Contribution to Interaction Energy
                   [Eh]                    [Eh]                  [kcal/mol]            [Eh]                  [kcal/mol]
             1  N/A                         0.000000000000        0.000000000000        0.000000000000        0.000000000000
  FULL/RTN   2  N/A                        -0.091019039424      -57.115309532654       -0.091019039424      -57.115309532654


    Psi4 stopped on: Saturday, 06 January 2024 06:27PM
    Psi4 wall time for execution: 0:00:26.17

*** Psi4 exiting successfully. Buy a developer a beer!
