
    -----------------------------------------------------------------------
          Psi4: An Open-Source Ab Initio Electronic Structure Package
                               Psi4 1.8.2 release

                         Git: Rev {} zzzzzzz 


    D. G. A. Smith, L. A. Burns, A. C. Simmonett, R. M. Parrish,
    M. C. Schieber, R. Galvelis, P. Kraus, H. Kruse, R. Di Remigio,
    A. Alenaizan, A. M. James, S. Lehtola, J. P. Misiewicz, M. Scheurer,
    R. A. Shaw, J. B. Schriber, Y. Xie, Z. L. Glick, D. A. Sirianni,
    J. S. O'Brien, J. M. Waldrop, A. Kumar, E. G. Hohenstein,
    B. P. Pritchard, B. R. Brooks, H. F. Schaefer III, A. Yu. Sokolov,
    K. Patkowski, A. E. DePrince III, U. Bozkaya, R. A. King,
    F. A. Evangelista, J. M. Turney, T. D. Crawford, C. D. Sherrill,
    J. Chem. Phys. 152(18) 184108 (2020). https://doi.org/10.1063/5.0006002

                            Additional Code Authors
    E. T. Seidl, C. L. Janssen, E. F. Valeev, M. L. Leininger,
    J. F. Gonthier, R. M. Richard, H. R. McAlexander, M. Saitow, X. Wang,
    P. Verma, M. H. Lechner, A. Jiang, S. Behnle, A. G. Heide,
    M. F. Herbst, and D. L. Poole

             Previous Authors, Complete List of Code Contributors,
                       and Citations for Specific Modules
    https://github.com/psi4/psi4/blob/master/codemeta.json
    https://github.com/psi4/psi4/graphs/contributors
    http://psicode.org/psi4manual/master/introduction.html#citing-psifour

    -----------------------------------------------------------------------


    Psi4 started on: Monday, 22 January 2024 04:02PM

    Process ID: 75647
    Host:       ddmfs1
    PSIDATADIR: /ddmfs1b/softs/psi4conda/share/psi4
    Memory:     500.0 MiB
    Threads:    20
    
  ==> Input File <==

--------------------------------------------------------------------------
MEMORY 60 GB

molecule dimer {
0 1
Gh(Na)     0.000000     0.000000     0.000000
Gh(O)      2.286825     0.018738     1.162364
Gh(H)      2.422507    -0.937629     1.320021
Gh(H)      3.154241     0.354742     0.916157
Gh(O)     -1.940000    -0.872605    -1.363045
Gh(H)     -1.549085    -0.576304    -2.160318
Gh(H)     -1.845344    -1.858086    -1.342483
O         -0.655173     1.813118     1.423743
H         -0.115660     2.337774     1.998990
H         -1.523922     1.648894     1.868316
Gh(O)      0.732611    -2.100991    -1.445357
Gh(H)      1.373649    -1.504174    -1.763716
Gh(H)      1.227791    -2.880539    -1.203486
Gh(O)      0.580925     2.071104    -1.522124
Gh(H)      1.295984     2.707142    -1.331350
Gh(H)      0.539691     1.997408    -2.447503
Gh(O)     -0.668604    -1.590147     1.552221
Gh(H)     -1.165794    -0.844968     2.001000
Gh(H)     -1.282074    -2.299719     1.373430

units ang
no_reorient
no_com
symmetry c1
}

set {
basis        aug-cc-pVTZ
scf_type     df
}

energy("mp2")
--------------------------------------------------------------------------

  Memory set to  55.879 GiB by Python driver.

Scratch directory: /ddmfs1a/scratch/
   => Libint2 <=

    Primary   basis highest AM E, G, H:  5, 4, 3
    Auxiliary basis highest AM E, G, H:  6, 5, 4
    Onebody   basis highest AM E, G, H:  6, 5, 4
    Solid Harmonics ordering:            gaussian

*** tstart() called on ddmfs1
*** at Mon Jan 22 16:02:01 2024

   => Loading Basis Set <=

    Name: AUG-CC-PVTZ
    Role: ORBITAL
    Keyword: BASIS
    atoms 1                                   entry NA         line   469 file /ddmfs1b/softs/psi4conda/share/psi4/basis/aug-cc-pvtz.gbs 
    atoms 2, 5, 8, 11, 14, 17                 entry O          line   331 file /ddmfs1b/softs/psi4conda/share/psi4/basis/aug-cc-pvtz.gbs 
    atoms 3-4, 6-7, 9-10, 12-13, 15-16, 18-19 entry H          line    40 file /ddmfs1b/softs/psi4conda/share/psi4/basis/aug-cc-pvtz.gbs 


         ---------------------------------------------------------
                                   SCF
               by Justin Turney, Rob Parrish, Andy Simmonett
                          and Daniel G. A. Smith
                              RHF Reference
                       20 Threads,  57220 MiB Core
         ---------------------------------------------------------

  ==> Geometry <==

    Molecular point group: c1
    Full point group: C1

    Geometry (in Angstrom), charge = 0, multiplicity = 1:

       Center              X                  Y                   Z               Mass       
    ------------   -----------------  -----------------  -----------------  -----------------
      Gh(NA)          0.000000000000     0.000000000000     0.000000000000    22.989769282000
      Gh(O)           2.286825000000     0.018738000000     1.162364000000    15.994914619570
      Gh(H)           2.422507000000    -0.937629000000     1.320021000000     1.007825032230
      Gh(H)           3.154241000000     0.354742000000     0.916157000000     1.007825032230
      Gh(O)          -1.940000000000    -0.872605000000    -1.363045000000    15.994914619570
      Gh(H)          -1.549085000000    -0.576304000000    -2.160318000000     1.007825032230
      Gh(H)          -1.845344000000    -1.858086000000    -1.342483000000     1.007825032230
         O           -0.655173000000     1.813118000000     1.423743000000    15.994914619570
         H           -0.115660000000     2.337774000000     1.998990000000     1.007825032230
         H           -1.523922000000     1.648894000000     1.868316000000     1.007825032230
      Gh(O)           0.732611000000    -2.100991000000    -1.445357000000    15.994914619570
      Gh(H)           1.373649000000    -1.504174000000    -1.763716000000     1.007825032230
      Gh(H)           1.227791000000    -2.880539000000    -1.203486000000     1.007825032230
      Gh(O)           0.580925000000     2.071104000000    -1.522124000000    15.994914619570
      Gh(H)           1.295984000000     2.707142000000    -1.331350000000     1.007825032230
      Gh(H)           0.539691000000     1.997408000000    -2.447503000000     1.007825032230
      Gh(O)          -0.668604000000    -1.590147000000     1.552221000000    15.994914619570
      Gh(H)          -1.165794000000    -0.844968000000     2.001000000000     1.007825032230
      Gh(H)          -1.282074000000    -2.299719000000     1.373430000000     1.007825032230

  Running in c1 symmetry.

  Rotational constants: A =      0.04056  B =      0.03413  C =      0.03205 [cm^-1]
  Rotational constants: A =   1215.91001  B =   1023.15878  C =    960.74391 [MHz]
  Nuclear repulsion =    9.083471935731589

  Charge       = 0
  Multiplicity = 1
  Electrons    = 10
  Nalpha       = 5
  Nbeta        = 5

  ==> Algorithm <==

  SCF Algorithm Type is DF.
  DIIS enabled.
  MOM disabled.
  Fractional occupation disabled.
  Guess Type is SAD.
  Energy threshold   = 1.00e-08
  Density threshold  = 1.00e-08
  Integral threshold = 1.00e-12

  ==> Primary Basis <==

  Basis Set: AUG-CC-PVTZ
    Blend: AUG-CC-PVTZ
    Number of shells: 208
    Number of basis functions: 602
    Number of Cartesian functions: 689
    Spherical Harmonics?: true
    Max angular momentum: 3

   => Loading Basis Set <=

    Name: (AUG-CC-PVTZ AUX)
    Role: JKFIT
    Keyword: DF_BASIS_SCF
    atoms 1                                   entry NA         line   498 file /ddmfs1b/softs/psi4conda/share/psi4/basis/def2-universal-jkfit.gbs 
    atoms 2, 5, 8, 11, 14, 17                 entry O          line   286 file /ddmfs1b/softs/psi4conda/share/psi4/basis/aug-cc-pvtz-jkfit.gbs 
    atoms 3-4, 6-7, 9-10, 12-13, 15-16, 18-19 entry H          line    70 file /ddmfs1b/softs/psi4conda/share/psi4/basis/aug-cc-pvtz-jkfit.gbs 

  ==> Integral Setup <==

  DFHelper Memory: AOs need 3.268 GiB; user supplied 41.910 GiB. 
  Using in-core AOs.

  ==> MemDFJK: Density-Fitted J/K Matrices <==

    J tasked:                   Yes
    K tasked:                   Yes
    wK tasked:                   No
    OpenMP threads:              20
    Memory [MiB]:             42915
    Algorithm:                 Core
    Schwarz Cutoff:           1E-12
    Mask sparsity (%):      10.0297
    Fitting Condition:        1E-10

   => Auxiliary Basis Set <=

  Basis Set: (AUG-CC-PVTZ AUX)
    Blend: AUG-CC-PVTZ-JKFIT + DEF2-UNIVERSAL-JKFIT
    Number of shells: 382
    Number of basis functions: 1288
    Number of Cartesian functions: 1583
    Spherical Harmonics?: true
    Max angular momentum: 4

  Minimum eigenvalue in the overlap matrix is 2.5098764239E-05.
  Reciprocal condition number of the overlap matrix is 1.6644407469E-06.
    Using symmetric orthogonalization.

  ==> Pre-Iterations <==

  SCF Guess: Superposition of Atomic Densities via on-the-fly atomic UHF (no occupation information).

   -------------------------
    Irrep   Nso     Nmo    
   -------------------------
     A        602     602 
   -------------------------
    Total     602     602
   -------------------------

  ==> Iterations <==

                           Total Energy        Delta E     RMS |[F,P]|

   @DF-RHF iter SAD:   -75.46069063095658   -7.54607e+01   0.00000e+00 
   @DF-RHF iter   1:   -75.97415522424102   -5.13465e-01   7.77762e-04 ADIIS/DIIS
   @DF-RHF iter   2:   -76.02633817408447   -5.21829e-02   5.33622e-04 ADIIS/DIIS
   @DF-RHF iter   3:   -76.05824304383529   -3.19049e-02   3.63792e-05 DIIS
   @DF-RHF iter   4:   -76.05865287662670   -4.09833e-04   8.93358e-06 DIIS
   @DF-RHF iter   5:   -76.05867983827437   -2.69616e-05   2.05328e-06 DIIS
   @DF-RHF iter   6:   -76.05868212101473   -2.28274e-06   4.61903e-07 DIIS
   @DF-RHF iter   7:   -76.05868224845892   -1.27444e-07   8.63627e-08 DIIS
   @DF-RHF iter   8:   -76.05868225237131   -3.91239e-09   1.45466e-08 DIIS
   @DF-RHF iter   9:   -76.05868225246088   -8.95710e-11   3.74906e-09 DIIS
  Energy and wave function converged.


  ==> Post-Iterations <==

    Orbital Energies [Eh]
    ---------------------

    Doubly Occupied:                                                      

       1A    -20.566943     2A     -1.345345     3A     -0.719304  
       4A     -0.574629     5A     -0.508176  

    Virtual:                                                              

       6A      0.007636     7A      0.015843     8A      0.016929  
       9A      0.018022    10A      0.038510    11A      0.050475  
      12A      0.051278    13A      0.054074    14A      0.054355  
      15A      0.056602    16A      0.057923    17A      0.059635  
      18A      0.061543    19A      0.076720    20A      0.077459  
      21A      0.082713    22A      0.083282    23A      0.088023  
      24A      0.091443    25A      0.094604    26A      0.099227  
      27A      0.109401    28A      0.110674    29A      0.119082  
      30A      0.121361    31A      0.136496    32A      0.139943  
      33A      0.149343    34A      0.158559    35A      0.159331  
      36A      0.167342    37A      0.172785    38A      0.176268  
      39A      0.179870    40A      0.189852    41A      0.192632  
      42A      0.195696    43A      0.200743    44A      0.203574  
      45A      0.206655    46A      0.210866    47A      0.223629  
      48A      0.229048    49A      0.233134    50A      0.237534  
      51A      0.248490    52A      0.252491    53A      0.260292  
      54A      0.263107    55A      0.266135    56A      0.273696  
      57A      0.277271    58A      0.279529    59A      0.285413  
      60A      0.311865    61A      0.314518    62A      0.323148  
      63A      0.325926    64A      0.333659    65A      0.337636  
      66A      0.340641    67A      0.347597    68A      0.350676  
      69A      0.359231    70A      0.366684    71A      0.372039  
      72A      0.375937    73A      0.379165    74A      0.384466  
      75A      0.389284    76A      0.399616    77A      0.405632  
      78A      0.406808    79A      0.414601    80A      0.416812  
      81A      0.427438    82A      0.430980    83A      0.434412  
      84A      0.436646    85A      0.441471    86A      0.443247  
      87A      0.444906    88A      0.450520    89A      0.453840  
      90A      0.459405    91A      0.461408    92A      0.471148  
      93A      0.474563    94A      0.475741    95A      0.481437  
      96A      0.486483    97A      0.489505    98A      0.495805  
      99A      0.496959   100A      0.505284   101A      0.509241  
     102A      0.513714   103A      0.516902   104A      0.524100  
     105A      0.528050   106A      0.536614   107A      0.546924  
     108A      0.551854   109A      0.557003   110A      0.559631  
     111A      0.571947   112A      0.577909   113A      0.585346  
     114A      0.595810   115A      0.611653   116A      0.612896  
     117A      0.618653   118A      0.628393   119A      0.644237  
     120A      0.682314   121A      0.683167   122A      0.688271  
     123A      0.711077   124A      0.728667   125A      0.731441  
     126A      0.744291   127A      0.759266   128A      0.762883  
     129A      0.771045   130A      0.777883   131A      0.788969  
     132A      0.797699   133A      0.807773   134A      0.810717  
     135A      0.824113   136A      0.827820   137A      0.834638  
     138A      0.835420   139A      0.837764   140A      0.847936  
     141A      0.851853   142A      0.861712   143A      0.864068  
     144A      0.872905   145A      0.877479   146A      0.886474  
     147A      0.892722   148A      0.899054   149A      0.904520  
     150A      0.913325   151A      0.918639   152A      0.925136  
     153A      0.933389   154A      0.939399   155A      0.943019  
     156A      0.949812   157A      0.955301   158A      0.959883  
     159A      0.961872   160A      0.967170   161A      0.976716  
     162A      0.982063   163A      0.985738   164A      0.991999  
     165A      0.995236   166A      1.000673   167A      1.007874  
     168A      1.012628   169A      1.019981   170A      1.032361  
     171A      1.035067   172A      1.039338   173A      1.046431  
     174A      1.049201   175A      1.054552   176A      1.063941  
     177A      1.069896   178A      1.076037   179A      1.078611  
     180A      1.083540   181A      1.091575   182A      1.093945  
     183A      1.104456   184A      1.109433   185A      1.119361  
     186A      1.127575   187A      1.129566   188A      1.133914  
     189A      1.141483   190A      1.149800   191A      1.151409  
     192A      1.157150   193A      1.165379   194A      1.170348  
     195A      1.174193   196A      1.190764   197A      1.193296  
     198A      1.199000   199A      1.211394   200A      1.218613  
     201A      1.220470   202A      1.226908   203A      1.232577  
     204A      1.237433   205A      1.255732   206A      1.257511  
     207A      1.265015   208A      1.278214   209A      1.280669  
     210A      1.286171   211A      1.302936   212A      1.307607  
     213A      1.313550   214A      1.326526   215A      1.332079  
     216A      1.338990   217A      1.342036   218A      1.351900  
     219A      1.359883   220A      1.365838   221A      1.372585  
     222A      1.385562   223A      1.395347   224A      1.398204  
     225A      1.401831   226A      1.421162   227A      1.425238  
     228A      1.430872   229A      1.449392   230A      1.460292  
     231A      1.466564   232A      1.480770   233A      1.490395  
     234A      1.497269   235A      1.503884   236A      1.525688  
     237A      1.528465   238A      1.531517   239A      1.540539  
     240A      1.546793   241A      1.557635   242A      1.566169  
     243A      1.584556   244A      1.607780   245A      1.610809  
     246A      1.617431   247A      1.637522   248A      1.645233  
     249A      1.654588   250A      1.657642   251A      1.681422  
     252A      1.695539   253A      1.710669   254A      1.718557  
     255A      1.728794   256A      1.741854   257A      1.767172  
     258A      1.773158   259A      1.790242   260A      1.806143  
     261A      1.815247   262A      1.834573   263A      1.841257  
     264A      1.852203   265A      1.864383   266A      1.877727  
     267A      1.882142   268A      1.889317   269A      1.895413  
     270A      1.914005   271A      1.924472   272A      1.933422  
     273A      1.936708   274A      1.951840   275A      1.962096  
     276A      1.962898   277A      1.983932   278A      1.988687  
     279A      1.993245   280A      1.998069   281A      2.009870  
     282A      2.033221   283A      2.050488   284A      2.059769  
     285A      2.063713   286A      2.082368   287A      2.089730  
     288A      2.097685   289A      2.104117   290A      2.125398  
     291A      2.134736   292A      2.152227   293A      2.167058  
     294A      2.198019   295A      2.212965   296A      2.261454  
     297A      2.401835   298A      2.444481   299A      2.454875  
     300A      2.484919   301A      2.490347   302A      2.495947  
     303A      2.529942   304A      2.531383   305A      2.543015  
     306A      2.558049   307A      2.577436   308A      2.585179  
     309A      2.598165   310A      2.607856   311A      2.612664  
     312A      2.625288   313A      2.628252   314A      2.641547  
     315A      2.655869   316A      2.664434   317A      2.672880  
     318A      2.677032   319A      2.695517   320A      2.703286  
     321A      2.705760   322A      2.728359   323A      2.735464  
     324A      2.743792   325A      2.767288   326A      2.777185  
     327A      2.778065   328A      2.796017   329A      2.803360  
     330A      2.813365   331A      2.830915   332A      2.844003  
     333A      2.846386   334A      2.866936   335A      2.909473  
     336A      2.913054   337A      2.923175   338A      2.929758  
     339A      2.949825   340A      2.961449   341A      2.963847  
     342A      2.978843   343A      3.001852   344A      3.004478  
     345A      3.008566   346A      3.038849   347A      3.048178  
     348A      3.054991   349A      3.070730   350A      3.085223  
     351A      3.111849   352A      3.134202   353A      3.188472  
     354A      3.231508   355A      3.245743   356A      3.256852  
     357A      3.268038   358A      3.274085   359A      3.277741  
     360A      3.298209   361A      3.314983   362A      3.320519  
     363A      3.343437   364A      3.352724   365A      3.360509  
     366A      3.372496   367A      3.377828   368A      3.394422  
     369A      3.402834   370A      3.411588   371A      3.421420  
     372A      3.434529   373A      3.435781   374A      3.458052  
     375A      3.466414   376A      3.481285   377A      3.502963  
     378A      3.532512   379A      3.637582   380A      3.668281  
     381A      3.678037   382A      3.688454   383A      3.748712  
     384A      3.755009   385A      3.771656   386A      3.803637  
     387A      3.811207   388A      3.830545   389A      3.888014  
     390A      3.962070   391A      4.145655   392A      4.310126  
     393A      4.312166   394A      4.348678   395A      4.417249  
     396A      4.445406   397A      4.464036   398A      4.473568  
     399A      4.479738   400A      4.491579   401A      4.511918  
     402A      4.536472   403A      4.554458   404A      4.569215  
     405A      4.579681   406A      4.591611   407A      4.601600  
     408A      4.612914   409A      4.627878   410A      4.634287  
     411A      4.637313   412A      4.658739   413A      4.677870  
     414A      4.687940   415A      4.700036   416A      4.707138  
     417A      4.726518   418A      4.743157   419A      4.752264  
     420A      4.769525   421A      4.774959   422A      4.786822  
     423A      4.801854   424A      4.820779   425A      4.826725  
     426A      4.837832   427A      4.843789   428A      4.855065  
     429A      4.861105   430A      4.874997   431A      4.899396  
     432A      4.977051   433A      5.009930   434A      5.014984  
     435A      5.025824   436A      5.038610   437A      5.052771  
     438A      5.058357   439A      5.068168   440A      5.093424  
     441A      5.114149   442A      5.138542   443A      5.152983  
     444A      5.164962   445A      5.176005   446A      5.189302  
     447A      5.209780   448A      5.226020   449A      5.256610  
     450A      5.259080   451A      5.269944   452A      5.288517  
     453A      5.328335   454A      5.380867   455A      5.386776  
     456A      5.478608   457A      5.523353   458A      5.536790  
     459A      5.549740   460A      5.576213   461A      5.588306  
     462A      5.598496   463A      5.612996   464A      5.641120  
     465A      5.671634   466A      5.690366   467A      5.732714  
     468A      5.762019   469A      5.775432   470A      5.787195  
     471A      5.807929   472A      5.842036   473A      5.873330  
     474A      5.906345   475A      5.926279   476A      5.932710  
     477A      6.004667   478A      6.052325   479A      6.194834  
     480A      6.235103   481A      6.253654   482A      6.285585  
     483A      6.342832   484A      6.371751   485A      6.402615  
     486A      6.425361   487A      6.458216   488A      6.505805  
     489A      6.569204   490A      6.691729   491A      6.721677  
     492A      6.751979   493A      6.765257   494A      6.802950  
     495A      6.825942   496A      6.840367   497A      6.933760  
     498A      7.060923   499A      7.101433   500A      7.142846  
     501A      7.180229   502A      7.210148   503A      7.221449  
     504A      7.233355   505A      7.300686   506A      7.356149  
     507A      7.392901   508A      7.433534   509A      7.444838  
     510A      7.457265   511A      7.656779   512A      7.736693  
     513A      7.742853   514A      7.756140   515A      7.786046  
     516A      7.792133   517A      7.805150   518A      7.850942  
     519A      7.886551   520A      7.892005   521A      7.909477  
     522A      7.956612   523A      7.968154   524A      7.996405  
     525A      8.109396   526A      8.131277   527A      8.148752  
     528A      8.174020   529A      8.208636   530A      8.215125  
     531A      8.261780   532A      8.263873   533A      8.281797  
     534A      8.282536   535A      8.307680   536A      8.335880  
     537A      8.345349   538A      8.374943   539A      8.398061  
     540A      8.743396   541A      8.777023   542A      8.785709  
     543A      8.825957   544A      8.842214   545A      8.863815  
     546A      8.869513   547A      8.884367   548A      8.939060  
     549A      8.950702   550A      8.994222   551A      9.891607  
     552A      9.904910   553A      9.924483   554A      9.938968  
     555A      9.985083   556A     10.000717   557A     10.020905  
     558A     10.028911   559A     10.044354   560A     10.056924  
     561A     10.058875   562A     10.081616   563A     10.085889  
     564A     10.099067   565A     10.124049   566A     10.232908  
     567A     10.252890   568A     10.255554   569A     10.263884  
     570A     10.301564   571A     11.069359   572A     11.152121  
     573A     11.185102   574A     11.262925   575A     11.370780  
     576A     11.803420   577A     11.813810   578A     11.867305  
     579A     11.947554   580A     11.983660   581A     12.118162  
     582A     12.214988   583A     12.316330   584A     12.404803  
     585A     12.484363   586A     13.512595   587A     13.580842  
     588A     13.670437   589A     13.711436   590A     13.810541  
     591A     13.912398   592A     13.951008   593A     13.974068  
     594A     13.998886   595A     14.055848   596A     16.006746  
     597A     64.765998   598A     64.883396   599A     65.209439  
     600A     65.813751   601A     65.882134   602A     66.843256  

    Final Occupation by Irrep:
              A 
    DOCC [     5 ]
    NA   [     5 ]
    NB   [     5 ]

  @DF-RHF Final Energy:   -76.05868225246088

   => Energetics <=

    Nuclear Repulsion Energy =              9.0834719357315894
    One-Electron Energy =                -122.8555107362793990
    Two-Electron Energy =                  37.7133565480869350
    Total Energy =                        -76.0586822524608692

Computation Completed


Properties will be evaluated at   0.000000,   0.000000,   0.000000 [a0]

Properties computed using the SCF density matrix


 Multipole Moments:

 ------------------------------------------------------------------------------------
     Multipole            Electronic (a.u.)      Nuclear  (a.u.)        Total (a.u.)
 ------------------------------------------------------------------------------------

 L = 1.  Multiply by 2.5417464519 to convert [e a0] to [Debye]
 Dipole X            :         12.7886987          -13.0031412           -0.2144425
 Dipole Y            :        -34.7001580           34.9440823            0.2439243
 Dipole Z            :        -28.1496031           28.8320239            0.6824209
 Magnitude           :                                                    0.7557664

 ------------------------------------------------------------------------------------

*** tstop() called on ddmfs1 at Mon Jan 22 16:02:11 2024
Module time:
	user time   =     134.61 seconds =       2.24 minutes
	system time =       7.34 seconds =       0.12 minutes
	total time  =         10 seconds =       0.17 minutes
Total time:
	user time   =     134.61 seconds =       2.24 minutes
	system time =       7.34 seconds =       0.12 minutes
	total time  =         10 seconds =       0.17 minutes

*** tstart() called on ddmfs1
*** at Mon Jan 22 16:02:11 2024


  //>>>>>>>>>>>>>>>>>>>>>>>>>>>>>>>>>>>//
  //               DFMP2               //
  //<<<<<<<<<<<<<<<<<<<<<<<<<<<<<<<<<<<//

   => Loading Basis Set <=

    Name: (AUG-CC-PVTZ AUX)
    Role: RIFIT
    Keyword: DF_BASIS_MP2
    atoms 1                                   entry NA         line   610 file /ddmfs1b/softs/psi4conda/share/psi4/basis/def2-qzvpp-ri.gbs 
    atoms 2, 5, 8, 11, 14, 17                 entry O          line   264 file /ddmfs1b/softs/psi4conda/share/psi4/basis/aug-cc-pvtz-ri.gbs 
    atoms 3-4, 6-7, 9-10, 12-13, 15-16, 18-19 entry H          line    30 file /ddmfs1b/softs/psi4conda/share/psi4/basis/aug-cc-pvtz-ri.gbs 

	 --------------------------------------------------------
	                          DF-MP2                         
	      2nd-Order Density-Fitted Moller-Plesset Theory     
	              RMP2 Wavefunction,  20 Threads             
	                                                         
	        Rob Parrish, Justin Turney, Andy Simmonett,      
	           Ed Hohenstein, and C. David Sherrill          
	 --------------------------------------------------------

   => Auxiliary Basis Set <=

  Basis Set: (AUG-CC-PVTZ AUX)
    Blend: AUG-CC-PVTZ-RI + DEF2-QZVPP-RI
    Number of shells: 378
    Number of basis functions: 1354
    Number of Cartesian functions: 1690
    Spherical Harmonics?: true
    Max angular momentum: 4

	 --------------------------------------------------------
	                 NBF =   602, NAUX =  1354
	 --------------------------------------------------------
	   CLASS    FOCC     OCC    AOCC    AVIR     VIR    FVIR
	   PAIRS       0       5       5     597     597       0
	 --------------------------------------------------------

	-----------------------------------------------------------
	 ==================> DF-MP2 Energies <==================== 
	-----------------------------------------------------------
	 Reference Energy          =     -76.0586822524608834 [Eh]
	 Singles Energy            =      -0.0000000000000000 [Eh]
	 Same-Spin Energy          =      -0.0685445778730930 [Eh]
	 Opposite-Spin Energy      =      -0.2162804329613014 [Eh]
	 Correlation Energy        =      -0.2848250108343944 [Eh]
	 Total Energy              =     -76.3435072632952796 [Eh]
	-----------------------------------------------------------
	 ================> DF-SCS-MP2 Energies <================== 
	-----------------------------------------------------------
	 SCS Same-Spin Scale       =       0.3333333333333333 [-]
	 SCS Opposite-Spin Scale   =       1.2000000000000000 [-]
	 SCS Same-Spin Energy      =      -0.0228481926243643 [Eh]
	 SCS Opposite-Spin Energy  =      -0.2595365195535617 [Eh]
	 SCS Correlation Energy    =      -0.2823847121779260 [Eh]
	 SCS Total Energy          =     -76.3410669646388129 [Eh]
	-----------------------------------------------------------


*** tstop() called on ddmfs1 at Mon Jan 22 16:02:19 2024
Module time:
	user time   =      38.24 seconds =       0.64 minutes
	system time =       2.54 seconds =       0.04 minutes
	total time  =          8 seconds =       0.13 minutes
Total time:
	user time   =     172.87 seconds =       2.88 minutes
	system time =       9.88 seconds =       0.16 minutes
	total time  =         18 seconds =       0.30 minutes

    Psi4 stopped on: Monday, 22 January 2024 04:02PM
    Psi4 wall time for execution: 0:00:18.06

*** Psi4 exiting successfully. Buy a developer a beer!
