
    -----------------------------------------------------------------------
          Psi4: An Open-Source Ab Initio Electronic Structure Package
                               Psi4 1.8.2 release

                         Git: Rev {} zzzzzzz 


    D. G. A. Smith, L. A. Burns, A. C. Simmonett, R. M. Parrish,
    M. C. Schieber, R. Galvelis, P. Kraus, H. Kruse, R. Di Remigio,
    A. Alenaizan, A. M. James, S. Lehtola, J. P. Misiewicz, M. Scheurer,
    R. A. Shaw, J. B. Schriber, Y. Xie, Z. L. Glick, D. A. Sirianni,
    J. S. O'Brien, J. M. Waldrop, A. Kumar, E. G. Hohenstein,
    B. P. Pritchard, B. R. Brooks, H. F. Schaefer III, A. Yu. Sokolov,
    K. Patkowski, A. E. DePrince III, U. Bozkaya, R. A. King,
    F. A. Evangelista, J. M. Turney, T. D. Crawford, C. D. Sherrill,
    J. Chem. Phys. 152(18) 184108 (2020). https://doi.org/10.1063/5.0006002

                            Additional Code Authors
    E. T. Seidl, C. L. Janssen, E. F. Valeev, M. L. Leininger,
    J. F. Gonthier, R. M. Richard, H. R. McAlexander, M. Saitow, X. Wang,
    P. Verma, M. H. Lechner, A. Jiang, S. Behnle, A. G. Heide,
    M. F. Herbst, and D. L. Poole

             Previous Authors, Complete List of Code Contributors,
                       and Citations for Specific Modules
    https://github.com/psi4/psi4/blob/master/codemeta.json
    https://github.com/psi4/psi4/graphs/contributors
    http://psicode.org/psi4manual/master/introduction.html#citing-psifour

    -----------------------------------------------------------------------


    Psi4 started on: Monday, 22 January 2024 02:38PM

    Process ID: 67845
    Host:       ddmfs1
    PSIDATADIR: /ddmfs1b/softs/psi4conda/share/psi4
    Memory:     500.0 MiB
    Threads:    20
    
  ==> Input File <==

--------------------------------------------------------------------------
MEMORY 60 GB

molecule dimer {
0 1
Gh(Na)     0.000000     0.000000     0.000000
O         -0.835240     0.473484     2.119495
H         -0.454693     1.245275     2.586267
H         -1.132360    -0.183285     2.785897
Gh(O)      0.033539    -2.290098    -0.664363
Gh(H)     -0.004054    -2.576443     0.261397
Gh(H)      0.855844    -2.546782    -1.166561
Gh(O)      1.583864     1.928752    -0.019939
Gh(H)      1.499354     1.829133    -1.014737
Gh(H)      1.387146     2.888641     0.263931

units ang
no_reorient
no_com
symmetry c1
}

set {
basis        aug-cc-pVTZ
scf_type     df
}

energy("mp2")
--------------------------------------------------------------------------

  Memory set to  55.879 GiB by Python driver.

Scratch directory: /ddmfs1a/scratch/
   => Libint2 <=

    Primary   basis highest AM E, G, H:  5, 4, 3
    Auxiliary basis highest AM E, G, H:  6, 5, 4
    Onebody   basis highest AM E, G, H:  6, 5, 4
    Solid Harmonics ordering:            gaussian

*** tstart() called on ddmfs1
*** at Mon Jan 22 14:38:25 2024

   => Loading Basis Set <=

    Name: AUG-CC-PVTZ
    Role: ORBITAL
    Keyword: BASIS
    atoms 1              entry NA         line   469 file /ddmfs1b/softs/psi4conda/share/psi4/basis/aug-cc-pvtz.gbs 
    atoms 2, 5, 8        entry O          line   331 file /ddmfs1b/softs/psi4conda/share/psi4/basis/aug-cc-pvtz.gbs 
    atoms 3-4, 6-7, 9-10 entry H          line    40 file /ddmfs1b/softs/psi4conda/share/psi4/basis/aug-cc-pvtz.gbs 


         ---------------------------------------------------------
                                   SCF
               by Justin Turney, Rob Parrish, Andy Simmonett
                          and Daniel G. A. Smith
                              RHF Reference
                       20 Threads,  57220 MiB Core
         ---------------------------------------------------------

  ==> Geometry <==

    Molecular point group: c1
    Full point group: C1

    Geometry (in Angstrom), charge = 0, multiplicity = 1:

       Center              X                  Y                   Z               Mass       
    ------------   -----------------  -----------------  -----------------  -----------------
      Gh(NA)          0.000000000000     0.000000000000     0.000000000000    22.989769282000
         O           -0.835240000000     0.473484000000     2.119495000000    15.994914619570
         H           -0.454693000000     1.245275000000     2.586267000000     1.007825032230
         H           -1.132360000000    -0.183285000000     2.785897000000     1.007825032230
      Gh(O)           0.033539000000    -2.290098000000    -0.664363000000    15.994914619570
      Gh(H)          -0.004054000000    -2.576443000000     0.261397000000     1.007825032230
      Gh(H)           0.855844000000    -2.546782000000    -1.166561000000     1.007825032230
      Gh(O)           1.583864000000     1.928752000000    -0.019939000000    15.994914619570
      Gh(H)           1.499354000000     1.829133000000    -1.014737000000     1.007825032230
      Gh(H)           1.387146000000     2.888641000000     0.263931000000     1.007825032230

  Running in c1 symmetry.

  Rotational constants: A =      0.13161  B =      0.07958  C =      0.05355 [cm^-1]
  Rotational constants: A =   3945.49302  B =   2385.80998  C =   1605.42673 [MHz]
  Nuclear repulsion =    8.968840262641969

  Charge       = 0
  Multiplicity = 1
  Electrons    = 10
  Nalpha       = 5
  Nbeta        = 5

  ==> Algorithm <==

  SCF Algorithm Type is DF.
  DIIS enabled.
  MOM disabled.
  Fractional occupation disabled.
  Guess Type is SAD.
  Energy threshold   = 1.00e-08
  Density threshold  = 1.00e-08
  Integral threshold = 1.00e-12

  ==> Primary Basis <==

  Basis Set: AUG-CC-PVTZ
    Blend: AUG-CC-PVTZ
    Number of shells: 112
    Number of basis functions: 326
    Number of Cartesian functions: 374
    Spherical Harmonics?: true
    Max angular momentum: 3

   => Loading Basis Set <=

    Name: (AUG-CC-PVTZ AUX)
    Role: JKFIT
    Keyword: DF_BASIS_SCF
    atoms 1              entry NA         line   498 file /ddmfs1b/softs/psi4conda/share/psi4/basis/def2-universal-jkfit.gbs 
    atoms 2, 5, 8        entry O          line   286 file /ddmfs1b/softs/psi4conda/share/psi4/basis/aug-cc-pvtz-jkfit.gbs 
    atoms 3-4, 6-7, 9-10 entry H          line    70 file /ddmfs1b/softs/psi4conda/share/psi4/basis/aug-cc-pvtz-jkfit.gbs 

  ==> Integral Setup <==

  DFHelper Memory: AOs need 0.553 GiB; user supplied 41.910 GiB. 
  Using in-core AOs.

  ==> MemDFJK: Density-Fitted J/K Matrices <==

    J tasked:                   Yes
    K tasked:                   Yes
    wK tasked:                   No
    OpenMP threads:              20
    Memory [MiB]:             42915
    Algorithm:                 Core
    Schwarz Cutoff:           1E-12
    Mask sparsity (%):       7.6744
    Fitting Condition:        1E-10

   => Auxiliary Basis Set <=

  Basis Set: (AUG-CC-PVTZ AUX)
    Blend: AUG-CC-PVTZ-JKFIT + DEF2-UNIVERSAL-JKFIT
    Number of shells: 208
    Number of basis functions: 700
    Number of Cartesian functions: 860
    Spherical Harmonics?: true
    Max angular momentum: 4

  Minimum eigenvalue in the overlap matrix is 8.3496438404E-05.
  Reciprocal condition number of the overlap matrix is 7.9670827537E-06.
    Using symmetric orthogonalization.

  ==> Pre-Iterations <==

  SCF Guess: Superposition of Atomic Densities via on-the-fly atomic UHF (no occupation information).

   -------------------------
    Irrep   Nso     Nmo    
   -------------------------
     A        326     326 
   -------------------------
    Total     326     326
   -------------------------

  ==> Iterations <==

                           Total Energy        Delta E     RMS |[F,P]|

   @DF-RHF iter SAD:   -75.44705958701948   -7.54471e+01   0.00000e+00 
   @DF-RHF iter   1:   -75.97296367917639   -5.25904e-01   1.43187e-03 ADIIS/DIIS
   @DF-RHF iter   2:   -76.02462982844072   -5.16661e-02   9.95152e-04 ADIIS/DIIS
   @DF-RHF iter   3:   -76.05736212697556   -3.27323e-02   6.79371e-05 DIIS
   @DF-RHF iter   4:   -76.05778655951670   -4.24433e-04   1.70264e-05 DIIS
   @DF-RHF iter   5:   -76.05781582632666   -2.92668e-05   3.93110e-06 DIIS
   @DF-RHF iter   6:   -76.05781831673902   -2.49041e-06   8.79949e-07 DIIS
   @DF-RHF iter   7:   -76.05781845368335   -1.36944e-07   1.63877e-07 DIIS
   @DF-RHF iter   8:   -76.05781845783461   -4.15126e-09   2.80329e-08 DIIS
   @DF-RHF iter   9:   -76.05781845793386   -9.92486e-11   7.30339e-09 DIIS
  Energy and wave function converged.


  ==> Post-Iterations <==

    Orbital Energies [Eh]
    ---------------------

    Doubly Occupied:                                                      

       1A    -20.569067     2A     -1.339042     3A     -0.712896  
       4A     -0.572308     5A     -0.507131  

    Virtual:                                                              

       6A      0.008511     7A      0.016735     8A      0.017141  
       9A      0.019171    10A      0.043099    11A      0.053893  
      12A      0.055463    13A      0.057729    14A      0.057896  
      15A      0.063116    16A      0.066311    17A      0.069685  
      18A      0.071985    19A      0.081105    20A      0.091970  
      21A      0.093963    22A      0.096079    23A      0.100898  
      24A      0.105591    25A      0.136736    26A      0.144210  
      27A      0.157187    28A      0.159685    29A      0.171840  
      30A      0.175027    31A      0.188128    32A      0.190896  
      33A      0.201074    34A      0.205435    35A      0.207030  
      36A      0.218466    37A      0.224465    38A      0.240753  
      39A      0.248445    40A      0.264388    41A      0.271659  
      42A      0.279490    43A      0.294191    44A      0.297573  
      45A      0.303154    46A      0.311378    47A      0.316551  
      48A      0.325623    49A      0.327187    50A      0.336637  
      51A      0.348872    52A      0.358682    53A      0.359315  
      54A      0.368456    55A      0.373481    56A      0.385506  
      57A      0.398029    58A      0.404097    59A      0.411654  
      60A      0.413404    61A      0.421479    62A      0.429487  
      63A      0.430958    64A      0.432678    65A      0.442305  
      66A      0.450698    67A      0.456834    68A      0.466091  
      69A      0.471504    70A      0.482854    71A      0.488073  
      72A      0.493605    73A      0.497426    74A      0.511204  
      75A      0.521127    76A      0.534632    77A      0.567523  
      78A      0.615164    79A      0.637265    80A      0.683453  
      81A      0.694801    82A      0.702109    83A      0.711166  
      84A      0.718264    85A      0.732460    86A      0.738996  
      87A      0.755537    88A      0.767387    89A      0.789620  
      90A      0.791497    91A      0.793277    92A      0.798537  
      93A      0.815828    94A      0.826305    95A      0.836404  
      96A      0.849491    97A      0.856137    98A      0.870626  
      99A      0.883282   100A      0.891888   101A      0.897469  
     102A      0.906805   103A      0.912076   104A      0.924800  
     105A      0.934697   106A      0.945293   107A      0.947869  
     108A      0.962720   109A      0.972740   110A      0.979968  
     111A      0.984758   112A      0.991649   113A      1.019544  
     114A      1.030981   115A      1.041801   116A      1.044429  
     117A      1.059015   118A      1.077339   119A      1.079470  
     120A      1.084650   121A      1.088661   122A      1.092401  
     123A      1.109755   124A      1.111658   125A      1.121060  
     126A      1.135006   127A      1.142382   128A      1.159680  
     129A      1.166939   130A      1.176511   131A      1.180273  
     132A      1.191573   133A      1.216251   134A      1.229701  
     135A      1.243128   136A      1.255887   137A      1.280505  
     138A      1.285415   139A      1.296392   140A      1.315941  
     141A      1.358675   142A      1.366207   143A      1.379351  
     144A      1.402063   145A      1.413896   146A      1.449867  
     147A      1.495059   148A      1.528796   149A      1.534119  
     150A      1.557412   151A      1.565789   152A      1.600471  
     153A      1.612273   154A      1.681274   155A      1.693131  
     156A      1.740182   157A      1.789828   158A      1.815287  
     159A      1.822692   160A      1.839548   161A      1.861492  
     162A      1.870732   163A      1.908199   164A      1.909667  
     165A      1.921980   166A      1.944539   167A      1.956016  
     168A      1.966864   169A      1.982804   170A      2.014343  
     171A      2.038432   172A      2.065466   173A      2.172061  
     174A      2.354235   175A      2.358216   176A      2.414430  
     177A      2.451115   178A      2.460385   179A      2.466172  
     180A      2.511971   181A      2.527833   182A      2.557428  
     183A      2.567808   184A      2.581224   185A      2.596429  
     186A      2.603421   187A      2.619139   188A      2.671602  
     189A      2.687127   190A      2.698825   191A      2.713145  
     192A      2.734844   193A      2.780569   194A      2.792380  
     195A      2.808970   196A      2.853343   197A      2.886793  
     198A      2.899033   199A      2.934501   200A      2.958743  
     201A      2.977093   202A      2.993303   203A      3.038887  
     204A      3.168220   205A      3.191462   206A      3.195006  
     207A      3.200153   208A      3.226009   209A      3.274586  
     210A      3.315089   211A      3.331249   212A      3.344301  
     213A      3.364890   214A      3.588562   215A      3.600077  
     216A      3.723439   217A      3.736616   218A      3.759374  
     219A      3.828690   220A      4.052411   221A      4.205613  
     222A      4.227512   223A      4.269402   224A      4.345602  
     225A      4.363409   226A      4.385417   227A      4.442857  
     228A      4.473038   229A      4.485680   230A      4.522160  
     231A      4.531806   232A      4.547470   233A      4.563353  
     234A      4.586243   235A      4.600349   236A      4.656961  
     237A      4.667526   238A      4.716335   239A      4.745383  
     240A      4.759936   241A      4.787640   242A      4.811065  
     243A      4.962884   244A      4.970419   245A      5.041010  
     246A      5.081330   247A      5.100403   248A      5.105735  
     249A      5.121148   250A      5.125069   251A      5.159170  
     252A      5.189435   253A      5.256980   254A      5.304123  
     255A      5.353013   256A      5.373941   257A      5.434103  
     258A      5.466101   259A      5.490048   260A      5.505888  
     261A      5.554912   262A      5.667707   263A      5.676968  
     264A      5.702937   265A      5.779063   266A      6.118343  
     267A      6.141024   268A      6.156324   269A      6.183353  
     270A      6.261782   271A      6.576361   272A      6.625966  
     273A      6.643519   274A      6.743748   275A      6.808853  
     276A      6.841978   277A      6.864536   278A      6.946193  
     279A      7.018744   280A      7.056471   281A      7.183217  
     282A      7.268173   283A      7.356171   284A      7.367462  
     285A      7.409997   286A      7.510199   287A      7.625746  
     288A      7.676029   289A      7.680665   290A      7.735418  
     291A      7.752100   292A      7.869015   293A      7.944188  
     294A      8.073377   295A      8.150457   296A      8.168992  
     297A      8.184411   298A      8.232335   299A      8.303264  
     300A      8.515532   301A      8.586196   302A      8.663257  
     303A      8.704263   304A      8.736200   305A      9.752361  
     306A      9.828819   307A      9.944989   308A      9.960046  
     309A     10.041113   310A     10.057081   311A     10.107084  
     312A     10.135255   313A     10.863958   314A     10.954145  
     315A     11.647236   316A     11.765117   317A     11.855583  
     318A     12.030619   319A     13.243658   320A     13.381475  
     321A     13.952038   322A     13.976916   323A     15.431751  
     324A     62.438652   325A     64.001792   326A     64.739095  

    Final Occupation by Irrep:
              A 
    DOCC [     5 ]
    NA   [     5 ]
    NB   [     5 ]

  @DF-RHF Final Energy:   -76.05781845793386

   => Energetics <=

    Nuclear Repulsion Energy =              8.9688402626419688
    One-Electron Energy =                -122.6524246069633790
    Two-Electron Energy =                  37.6257658863875548
    Total Energy =                        -76.0578184579338625

Computation Completed


Properties will be evaluated at   0.000000,   0.000000,   0.000000 [a0]

Properties computed using the SCF density matrix


 Multipole Moments:

 ------------------------------------------------------------------------------------
     Multipole            Electronic (a.u.)      Nuclear  (a.u.)        Total (a.u.)
 ------------------------------------------------------------------------------------

 L = 1.  Multiply by 2.5417464519 to convert [e a0] to [Debye]
 Dipole X            :         15.6814701          -15.6260943            0.0553758
 Dipole Y            :         -9.0880461            9.1649109            0.0768648
 Dipole Z            :        -41.4416567           42.1940393            0.7523826
 Magnitude           :                                                    0.7583233

 ------------------------------------------------------------------------------------

*** tstop() called on ddmfs1 at Mon Jan 22 14:38:28 2024
Module time:
	user time   =      39.84 seconds =       0.66 minutes
	system time =       3.39 seconds =       0.06 minutes
	total time  =          3 seconds =       0.05 minutes
Total time:
	user time   =      39.84 seconds =       0.66 minutes
	system time =       3.39 seconds =       0.06 minutes
	total time  =          3 seconds =       0.05 minutes

*** tstart() called on ddmfs1
*** at Mon Jan 22 14:38:28 2024


  //>>>>>>>>>>>>>>>>>>>>>>>>>>>>>>>>>>>//
  //               DFMP2               //
  //<<<<<<<<<<<<<<<<<<<<<<<<<<<<<<<<<<<//

   => Loading Basis Set <=

    Name: (AUG-CC-PVTZ AUX)
    Role: RIFIT
    Keyword: DF_BASIS_MP2
    atoms 1              entry NA         line   610 file /ddmfs1b/softs/psi4conda/share/psi4/basis/def2-qzvpp-ri.gbs 
    atoms 2, 5, 8        entry O          line   264 file /ddmfs1b/softs/psi4conda/share/psi4/basis/aug-cc-pvtz-ri.gbs 
    atoms 3-4, 6-7, 9-10 entry H          line    30 file /ddmfs1b/softs/psi4conda/share/psi4/basis/aug-cc-pvtz-ri.gbs 

	 --------------------------------------------------------
	                          DF-MP2                         
	      2nd-Order Density-Fitted Moller-Plesset Theory     
	              RMP2 Wavefunction,  20 Threads             
	                                                         
	        Rob Parrish, Justin Turney, Andy Simmonett,      
	           Ed Hohenstein, and C. David Sherrill          
	 --------------------------------------------------------

   => Auxiliary Basis Set <=

  Basis Set: (AUG-CC-PVTZ AUX)
    Blend: AUG-CC-PVTZ-RI + DEF2-QZVPP-RI
    Number of shells: 210
    Number of basis functions: 760
    Number of Cartesian functions: 952
    Spherical Harmonics?: true
    Max angular momentum: 4

	 --------------------------------------------------------
	                 NBF =   326, NAUX =   760
	 --------------------------------------------------------
	   CLASS    FOCC     OCC    AOCC    AVIR     VIR    FVIR
	   PAIRS       0       5       5     321     321       0
	 --------------------------------------------------------

	-----------------------------------------------------------
	 ==================> DF-MP2 Energies <==================== 
	-----------------------------------------------------------
	 Reference Energy          =     -76.0578184579338625 [Eh]
	 Singles Energy            =      -0.0000000000000000 [Eh]
	 Same-Spin Energy          =      -0.0687231337628161 [Eh]
	 Opposite-Spin Energy      =      -0.2166310293216787 [Eh]
	 Correlation Energy        =      -0.2853541630844948 [Eh]
	 Total Energy              =     -76.3431726210183541 [Eh]
	-----------------------------------------------------------
	 ================> DF-SCS-MP2 Energies <================== 
	-----------------------------------------------------------
	 SCS Same-Spin Scale       =       0.3333333333333333 [-]
	 SCS Opposite-Spin Scale   =       1.2000000000000000 [-]
	 SCS Same-Spin Energy      =      -0.0229077112542720 [Eh]
	 SCS Opposite-Spin Energy  =      -0.2599572351860144 [Eh]
	 SCS Correlation Energy    =      -0.2828649464402865 [Eh]
	 SCS Total Energy          =     -76.3406834043741469 [Eh]
	-----------------------------------------------------------


*** tstop() called on ddmfs1 at Mon Jan 22 14:38:32 2024
Module time:
	user time   =      15.55 seconds =       0.26 minutes
	system time =       1.35 seconds =       0.02 minutes
	total time  =          4 seconds =       0.07 minutes
Total time:
	user time   =      55.41 seconds =       0.92 minutes
	system time =       4.74 seconds =       0.08 minutes
	total time  =          7 seconds =       0.12 minutes

    Psi4 stopped on: Monday, 22 January 2024 02:38PM
    Psi4 wall time for execution: 0:00:06.99

*** Psi4 exiting successfully. Buy a developer a beer!
