
    -----------------------------------------------------------------------
          Psi4: An Open-Source Ab Initio Electronic Structure Package
                               Psi4 1.8.2 release

                         Git: Rev {} zzzzzzz 


    D. G. A. Smith, L. A. Burns, A. C. Simmonett, R. M. Parrish,
    M. C. Schieber, R. Galvelis, P. Kraus, H. Kruse, R. Di Remigio,
    A. Alenaizan, A. M. James, S. Lehtola, J. P. Misiewicz, M. Scheurer,
    R. A. Shaw, J. B. Schriber, Y. Xie, Z. L. Glick, D. A. Sirianni,
    J. S. O'Brien, J. M. Waldrop, A. Kumar, E. G. Hohenstein,
    B. P. Pritchard, B. R. Brooks, H. F. Schaefer III, A. Yu. Sokolov,
    K. Patkowski, A. E. DePrince III, U. Bozkaya, R. A. King,
    F. A. Evangelista, J. M. Turney, T. D. Crawford, C. D. Sherrill,
    J. Chem. Phys. 152(18) 184108 (2020). https://doi.org/10.1063/5.0006002

                            Additional Code Authors
    E. T. Seidl, C. L. Janssen, E. F. Valeev, M. L. Leininger,
    J. F. Gonthier, R. M. Richard, H. R. McAlexander, M. Saitow, X. Wang,
    P. Verma, M. H. Lechner, A. Jiang, S. Behnle, A. G. Heide,
    M. F. Herbst, and D. L. Poole

             Previous Authors, Complete List of Code Contributors,
                       and Citations for Specific Modules
    https://github.com/psi4/psi4/blob/master/codemeta.json
    https://github.com/psi4/psi4/graphs/contributors
    http://psicode.org/psi4manual/master/introduction.html#citing-psifour

    -----------------------------------------------------------------------


    Psi4 started on: Monday, 22 January 2024 03:20PM

    Process ID: 71825
    Host:       ddmfs1
    PSIDATADIR: /ddmfs1b/softs/psi4conda/share/psi4
    Memory:     500.0 MiB
    Threads:    20
    
  ==> Input File <==

--------------------------------------------------------------------------
MEMORY 60 GB

molecule dimer {
0 1
Gh(Na)     0.000000     0.000000     0.000000
O         -0.873183    -0.042255    -2.202229
H         -1.560372     0.663997    -2.132574
H         -0.159520     0.419195    -2.658009
Gh(O)      1.774585    -1.111243    -0.868120
Gh(H)      2.668034    -0.822498    -1.023053
Gh(H)      1.823483    -1.922315    -0.332354
Gh(O)      0.464055     2.270172    -0.774407
Gh(H)      0.794773     2.768432     0.018710
Gh(H)      0.991671     2.713961    -1.495196
Gh(O)     -0.152636     0.078280     2.536654
Gh(H)     -0.531478     0.659236     3.209083
Gh(H)     -0.606956    -0.844174     2.462228
Gh(O)     -2.312711     0.767096     0.299708
Gh(H)     -2.650719     0.461772     1.137174
Gh(H)     -2.063417     1.711685     0.481131

units ang
no_reorient
no_com
symmetry c1
}

set {
basis        aug-cc-pVTZ
scf_type     df
}

energy("mp2")
--------------------------------------------------------------------------

  Memory set to  55.879 GiB by Python driver.

Scratch directory: /ddmfs1a/scratch/
   => Libint2 <=

    Primary   basis highest AM E, G, H:  5, 4, 3
    Auxiliary basis highest AM E, G, H:  6, 5, 4
    Onebody   basis highest AM E, G, H:  6, 5, 4
    Solid Harmonics ordering:            gaussian

*** tstart() called on ddmfs1
*** at Mon Jan 22 15:20:27 2024

   => Loading Basis Set <=

    Name: AUG-CC-PVTZ
    Role: ORBITAL
    Keyword: BASIS
    atoms 1                            entry NA         line   469 file /ddmfs1b/softs/psi4conda/share/psi4/basis/aug-cc-pvtz.gbs 
    atoms 2, 5, 8, 11, 14              entry O          line   331 file /ddmfs1b/softs/psi4conda/share/psi4/basis/aug-cc-pvtz.gbs 
    atoms 3-4, 6-7, 9-10, 12-13, 15-16 entry H          line    40 file /ddmfs1b/softs/psi4conda/share/psi4/basis/aug-cc-pvtz.gbs 


         ---------------------------------------------------------
                                   SCF
               by Justin Turney, Rob Parrish, Andy Simmonett
                          and Daniel G. A. Smith
                              RHF Reference
                       20 Threads,  57220 MiB Core
         ---------------------------------------------------------

  ==> Geometry <==

    Molecular point group: c1
    Full point group: C1

    Geometry (in Angstrom), charge = 0, multiplicity = 1:

       Center              X                  Y                   Z               Mass       
    ------------   -----------------  -----------------  -----------------  -----------------
      Gh(NA)          0.000000000000     0.000000000000     0.000000000000    22.989769282000
         O           -0.873183000000    -0.042255000000    -2.202229000000    15.994914619570
         H           -1.560372000000     0.663997000000    -2.132574000000     1.007825032230
         H           -0.159520000000     0.419195000000    -2.658009000000     1.007825032230
      Gh(O)           1.774585000000    -1.111243000000    -0.868120000000    15.994914619570
      Gh(H)           2.668034000000    -0.822498000000    -1.023053000000     1.007825032230
      Gh(H)           1.823483000000    -1.922315000000    -0.332354000000     1.007825032230
      Gh(O)           0.464055000000     2.270172000000    -0.774407000000    15.994914619570
      Gh(H)           0.794773000000     2.768432000000     0.018710000000     1.007825032230
      Gh(H)           0.991671000000     2.713961000000    -1.495196000000     1.007825032230
      Gh(O)          -0.152636000000     0.078280000000     2.536654000000    15.994914619570
      Gh(H)          -0.531478000000     0.659236000000     3.209083000000     1.007825032230
      Gh(H)          -0.606956000000    -0.844174000000     2.462228000000     1.007825032230
      Gh(O)          -2.312711000000     0.767096000000     0.299708000000    15.994914619570
      Gh(H)          -2.650719000000     0.461772000000     1.137174000000     1.007825032230
      Gh(H)          -2.063417000000     1.711685000000     0.481131000000     1.007825032230

  Running in c1 symmetry.

  Rotational constants: A =      0.05541  B =      0.04845  C =      0.03739 [cm^-1]
  Rotational constants: A =   1661.20886  B =   1452.40798  C =   1120.82378 [MHz]
  Nuclear repulsion =    9.024364478165779

  Charge       = 0
  Multiplicity = 1
  Electrons    = 10
  Nalpha       = 5
  Nbeta        = 5

  ==> Algorithm <==

  SCF Algorithm Type is DF.
  DIIS enabled.
  MOM disabled.
  Fractional occupation disabled.
  Guess Type is SAD.
  Energy threshold   = 1.00e-08
  Density threshold  = 1.00e-08
  Integral threshold = 1.00e-12

  ==> Primary Basis <==

  Basis Set: AUG-CC-PVTZ
    Blend: AUG-CC-PVTZ
    Number of shells: 176
    Number of basis functions: 510
    Number of Cartesian functions: 584
    Spherical Harmonics?: true
    Max angular momentum: 3

   => Loading Basis Set <=

    Name: (AUG-CC-PVTZ AUX)
    Role: JKFIT
    Keyword: DF_BASIS_SCF
    atoms 1                            entry NA         line   498 file /ddmfs1b/softs/psi4conda/share/psi4/basis/def2-universal-jkfit.gbs 
    atoms 2, 5, 8, 11, 14              entry O          line   286 file /ddmfs1b/softs/psi4conda/share/psi4/basis/aug-cc-pvtz-jkfit.gbs 
    atoms 3-4, 6-7, 9-10, 12-13, 15-16 entry H          line    70 file /ddmfs1b/softs/psi4conda/share/psi4/basis/aug-cc-pvtz-jkfit.gbs 

  ==> Integral Setup <==

  DFHelper Memory: AOs need 2.047 GiB; user supplied 41.910 GiB. 
  Using in-core AOs.

  ==> MemDFJK: Density-Fitted J/K Matrices <==

    J tasked:                   Yes
    K tasked:                   Yes
    wK tasked:                   No
    OpenMP threads:              20
    Memory [MiB]:             42915
    Algorithm:                 Core
    Schwarz Cutoff:           1E-12
    Mask sparsity (%):       7.9908
    Fitting Condition:        1E-10

   => Auxiliary Basis Set <=

  Basis Set: (AUG-CC-PVTZ AUX)
    Blend: AUG-CC-PVTZ-JKFIT + DEF2-UNIVERSAL-JKFIT
    Number of shells: 324
    Number of basis functions: 1092
    Number of Cartesian functions: 1342
    Spherical Harmonics?: true
    Max angular momentum: 4

  Minimum eigenvalue in the overlap matrix is 3.0575443786E-05.
  Reciprocal condition number of the overlap matrix is 2.1251035797E-06.
    Using symmetric orthogonalization.

  ==> Pre-Iterations <==

  SCF Guess: Superposition of Atomic Densities via on-the-fly atomic UHF (no occupation information).

   -------------------------
    Irrep   Nso     Nmo    
   -------------------------
     A        510     510 
   -------------------------
    Total     510     510
   -------------------------

  ==> Iterations <==

                           Total Energy        Delta E     RMS |[F,P]|

   @DF-RHF iter SAD:   -75.45870810958010   -7.54587e+01   0.00000e+00 
   @DF-RHF iter   1:   -75.97289036582676   -5.14182e-01   9.16410e-04 ADIIS/DIIS
   @DF-RHF iter   2:   -76.02494698184901   -5.20566e-02   6.38179e-04 ADIIS/DIIS
   @DF-RHF iter   3:   -76.05790175921813   -3.29548e-02   4.34484e-05 DIIS
   @DF-RHF iter   4:   -76.05831364216478   -4.11883e-04   1.08117e-05 DIIS
   @DF-RHF iter   5:   -76.05834202244033   -2.83803e-05   2.51777e-06 DIIS
   @DF-RHF iter   6:   -76.05834442902056   -2.40658e-06   5.48865e-07 DIIS
   @DF-RHF iter   7:   -76.05834455269164   -1.23671e-07   9.46383e-08 DIIS
   @DF-RHF iter   8:   -76.05834455586758   -3.17594e-09   1.61485e-08 DIIS
   @DF-RHF iter   9:   -76.05834455594088   -7.32996e-11   4.02386e-09 DIIS
  Energy and wave function converged.


  ==> Post-Iterations <==

    Orbital Energies [Eh]
    ---------------------

    Doubly Occupied:                                                      

       1A    -20.571392     2A     -1.345885     3A     -0.702538  
       4A     -0.586247     5A     -0.509602  

    Virtual:                                                              

       6A      0.006918     7A      0.016028     8A      0.016527  
       9A      0.018537    10A      0.036551    11A      0.050574  
      12A      0.051450    13A      0.053557    14A      0.055312  
      15A      0.057542    16A      0.058525    17A      0.062347  
      18A      0.066227    19A      0.078199    20A      0.080932  
      21A      0.083196    22A      0.087433    23A      0.091492  
      24A      0.095525    25A      0.105421    26A      0.110343  
      27A      0.113100    28A      0.116283    29A      0.133232  
      30A      0.135335    31A      0.138119    32A      0.154063  
      33A      0.165200    34A      0.170285    35A      0.174211  
      36A      0.175364    37A      0.182746    38A      0.187365  
      39A      0.200325    40A      0.203150    41A      0.205317  
      42A      0.209969    43A      0.218241    44A      0.224499  
      45A      0.227972    46A      0.234737    47A      0.247506  
      48A      0.249784    49A      0.261645    50A      0.264243  
      51A      0.266051    52A      0.275598    53A      0.284864  
      54A      0.290902    55A      0.296479    56A      0.312656  
      57A      0.320452    58A      0.329108    59A      0.331038  
      60A      0.334621    61A      0.341056    62A      0.354808  
      63A      0.359058    64A      0.364784    65A      0.371258  
      66A      0.379281    67A      0.380667    68A      0.384283  
      69A      0.386585    70A      0.397951    71A      0.402470  
      72A      0.412127    73A      0.415515    74A      0.424507  
      75A      0.427252    76A      0.433686    77A      0.436182  
      78A      0.440048    79A      0.444852    80A      0.447356  
      81A      0.455550    82A      0.461624    83A      0.463415  
      84A      0.469289    85A      0.477303    86A      0.481652  
      87A      0.484809    88A      0.492137    89A      0.495695  
      90A      0.502036    91A      0.506420    92A      0.515340  
      93A      0.518599    94A      0.521613    95A      0.525738  
      96A      0.532364    97A      0.536424    98A      0.547459  
      99A      0.550162   100A      0.556947   101A      0.582476  
     102A      0.587260   103A      0.597044   104A      0.617233  
     105A      0.635096   106A      0.638908   107A      0.663799  
     108A      0.688047   109A      0.697047   110A      0.705727  
     111A      0.712922   112A      0.718446   113A      0.740019  
     114A      0.754885   115A      0.756972   116A      0.772275  
     117A      0.781169   118A      0.789021   119A      0.801227  
     120A      0.806770   121A      0.810749   122A      0.819923  
     123A      0.834476   124A      0.836840   125A      0.849098  
     126A      0.851643   127A      0.858229   128A      0.867004  
     129A      0.871585   130A      0.878014   131A      0.879010  
     132A      0.887660   133A      0.902366   134A      0.906433  
     135A      0.916166   136A      0.919499   137A      0.925493  
     138A      0.944843   139A      0.947966   140A      0.957002  
     141A      0.960928   142A      0.971327   143A      0.980349  
     144A      0.983141   145A      0.987152   146A      0.990879  
     147A      0.993910   148A      0.999729   149A      1.003865  
     150A      1.023483   151A      1.028936   152A      1.032154  
     153A      1.039725   154A      1.048957   155A      1.053704  
     156A      1.058617   157A      1.066729   158A      1.083806  
     159A      1.091218   160A      1.096284   161A      1.096504  
     162A      1.104201   163A      1.109360   164A      1.118539  
     165A      1.129144   166A      1.136699   167A      1.141763  
     168A      1.146448   169A      1.149715   170A      1.159686  
     171A      1.176679   172A      1.182079   173A      1.191250  
     174A      1.197094   175A      1.203727   176A      1.209583  
     177A      1.214228   178A      1.232432   179A      1.236302  
     180A      1.242492   181A      1.257750   182A      1.262040  
     183A      1.266636   184A      1.274380   185A      1.278464  
     186A      1.287225   187A      1.299053   188A      1.312894  
     189A      1.323717   190A      1.330490   191A      1.338054  
     192A      1.346409   193A      1.351725   194A      1.361171  
     195A      1.376131   196A      1.390452   197A      1.400149  
     198A      1.415212   199A      1.424142   200A      1.427452  
     201A      1.439686   202A      1.445927   203A      1.463497  
     204A      1.471072   205A      1.493502   206A      1.494676  
     207A      1.505441   208A      1.512359   209A      1.526348  
     210A      1.547735   211A      1.551947   212A      1.581169  
     213A      1.590565   214A      1.613236   215A      1.630440  
     216A      1.635671   217A      1.644266   218A      1.674179  
     219A      1.688177   220A      1.699068   221A      1.719630  
     222A      1.735288   223A      1.753327   224A      1.767014  
     225A      1.774315   226A      1.798855   227A      1.809412  
     228A      1.834024   229A      1.853303   230A      1.854736  
     231A      1.864368   232A      1.874028   233A      1.888686  
     234A      1.902622   235A      1.923329   236A      1.925843  
     237A      1.946363   238A      1.953210   239A      1.967673  
     240A      1.971970   241A      1.978134   242A      1.982913  
     243A      2.008687   244A      2.017094   245A      2.036379  
     246A      2.048419   247A      2.059881   248A      2.082002  
     249A      2.086826   250A      2.092423   251A      2.113501  
     252A      2.138199   253A      2.150454   254A      2.188573  
     255A      2.311433   256A      2.429603   257A      2.436784  
     258A      2.480774   259A      2.493402   260A      2.515103  
     261A      2.520023   262A      2.534684   263A      2.544799  
     264A      2.557192   265A      2.567467   266A      2.577166  
     267A      2.581188   268A      2.595698   269A      2.603512  
     270A      2.613785   271A      2.626872   272A      2.641148  
     273A      2.643950   274A      2.666456   275A      2.679754  
     276A      2.685372   277A      2.710576   278A      2.727340  
     279A      2.737186   280A      2.751267   281A      2.757895  
     282A      2.771567   283A      2.788746   284A      2.806168  
     285A      2.820122   286A      2.836922   287A      2.846645  
     288A      2.869603   289A      2.881166   290A      2.908261  
     291A      2.923531   292A      2.939705   293A      2.949595  
     294A      2.972599   295A      2.977915   296A      2.992618  
     297A      2.994771   298A      3.008971   299A      3.036131  
     300A      3.056430   301A      3.104805   302A      3.127197  
     303A      3.178117   304A      3.187998   305A      3.214193  
     306A      3.241865   307A      3.253516   308A      3.255040  
     309A      3.269511   310A      3.276912   311A      3.290516  
     312A      3.308038   313A      3.337727   314A      3.354073  
     315A      3.366090   316A      3.384221   317A      3.393906  
     318A      3.397855   319A      3.413438   320A      3.444927  
     321A      3.453103   322A      3.480408   323A      3.501108  
     324A      3.630501   325A      3.658267   326A      3.715866  
     327A      3.725282   328A      3.759538   329A      3.765609  
     330A      3.783996   331A      3.798704   332A      3.925691  
     333A      3.954621   334A      4.186266   335A      4.269551  
     336A      4.326628   337A      4.352355   338A      4.400253  
     339A      4.403200   340A      4.435794   341A      4.465324  
     342A      4.476365   343A      4.503649   344A      4.507406  
     345A      4.526046   346A      4.543048   347A      4.548271  
     348A      4.571555   349A      4.580394   350A      4.588884  
     351A      4.602745   352A      4.613627   353A      4.626110  
     354A      4.644678   355A      4.679023   356A      4.689469  
     357A      4.698889   358A      4.728883   359A      4.736288  
     360A      4.762017   361A      4.776532   362A      4.790097  
     363A      4.799868   364A      4.804991   365A      4.829710  
     366A      4.850746   367A      4.865456   368A      4.923540  
     369A      4.981714   370A      4.992741   371A      5.004343  
     372A      5.026345   373A      5.036137   374A      5.058058  
     375A      5.076551   376A      5.079249   377A      5.106509  
     378A      5.121902   379A      5.162644   380A      5.179866  
     381A      5.198105   382A      5.211151   383A      5.252984  
     384A      5.271666   385A      5.281227   386A      5.293653  
     387A      5.329623   388A      5.389946   389A      5.407277  
     390A      5.442948   391A      5.504122   392A      5.524816  
     393A      5.532076   394A      5.560197   395A      5.586346  
     396A      5.610826   397A      5.618425   398A      5.626065  
     399A      5.683284   400A      5.697172   401A      5.736687  
     402A      5.745700   403A      5.762479   404A      5.867822  
     405A      5.930821   406A      5.953123   407A      5.999928  
     408A      6.130942   409A      6.222475   410A      6.229174  
     411A      6.285443   412A      6.305601   413A      6.320812  
     414A      6.376112   415A      6.430782   416A      6.436300  
     417A      6.560084   418A      6.611677   419A      6.658200  
     420A      6.723777   421A      6.771776   422A      6.844027  
     423A      6.925708   424A      6.979912   425A      7.026027  
     426A      7.074578   427A      7.096195   428A      7.128416  
     429A      7.239956   430A      7.256662   431A      7.289214  
     432A      7.361462   433A      7.451469   434A      7.473379  
     435A      7.520896   436A      7.543670   437A      7.676539  
     438A      7.699799   439A      7.744840   440A      7.752860  
     441A      7.772164   442A      7.797331   443A      7.868558  
     444A      7.878205   445A      7.906258   446A      7.938011  
     447A      8.038443   448A      8.055343   449A      8.086912  
     450A      8.109271   451A      8.139968   452A      8.147397  
     453A      8.194418   454A      8.221243   455A      8.234334  
     456A      8.269454   457A      8.271646   458A      8.310201  
     459A      8.347761   460A      8.554943   461A      8.614589  
     462A      8.695818   463A      8.726034   464A      8.804526  
     465A      8.836672   466A      8.843770   467A      8.858141  
     468A      8.870018   469A      9.865106   470A      9.877442  
     471A      9.934963   472A      9.964622   473A      9.977101  
     474A     10.007879   475A     10.014161   476A     10.025198  
     477A     10.034226   478A     10.061483   479A     10.074741  
     480A     10.094054   481A     10.123922   482A     10.252459  
     483A     10.259990   484A     10.273648   485A     10.852658  
     486A     11.093208   487A     11.149253   488A     11.205819  
     489A     11.752400   490A     11.801349   491A     11.810443  
     492A     11.889528   493A     11.938129   494A     12.003805  
     495A     12.155816   496A     12.302497   497A     13.361243  
     498A     13.484285   499A     13.592028   500A     13.611145  
     501A     13.931255   502A     13.945960   503A     13.992849  
     504A     13.996782   505A     15.864840   506A     63.560231  
     507A     63.830284   508A     64.899762   509A     65.038089  
     510A     65.616472  

    Final Occupation by Irrep:
              A 
    DOCC [     5 ]
    NA   [     5 ]
    NB   [     5 ]

  @DF-RHF Final Energy:   -76.05834455594088

   => Energetics <=

    Nuclear Repulsion Energy =              9.0243644781657792
    One-Electron Energy =                -122.7340875621967626
    Two-Electron Energy =                  37.6513785280900990
    Total Energy =                        -76.0583445559408915

Computation Completed


Properties will be evaluated at   0.000000,   0.000000,   0.000000 [a0]

Properties computed using the SCF density matrix


 Multipole Moments:

 ------------------------------------------------------------------------------------
     Multipole            Electronic (a.u.)      Nuclear  (a.u.)        Total (a.u.)
 ------------------------------------------------------------------------------------

 L = 1.  Multiply by 2.5417464519 to convert [e a0] to [Debye]
 Dipole X            :         16.4719447          -16.4507387            0.0212061
 Dipole Y            :         -0.6472014            1.4081332            0.7609318
 Dipole Z            :         42.0922058          -42.3457673           -0.2535614
 Magnitude           :                                                    0.8023468

 ------------------------------------------------------------------------------------

*** tstop() called on ddmfs1 at Mon Jan 22 15:20:33 2024
Module time:
	user time   =      92.11 seconds =       1.54 minutes
	system time =       5.74 seconds =       0.10 minutes
	total time  =          6 seconds =       0.10 minutes
Total time:
	user time   =      92.11 seconds =       1.54 minutes
	system time =       5.74 seconds =       0.10 minutes
	total time  =          6 seconds =       0.10 minutes

*** tstart() called on ddmfs1
*** at Mon Jan 22 15:20:33 2024


  //>>>>>>>>>>>>>>>>>>>>>>>>>>>>>>>>>>>//
  //               DFMP2               //
  //<<<<<<<<<<<<<<<<<<<<<<<<<<<<<<<<<<<//

   => Loading Basis Set <=

    Name: (AUG-CC-PVTZ AUX)
    Role: RIFIT
    Keyword: DF_BASIS_MP2
    atoms 1                            entry NA         line   610 file /ddmfs1b/softs/psi4conda/share/psi4/basis/def2-qzvpp-ri.gbs 
    atoms 2, 5, 8, 11, 14              entry O          line   264 file /ddmfs1b/softs/psi4conda/share/psi4/basis/aug-cc-pvtz-ri.gbs 
    atoms 3-4, 6-7, 9-10, 12-13, 15-16 entry H          line    30 file /ddmfs1b/softs/psi4conda/share/psi4/basis/aug-cc-pvtz-ri.gbs 

	 --------------------------------------------------------
	                          DF-MP2                         
	      2nd-Order Density-Fitted Moller-Plesset Theory     
	              RMP2 Wavefunction,  20 Threads             
	                                                         
	        Rob Parrish, Justin Turney, Andy Simmonett,      
	           Ed Hohenstein, and C. David Sherrill          
	 --------------------------------------------------------

   => Auxiliary Basis Set <=

  Basis Set: (AUG-CC-PVTZ AUX)
    Blend: AUG-CC-PVTZ-RI + DEF2-QZVPP-RI
    Number of shells: 322
    Number of basis functions: 1156
    Number of Cartesian functions: 1444
    Spherical Harmonics?: true
    Max angular momentum: 4

	 --------------------------------------------------------
	                 NBF =   510, NAUX =  1156
	 --------------------------------------------------------
	   CLASS    FOCC     OCC    AOCC    AVIR     VIR    FVIR
	   PAIRS       0       5       5     505     505       0
	 --------------------------------------------------------

	-----------------------------------------------------------
	 ==================> DF-MP2 Energies <==================== 
	-----------------------------------------------------------
	 Reference Energy          =     -76.0583445559408773 [Eh]
	 Singles Energy            =      -0.0000000000000000 [Eh]
	 Same-Spin Energy          =      -0.0688181083757159 [Eh]
	 Opposite-Spin Energy      =      -0.2171536025791798 [Eh]
	 Correlation Energy        =      -0.2859717109548957 [Eh]
	 Total Energy              =     -76.3443162668957740 [Eh]
	-----------------------------------------------------------
	 ================> DF-SCS-MP2 Energies <================== 
	-----------------------------------------------------------
	 SCS Same-Spin Scale       =       0.3333333333333333 [-]
	 SCS Opposite-Spin Scale   =       1.2000000000000000 [-]
	 SCS Same-Spin Energy      =      -0.0229393694585720 [Eh]
	 SCS Opposite-Spin Energy  =      -0.2605843230950158 [Eh]
	 SCS Correlation Energy    =      -0.2835236925535877 [Eh]
	 SCS Total Energy          =     -76.3418682484944640 [Eh]
	-----------------------------------------------------------


*** tstop() called on ddmfs1 at Mon Jan 22 15:20:40 2024
Module time:
	user time   =      28.88 seconds =       0.48 minutes
	system time =       2.00 seconds =       0.03 minutes
	total time  =          7 seconds =       0.12 minutes
Total time:
	user time   =     121.00 seconds =       2.02 minutes
	system time =       7.74 seconds =       0.13 minutes
	total time  =         13 seconds =       0.22 minutes

    Psi4 stopped on: Monday, 22 January 2024 03:20PM
    Psi4 wall time for execution: 0:00:13.29

*** Psi4 exiting successfully. Buy a developer a beer!
