
    -----------------------------------------------------------------------
          Psi4: An Open-Source Ab Initio Electronic Structure Package
                               Psi4 1.8.2 release

                         Git: Rev {} zzzzzzz 


    D. G. A. Smith, L. A. Burns, A. C. Simmonett, R. M. Parrish,
    M. C. Schieber, R. Galvelis, P. Kraus, H. Kruse, R. Di Remigio,
    A. Alenaizan, A. M. James, S. Lehtola, J. P. Misiewicz, M. Scheurer,
    R. A. Shaw, J. B. Schriber, Y. Xie, Z. L. Glick, D. A. Sirianni,
    J. S. O'Brien, J. M. Waldrop, A. Kumar, E. G. Hohenstein,
    B. P. Pritchard, B. R. Brooks, H. F. Schaefer III, A. Yu. Sokolov,
    K. Patkowski, A. E. DePrince III, U. Bozkaya, R. A. King,
    F. A. Evangelista, J. M. Turney, T. D. Crawford, C. D. Sherrill,
    J. Chem. Phys. 152(18) 184108 (2020). https://doi.org/10.1063/5.0006002

                            Additional Code Authors
    E. T. Seidl, C. L. Janssen, E. F. Valeev, M. L. Leininger,
    J. F. Gonthier, R. M. Richard, H. R. McAlexander, M. Saitow, X. Wang,
    P. Verma, M. H. Lechner, A. Jiang, S. Behnle, A. G. Heide,
    M. F. Herbst, and D. L. Poole

             Previous Authors, Complete List of Code Contributors,
                       and Citations for Specific Modules
    https://github.com/psi4/psi4/blob/master/codemeta.json
    https://github.com/psi4/psi4/graphs/contributors
    http://psicode.org/psi4manual/master/introduction.html#citing-psifour

    -----------------------------------------------------------------------


    Psi4 started on: Monday, 22 January 2024 04:32PM

    Process ID: 78456
    Host:       ddmfs1
    PSIDATADIR: /ddmfs1b/softs/psi4conda/share/psi4
    Memory:     500.0 MiB
    Threads:    20
    
  ==> Input File <==

--------------------------------------------------------------------------
MEMORY 60 GB

molecule dimer {
1 1
Na         0.000000     0.000000     0.000000
O         -2.215330    -1.211537    -0.435171
H         -2.946479    -1.040175     0.184638
H         -2.480537    -0.897294    -1.285925
O         -1.377703     1.646645     0.851564
H         -0.838544     2.401427     0.750035
H         -2.139544     1.659704     0.318542
O          2.135687     1.382859    -0.640918
H          2.124534     2.024732    -1.423235
H          3.036809     1.045545    -0.627099
O          0.991615    -1.503469    -1.538780
H          0.523070    -2.328162    -1.765905
H          1.872728    -1.692798    -1.836695
O          0.609934    -0.580290     2.198415
H          1.329489    -1.199807     2.453223
H          0.835592     0.356422     2.441611

units ang
no_reorient
no_com
symmetry c1
}

set {
basis        aug-cc-pVTZ
scf_type     df
}

energy("mp2")
--------------------------------------------------------------------------

  Memory set to  55.879 GiB by Python driver.

Scratch directory: /ddmfs1a/scratch/
   => Libint2 <=

    Primary   basis highest AM E, G, H:  5, 4, 3
    Auxiliary basis highest AM E, G, H:  6, 5, 4
    Onebody   basis highest AM E, G, H:  6, 5, 4
    Solid Harmonics ordering:            gaussian

*** tstart() called on ddmfs1
*** at Mon Jan 22 16:32:29 2024

   => Loading Basis Set <=

    Name: AUG-CC-PVTZ
    Role: ORBITAL
    Keyword: BASIS
    atoms 1                            entry NA         line   469 file /ddmfs1b/softs/psi4conda/share/psi4/basis/aug-cc-pvtz.gbs 
    atoms 2, 5, 8, 11, 14              entry O          line   331 file /ddmfs1b/softs/psi4conda/share/psi4/basis/aug-cc-pvtz.gbs 
    atoms 3-4, 6-7, 9-10, 12-13, 15-16 entry H          line    40 file /ddmfs1b/softs/psi4conda/share/psi4/basis/aug-cc-pvtz.gbs 


         ---------------------------------------------------------
                                   SCF
               by Justin Turney, Rob Parrish, Andy Simmonett
                          and Daniel G. A. Smith
                              RHF Reference
                       20 Threads,  57220 MiB Core
         ---------------------------------------------------------

  ==> Geometry <==

    Molecular point group: c1
    Full point group: C1

    Geometry (in Angstrom), charge = 1, multiplicity = 1:

       Center              X                  Y                   Z               Mass       
    ------------   -----------------  -----------------  -----------------  -----------------
         NA           0.000000000000     0.000000000000     0.000000000000    22.989769282000
         O           -2.215330000000    -1.211537000000    -0.435171000000    15.994914619570
         H           -2.946479000000    -1.040175000000     0.184638000000     1.007825032230
         H           -2.480537000000    -0.897294000000    -1.285925000000     1.007825032230
         O           -1.377703000000     1.646645000000     0.851564000000    15.994914619570
         H           -0.838544000000     2.401427000000     0.750035000000     1.007825032230
         H           -2.139544000000     1.659704000000     0.318542000000     1.007825032230
         O            2.135687000000     1.382859000000    -0.640918000000    15.994914619570
         H            2.124534000000     2.024732000000    -1.423235000000     1.007825032230
         H            3.036809000000     1.045545000000    -0.627099000000     1.007825032230
         O            0.991615000000    -1.503469000000    -1.538780000000    15.994914619570
         H            0.523070000000    -2.328162000000    -1.765905000000     1.007825032230
         H            1.872728000000    -1.692798000000    -1.836695000000     1.007825032230
         O            0.609934000000    -0.580290000000     2.198415000000    15.994914619570
         H            1.329489000000    -1.199807000000     2.453223000000     1.007825032230
         H            0.835592000000     0.356422000000     2.441611000000     1.007825032230

  Running in c1 symmetry.

  Rotational constants: A =      0.05401  B =      0.04582  C =      0.03691 [cm^-1]
  Rotational constants: A =   1619.28336  B =   1373.70793  C =   1106.66951 [MHz]
  Nuclear repulsion =  297.308173044606974

  Charge       = 1
  Multiplicity = 1
  Electrons    = 60
  Nalpha       = 30
  Nbeta        = 30

  ==> Algorithm <==

  SCF Algorithm Type is DF.
  DIIS enabled.
  MOM disabled.
  Fractional occupation disabled.
  Guess Type is SAD.
  Energy threshold   = 1.00e-08
  Density threshold  = 1.00e-08
  Integral threshold = 1.00e-12

  ==> Primary Basis <==

  Basis Set: AUG-CC-PVTZ
    Blend: AUG-CC-PVTZ
    Number of shells: 176
    Number of basis functions: 510
    Number of Cartesian functions: 584
    Spherical Harmonics?: true
    Max angular momentum: 3

   => Loading Basis Set <=

    Name: (AUG-CC-PVTZ AUX)
    Role: JKFIT
    Keyword: DF_BASIS_SCF
    atoms 1                            entry NA         line   498 file /ddmfs1b/softs/psi4conda/share/psi4/basis/def2-universal-jkfit.gbs 
    atoms 2, 5, 8, 11, 14              entry O          line   286 file /ddmfs1b/softs/psi4conda/share/psi4/basis/aug-cc-pvtz-jkfit.gbs 
    atoms 3-4, 6-7, 9-10, 12-13, 15-16 entry H          line    70 file /ddmfs1b/softs/psi4conda/share/psi4/basis/aug-cc-pvtz-jkfit.gbs 

  ==> Integral Setup <==

  DFHelper Memory: AOs need 2.020 GiB; user supplied 41.910 GiB. 
  Using in-core AOs.

  ==> MemDFJK: Density-Fitted J/K Matrices <==

    J tasked:                   Yes
    K tasked:                   Yes
    wK tasked:                   No
    OpenMP threads:              20
    Memory [MiB]:             42915
    Algorithm:                 Core
    Schwarz Cutoff:           1E-12
    Mask sparsity (%):       9.2464
    Fitting Condition:        1E-10

   => Auxiliary Basis Set <=

  Basis Set: (AUG-CC-PVTZ AUX)
    Blend: AUG-CC-PVTZ-JKFIT + DEF2-UNIVERSAL-JKFIT
    Number of shells: 324
    Number of basis functions: 1092
    Number of Cartesian functions: 1342
    Spherical Harmonics?: true
    Max angular momentum: 4

  Minimum eigenvalue in the overlap matrix is 2.8975840479E-05.
  Reciprocal condition number of the overlap matrix is 2.1785906397E-06.
    Using symmetric orthogonalization.

  ==> Pre-Iterations <==

  SCF Guess: Superposition of Atomic Densities via on-the-fly atomic UHF (no occupation information).

   -------------------------
    Irrep   Nso     Nmo    
   -------------------------
     A        510     510 
   -------------------------
    Total     510     510
   -------------------------

  ==> Iterations <==

                           Total Energy        Delta E     RMS |[F,P]|

   @DF-RHF iter SAD:  -539.40817250751763   -5.39408e+02   0.00000e+00 
   @DF-RHF iter   1:  -541.66131468410913   -2.25314e+00   2.06738e-03 ADIIS/DIIS
   @DF-RHF iter   2:  -541.93333801049675   -2.72023e-01   1.37094e-03 ADIIS/DIIS
   @DF-RHF iter   3:  -542.08408019443232   -1.50742e-01   1.00022e-04 ADIIS/DIIS
   @DF-RHF iter   4:  -542.08615200618635   -2.07181e-03   2.70112e-05 DIIS
   @DF-RHF iter   5:  -542.08629039983953   -1.38394e-04   8.98519e-06 DIIS
   @DF-RHF iter   6:  -542.08630501452694   -1.46147e-05   3.29719e-06 DIIS
   @DF-RHF iter   7:  -542.08630712382296   -2.10930e-06   6.30859e-07 DIIS
   @DF-RHF iter   8:  -542.08630726858962   -1.44767e-07   1.35355e-07 DIIS
   @DF-RHF iter   9:  -542.08630727322054   -4.63092e-09   5.63460e-08 DIIS
   @DF-RHF iter  10:  -542.08630727366028   -4.39741e-10   1.18386e-08 DIIS
   @DF-RHF iter  11:  -542.08630727369268   -3.24007e-11   3.26324e-09 DIIS
  Energy and wave function converged.


  ==> Post-Iterations <==

    Orbital Energies [Eh]
    ---------------------

    Doubly Occupied:                                                      

       1A    -40.560162     2A    -20.726633     3A    -20.723292  
       4A    -20.721397     5A    -20.717165     6A    -20.714032  
       7A     -2.882025     8A     -1.607588     9A     -1.607070  
      10A     -1.605347    11A     -1.528763    12A     -1.508103  
      13A     -1.503474    14A     -1.495897    15A     -1.481743  
      16A     -0.916772    17A     -0.874411    18A     -0.864022  
      19A     -0.860178    20A     -0.856920    21A     -0.760572  
      22A     -0.746244    23A     -0.744356    24A     -0.735626  
      25A     -0.719094    26A     -0.686021    27A     -0.669061  
      28A     -0.665857    29A     -0.663429    30A     -0.657117  

    Virtual:                                                              

      31A     -0.094065    32A     -0.075999    33A     -0.069387  
      34A     -0.065717    35A     -0.045599    36A     -0.043495  
      37A     -0.042028    38A     -0.040043    39A     -0.037399  
      40A     -0.031808    41A     -0.031069    42A     -0.025932  
      43A     -0.023568    44A     -0.014607    45A     -0.012615  
      46A     -0.008314    47A     -0.007047    48A     -0.000045  
      49A      0.002095    50A      0.006733    51A      0.018348  
      52A      0.022125    53A      0.025333    54A      0.036936  
      55A      0.043255    56A      0.047101    57A      0.059857  
      58A      0.063203    59A      0.066798    60A      0.073591  
      61A      0.076956    62A      0.081640    63A      0.088083  
      64A      0.093857    65A      0.095093    66A      0.102616  
      67A      0.104102    68A      0.107916    69A      0.113497  
      70A      0.118071    71A      0.122385    72A      0.129037  
      73A      0.131959    74A      0.139128    75A      0.147437  
      76A      0.150937    77A      0.157235    78A      0.159125  
      79A      0.160032    80A      0.173601    81A      0.180889  
      82A      0.185809    83A      0.191605    84A      0.201937  
      85A      0.210982    86A      0.215618    87A      0.219968  
      88A      0.225891    89A      0.229371    90A      0.237848  
      91A      0.244470    92A      0.250789    93A      0.263642  
      94A      0.269521    95A      0.271885    96A      0.294124  
      97A      0.303084    98A      0.309210    99A      0.311854  
     100A      0.315536   101A      0.319984   102A      0.321592  
     103A      0.327200   104A      0.330269   105A      0.334498  
     106A      0.337007   107A      0.343378   108A      0.345717  
     109A      0.348228   110A      0.354798   111A      0.356701  
     112A      0.360975   113A      0.363707   114A      0.366869  
     115A      0.367898   116A      0.376018   117A      0.380044  
     118A      0.382400   119A      0.389862   120A      0.393967  
     121A      0.397668   122A      0.402766   123A      0.413096  
     124A      0.420626   125A      0.422719   126A      0.426554  
     127A      0.435322   128A      0.449985   129A      0.460472  
     130A      0.470907   131A      0.478194   132A      0.510864  
     133A      0.514603   134A      0.525980   135A      0.535180  
     136A      0.540494   137A      0.550434   138A      0.559462  
     139A      0.581024   140A      0.585586   141A      0.606400  
     142A      0.609652   143A      0.616152   144A      0.626242  
     145A      0.635222   146A      0.643915   147A      0.651063  
     148A      0.658614   149A      0.673001   150A      0.675745  
     151A      0.688892   152A      0.690560   153A      0.692737  
     154A      0.702550   155A      0.717015   156A      0.726840  
     157A      0.735305   158A      0.737021   159A      0.750130  
     160A      0.762350   161A      0.772177   162A      0.776991  
     163A      0.778875   164A      0.793916   165A      0.798266  
     166A      0.808913   167A      0.810565   168A      0.820200  
     169A      0.821777   170A      0.826998   171A      0.833005  
     172A      0.839467   173A      0.849491   174A      0.856989  
     175A      0.857357   176A      0.863168   177A      0.868816  
     178A      0.874062   179A      0.879777   180A      0.884483  
     181A      0.895537   182A      0.903709   183A      0.908056  
     184A      0.912567   185A      0.919172   186A      0.925712  
     187A      0.935350   188A      0.941670   189A      0.944789  
     190A      0.951533   191A      0.958466   192A      0.963938  
     193A      0.968137   194A      0.985420   195A      0.996033  
     196A      1.001649   197A      1.008120   198A      1.013531  
     199A      1.018668   200A      1.026787   201A      1.028584  
     202A      1.040217   203A      1.047489   204A      1.052941  
     205A      1.066427   206A      1.076989   207A      1.079182  
     208A      1.087012   209A      1.093167   210A      1.108667  
     211A      1.116876   212A      1.124066   213A      1.137497  
     214A      1.143638   215A      1.151731   216A      1.158173  
     217A      1.171866   218A      1.176271   219A      1.181334  
     220A      1.186282   221A      1.193724   222A      1.215582  
     223A      1.227400   224A      1.234949   225A      1.240625  
     226A      1.246740   227A      1.254001   228A      1.273878  
     229A      1.287085   230A      1.293550   231A      1.314465  
     232A      1.319239   233A      1.333594   234A      1.353398  
     235A      1.364907   236A      1.392354   237A      1.399286  
     238A      1.417253   239A      1.424694   240A      1.464671  
     241A      1.481423   242A      1.496959   243A      1.503116  
     244A      1.512562   245A      1.525639   246A      1.535207  
     247A      1.564165   248A      1.568499   249A      1.580254  
     250A      1.586501   251A      1.598291   252A      1.607181  
     253A      1.626569   254A      1.633439   255A      1.651137  
     256A      1.662091   257A      1.683434   258A      1.693931  
     259A      1.705828   260A      1.721288   261A      1.732909  
     262A      1.749986   263A      1.759659   264A      1.784812  
     265A      1.825387   266A      1.842139   267A      1.853628  
     268A      1.890620   269A      1.899873   270A      1.915043  
     271A      1.921339   272A      1.928177   273A      1.963193  
     274A      1.989214   275A      2.000969   276A      2.037567  
     277A      2.047557   278A      2.064605   279A      2.094566  
     280A      2.185592   281A      2.192737   282A      2.204752  
     283A      2.207311   284A      2.218737   285A      2.235125  
     286A      2.250222   287A      2.255420   288A      2.271009  
     289A      2.278643   290A      2.308151   291A      2.313264  
     292A      2.332600   293A      2.341313   294A      2.349116  
     295A      2.358027   296A      2.362490   297A      2.383017  
     298A      2.389946   299A      2.399134   300A      2.406747  
     301A      2.430852   302A      2.439177   303A      2.459509  
     304A      2.474648   305A      2.493848   306A      2.506293  
     307A      2.514255   308A      2.542525   309A      2.551053  
     310A      2.578642   311A      2.592277   312A      2.604391  
     313A      2.613267   314A      2.635290   315A      2.646480  
     316A      2.651601   317A      2.658668   318A      2.662672  
     319A      2.676933   320A      2.692553   321A      2.704733  
     322A      2.712593   323A      2.720406   324A      2.725501  
     325A      2.729887   326A      2.761841   327A      2.767469  
     328A      2.771476   329A      2.779220   330A      2.786006  
     331A      2.807745   332A      2.818009   333A      2.835946  
     334A      2.840675   335A      2.858918   336A      2.872151  
     337A      2.876476   338A      2.887674   339A      2.922174  
     340A      3.256737   341A      3.594308   342A      3.631589  
     343A      3.636311   344A      3.679061   345A      3.684981  
     346A      3.736588   347A      3.745576   348A      3.776463  
     349A      3.786055   350A      3.825786   351A      3.903850  
     352A      3.931668   353A      3.952667   354A      3.974704  
     355A      3.999761   356A      4.064731   357A      4.080467  
     358A      4.087312   359A      4.097777   360A      4.108781  
     361A      4.130910   362A      4.142073   363A      4.146065  
     364A      4.159054   365A      4.178234   366A      4.183756  
     367A      4.199708   368A      4.203116   369A      4.205234  
     370A      4.246076   371A      4.252828   372A      4.287570  
     373A      4.306263   374A      4.319487   375A      4.329480  
     376A      4.336517   377A      4.342326   378A      4.361446  
     379A      4.367000   380A      4.374395   381A      4.382312  
     382A      4.390224   383A      4.392869   384A      4.421006  
     385A      4.424913   386A      4.433903   387A      4.438029  
     388A      4.441781   389A      4.461636   390A      4.477506  
     391A      4.498199   392A      4.522922   393A      4.528555  
     394A      4.554327   395A      4.593470   396A      4.609460  
     397A      4.622834   398A      4.642297   399A      4.664998  
     400A      4.696244   401A      4.703737   402A      4.715476  
     403A      4.748704   404A      4.753086   405A      4.814103  
     406A      4.935463   407A      4.952002   408A      4.957979  
     409A      5.010992   410A      5.016774   411A      5.031403  
     412A      5.052024   413A      5.061193   414A      5.096335  
     415A      5.127950   416A      5.135429   417A      5.151263  
     418A      5.165460   419A      5.168330   420A      5.201087  
     421A      5.212121   422A      5.243873   423A      5.263497  
     424A      5.329755   425A      5.337491   426A      5.345104  
     427A      5.347836   428A      5.406505   429A      5.439788  
     430A      5.485622   431A      5.585957   432A      5.667816  
     433A      5.689309   434A      5.703692   435A      5.842682  
     436A      6.052981   437A      6.087373   438A      6.119860  
     439A      6.148730   440A      6.193318   441A      6.453079  
     442A      6.477714   443A      6.492675   444A      6.503112  
     445A      6.527026   446A      6.603680   447A      6.615473  
     448A      6.625004   449A      6.630777   450A      6.658256  
     451A      6.721937   452A      6.744227   453A      6.768391  
     454A      6.781451   455A      6.866596   456A      6.971255  
     457A      7.017685   458A      7.042098   459A      7.066876  
     460A      7.106440   461A      7.109749   462A      7.127347  
     463A      7.135700   464A      7.154150   465A      7.168663  
     466A      7.183755   467A      7.195591   468A      7.205162  
     469A      7.208326   470A      7.220416   471A      7.239251  
     472A      7.243220   473A      7.249269   474A      7.251681  
     475A      7.254750   476A      7.264012   477A      7.264887  
     478A      7.268096   479A      7.295103   480A      7.298409  
     481A      7.305203   482A      7.318259   483A      7.322212  
     484A      7.328416   485A      7.434200   486A      7.444108  
     487A      7.477818   488A      7.499232   489A      7.592881  
     490A      7.631395   491A      7.710117   492A      7.719368  
     493A      7.732178   494A      7.767410   495A      7.783157  
     496A      7.819165   497A      7.840763   498A      7.859387  
     499A      7.875601   500A      7.967889   501A      8.525803  
     502A      8.558416   503A      8.702979   504A      8.715585  
     505A      8.827690   506A     15.133731   507A     15.299018  
     508A     15.975361   509A     16.062254   510A     17.080431  

    Final Occupation by Irrep:
              A 
    DOCC [    30 ]
    NA   [    30 ]
    NB   [    30 ]

  @DF-RHF Final Energy:  -542.08630727369268

   => Energetics <=

    Nuclear Repulsion Energy =            297.3081730446069741
    One-Electron Energy =               -1337.1842156465356766
    Two-Electron Energy =                 497.7897353282360200
    Total Energy =                       -542.0863072736926824

Computation Completed


Properties will be evaluated at   0.000000,   0.000000,   0.000000 [a0]

Properties computed using the SCF density matrix


 Multipole Moments:

 ------------------------------------------------------------------------------------
     Multipole            Electronic (a.u.)      Nuclear  (a.u.)        Total (a.u.)
 ------------------------------------------------------------------------------------

 L = 1.  Multiply by 2.5417464519 to convert [e a0] to [Debye]
 Dipole X            :         -3.9795139            4.6690257            0.6895118
 Dipole Y            :          3.9318973           -3.3953503            0.5365470
 Dipole Z            :         -6.1483903            5.0834956           -1.0648948
 Magnitude           :                                                    1.3774288

 ------------------------------------------------------------------------------------

*** tstop() called on ddmfs1 at Mon Jan 22 16:32:38 2024
Module time:
	user time   =     140.21 seconds =       2.34 minutes
	system time =       9.22 seconds =       0.15 minutes
	total time  =          9 seconds =       0.15 minutes
Total time:
	user time   =     140.21 seconds =       2.34 minutes
	system time =       9.22 seconds =       0.15 minutes
	total time  =          9 seconds =       0.15 minutes

*** tstart() called on ddmfs1
*** at Mon Jan 22 16:32:38 2024


  //>>>>>>>>>>>>>>>>>>>>>>>>>>>>>>>>>>>//
  //               DFMP2               //
  //<<<<<<<<<<<<<<<<<<<<<<<<<<<<<<<<<<<//

   => Loading Basis Set <=

    Name: (AUG-CC-PVTZ AUX)
    Role: RIFIT
    Keyword: DF_BASIS_MP2
    atoms 1                            entry NA         line   610 file /ddmfs1b/softs/psi4conda/share/psi4/basis/def2-qzvpp-ri.gbs 
    atoms 2, 5, 8, 11, 14              entry O          line   264 file /ddmfs1b/softs/psi4conda/share/psi4/basis/aug-cc-pvtz-ri.gbs 
    atoms 3-4, 6-7, 9-10, 12-13, 15-16 entry H          line    30 file /ddmfs1b/softs/psi4conda/share/psi4/basis/aug-cc-pvtz-ri.gbs 

	 --------------------------------------------------------
	                          DF-MP2                         
	      2nd-Order Density-Fitted Moller-Plesset Theory     
	              RMP2 Wavefunction,  20 Threads             
	                                                         
	        Rob Parrish, Justin Turney, Andy Simmonett,      
	           Ed Hohenstein, and C. David Sherrill          
	 --------------------------------------------------------

   => Auxiliary Basis Set <=

  Basis Set: (AUG-CC-PVTZ AUX)
    Blend: AUG-CC-PVTZ-RI + DEF2-QZVPP-RI
    Number of shells: 322
    Number of basis functions: 1156
    Number of Cartesian functions: 1444
    Spherical Harmonics?: true
    Max angular momentum: 4

	 --------------------------------------------------------
	                 NBF =   510, NAUX =  1156
	 --------------------------------------------------------
	   CLASS    FOCC     OCC    AOCC    AVIR     VIR    FVIR
	   PAIRS       0      30      30     480     480       0
	 --------------------------------------------------------

	-----------------------------------------------------------
	 ==================> DF-MP2 Energies <==================== 
	-----------------------------------------------------------
	 Reference Energy          =    -542.0863072736926824 [Eh]
	 Singles Energy            =      -0.0000000000000000 [Eh]
	 Same-Spin Energy          =      -0.3498964019138890 [Eh]
	 Opposite-Spin Energy      =      -1.0964695484781728 [Eh]
	 Correlation Energy        =      -1.4463659503920618 [Eh]
	 Total Energy              =    -543.5326732240847605 [Eh]
	-----------------------------------------------------------
	 ================> DF-SCS-MP2 Energies <================== 
	-----------------------------------------------------------
	 SCS Same-Spin Scale       =       0.3333333333333333 [-]
	 SCS Opposite-Spin Scale   =       1.2000000000000000 [-]
	 SCS Same-Spin Energy      =      -0.1166321339712963 [Eh]
	 SCS Opposite-Spin Energy  =      -1.3157634581738074 [Eh]
	 SCS Correlation Energy    =      -1.4323955921451037 [Eh]
	 SCS Total Energy          =    -543.5187028658377812 [Eh]
	-----------------------------------------------------------


*** tstop() called on ddmfs1 at Mon Jan 22 16:32:46 2024
Module time:
	user time   =      44.26 seconds =       0.74 minutes
	system time =       2.46 seconds =       0.04 minutes
	total time  =          8 seconds =       0.13 minutes
Total time:
	user time   =     184.49 seconds =       3.07 minutes
	system time =      11.68 seconds =       0.19 minutes
	total time  =         17 seconds =       0.28 minutes

    Psi4 stopped on: Monday, 22 January 2024 04:32PM
    Psi4 wall time for execution: 0:00:17.00

*** Psi4 exiting successfully. Buy a developer a beer!
