
    -----------------------------------------------------------------------
          Psi4: An Open-Source Ab Initio Electronic Structure Package
                               Psi4 1.8.2 release

                         Git: Rev {} zzzzzzz 


    D. G. A. Smith, L. A. Burns, A. C. Simmonett, R. M. Parrish,
    M. C. Schieber, R. Galvelis, P. Kraus, H. Kruse, R. Di Remigio,
    A. Alenaizan, A. M. James, S. Lehtola, J. P. Misiewicz, M. Scheurer,
    R. A. Shaw, J. B. Schriber, Y. Xie, Z. L. Glick, D. A. Sirianni,
    J. S. O'Brien, J. M. Waldrop, A. Kumar, E. G. Hohenstein,
    B. P. Pritchard, B. R. Brooks, H. F. Schaefer III, A. Yu. Sokolov,
    K. Patkowski, A. E. DePrince III, U. Bozkaya, R. A. King,
    F. A. Evangelista, J. M. Turney, T. D. Crawford, C. D. Sherrill,
    J. Chem. Phys. 152(18) 184108 (2020). https://doi.org/10.1063/5.0006002

                            Additional Code Authors
    E. T. Seidl, C. L. Janssen, E. F. Valeev, M. L. Leininger,
    J. F. Gonthier, R. M. Richard, H. R. McAlexander, M. Saitow, X. Wang,
    P. Verma, M. H. Lechner, A. Jiang, S. Behnle, A. G. Heide,
    M. F. Herbst, and D. L. Poole

             Previous Authors, Complete List of Code Contributors,
                       and Citations for Specific Modules
    https://github.com/psi4/psi4/blob/master/codemeta.json
    https://github.com/psi4/psi4/graphs/contributors
    http://psicode.org/psi4manual/master/introduction.html#citing-psifour

    -----------------------------------------------------------------------


    Psi4 started on: Monday, 22 January 2024 02:17PM

    Process ID: 65967
    Host:       ddmfs1
    PSIDATADIR: /ddmfs1b/softs/psi4conda/share/psi4
    Memory:     500.0 MiB
    Threads:    20
    
  ==> Input File <==

--------------------------------------------------------------------------
MEMORY 60 GB

molecule dimer {
1 1
Na         0.000000     0.000000     0.000000
O          1.371989     0.328574     1.684326
H          0.873769     0.178210     2.485652
H          1.644220     1.255675     1.693557
O          1.274054     1.156590    -1.522421
H          2.143789     0.686938    -1.689336
H          1.589642     1.858926    -0.865452
O         -0.454922    -1.892188     1.128252
H         -0.218035    -2.740225     0.777085
H         -1.339420    -1.998303     1.395279
O         -2.133645    -0.099464    -1.426698
H         -2.740263    -0.005265    -0.688170
H         -2.763796     0.016320    -2.131063
O         -1.451092     1.948369     0.243257
H         -0.996390     2.756909     0.501988
H         -2.021890     2.166962    -0.562477

units ang
no_reorient
no_com
symmetry c1
}

set {
basis        aug-cc-pVTZ
scf_type     df
}

energy("mp2")
--------------------------------------------------------------------------

  Memory set to  55.879 GiB by Python driver.

Scratch directory: /ddmfs1a/scratch/
   => Libint2 <=

    Primary   basis highest AM E, G, H:  5, 4, 3
    Auxiliary basis highest AM E, G, H:  6, 5, 4
    Onebody   basis highest AM E, G, H:  6, 5, 4
    Solid Harmonics ordering:            gaussian

*** tstart() called on ddmfs1
*** at Mon Jan 22 14:17:30 2024

   => Loading Basis Set <=

    Name: AUG-CC-PVTZ
    Role: ORBITAL
    Keyword: BASIS
    atoms 1                            entry NA         line   469 file /ddmfs1b/softs/psi4conda/share/psi4/basis/aug-cc-pvtz.gbs 
    atoms 2, 5, 8, 11, 14              entry O          line   331 file /ddmfs1b/softs/psi4conda/share/psi4/basis/aug-cc-pvtz.gbs 
    atoms 3-4, 6-7, 9-10, 12-13, 15-16 entry H          line    40 file /ddmfs1b/softs/psi4conda/share/psi4/basis/aug-cc-pvtz.gbs 


         ---------------------------------------------------------
                                   SCF
               by Justin Turney, Rob Parrish, Andy Simmonett
                          and Daniel G. A. Smith
                              RHF Reference
                       20 Threads,  57220 MiB Core
         ---------------------------------------------------------

  ==> Geometry <==

    Molecular point group: c1
    Full point group: C1

    Geometry (in Angstrom), charge = 1, multiplicity = 1:

       Center              X                  Y                   Z               Mass       
    ------------   -----------------  -----------------  -----------------  -----------------
         NA           0.000000000000     0.000000000000     0.000000000000    22.989769282000
         O            1.371989000000     0.328574000000     1.684326000000    15.994914619570
         H            0.873769000000     0.178210000000     2.485652000000     1.007825032230
         H            1.644220000000     1.255675000000     1.693557000000     1.007825032230
         O            1.274054000000     1.156590000000    -1.522421000000    15.994914619570
         H            2.143789000000     0.686938000000    -1.689336000000     1.007825032230
         H            1.589642000000     1.858926000000    -0.865452000000     1.007825032230
         O           -0.454922000000    -1.892188000000     1.128252000000    15.994914619570
         H           -0.218035000000    -2.740225000000     0.777085000000     1.007825032230
         H           -1.339420000000    -1.998303000000     1.395279000000     1.007825032230
         O           -2.133645000000    -0.099464000000    -1.426698000000    15.994914619570
         H           -2.740263000000    -0.005265000000    -0.688170000000     1.007825032230
         H           -2.763796000000     0.016320000000    -2.131063000000     1.007825032230
         O           -1.451092000000     1.948369000000     0.243257000000    15.994914619570
         H           -0.996390000000     2.756909000000     0.501988000000     1.007825032230
         H           -2.021890000000     2.166962000000    -0.562477000000     1.007825032230

  Running in c1 symmetry.

  Rotational constants: A =      0.05855  B =      0.04994  C =      0.03936 [cm^-1]
  Rotational constants: A =   1755.36341  B =   1497.09052  C =   1179.99275 [MHz]
  Nuclear repulsion =  310.315283813308952

  Charge       = 1
  Multiplicity = 1
  Electrons    = 60
  Nalpha       = 30
  Nbeta        = 30

  ==> Algorithm <==

  SCF Algorithm Type is DF.
  DIIS enabled.
  MOM disabled.
  Fractional occupation disabled.
  Guess Type is SAD.
  Energy threshold   = 1.00e-08
  Density threshold  = 1.00e-08
  Integral threshold = 1.00e-12

  ==> Primary Basis <==

  Basis Set: AUG-CC-PVTZ
    Blend: AUG-CC-PVTZ
    Number of shells: 176
    Number of basis functions: 510
    Number of Cartesian functions: 584
    Spherical Harmonics?: true
    Max angular momentum: 3

   => Loading Basis Set <=

    Name: (AUG-CC-PVTZ AUX)
    Role: JKFIT
    Keyword: DF_BASIS_SCF
    atoms 1                            entry NA         line   498 file /ddmfs1b/softs/psi4conda/share/psi4/basis/def2-universal-jkfit.gbs 
    atoms 2, 5, 8, 11, 14              entry O          line   286 file /ddmfs1b/softs/psi4conda/share/psi4/basis/aug-cc-pvtz-jkfit.gbs 
    atoms 3-4, 6-7, 9-10, 12-13, 15-16 entry H          line    70 file /ddmfs1b/softs/psi4conda/share/psi4/basis/aug-cc-pvtz-jkfit.gbs 

  ==> Integral Setup <==

  DFHelper Memory: AOs need 2.055 GiB; user supplied 41.910 GiB. 
  Using in-core AOs.

  ==> MemDFJK: Density-Fitted J/K Matrices <==

    J tasked:                   Yes
    K tasked:                   Yes
    wK tasked:                   No
    OpenMP threads:              20
    Memory [MiB]:             42915
    Algorithm:                 Core
    Schwarz Cutoff:           1E-12
    Mask sparsity (%):       7.5932
    Fitting Condition:        1E-10

   => Auxiliary Basis Set <=

  Basis Set: (AUG-CC-PVTZ AUX)
    Blend: AUG-CC-PVTZ-JKFIT + DEF2-UNIVERSAL-JKFIT
    Number of shells: 324
    Number of basis functions: 1092
    Number of Cartesian functions: 1342
    Spherical Harmonics?: true
    Max angular momentum: 4

  Minimum eigenvalue in the overlap matrix is 1.9894215570E-05.
  Reciprocal condition number of the overlap matrix is 1.3840759330E-06.
    Using symmetric orthogonalization.

  ==> Pre-Iterations <==

  SCF Guess: Superposition of Atomic Densities via on-the-fly atomic UHF (no occupation information).

   -------------------------
    Irrep   Nso     Nmo    
   -------------------------
     A        510     510 
   -------------------------
    Total     510     510
   -------------------------

  ==> Iterations <==

                           Total Energy        Delta E     RMS |[F,P]|

   @DF-RHF iter SAD:  -539.50993457176764   -5.39510e+02   0.00000e+00 
   @DF-RHF iter   1:  -541.64060440024491   -2.13067e+00   2.07271e-03 DIIS/ADIIS
   @DF-RHF iter   2:  -541.91755365094014   -2.76949e-01   1.37760e-03 DIIS/ADIIS
   @DF-RHF iter   3:  -542.07048258397094   -1.52929e-01   1.02157e-04 DIIS/ADIIS
   @DF-RHF iter   4:  -542.07264180065454   -2.15922e-03   2.84134e-05 DIIS
   @DF-RHF iter   5:  -542.07279275528197   -1.50955e-04   1.00170e-05 DIIS
   @DF-RHF iter   6:  -542.07281015048511   -1.73952e-05   3.56449e-06 DIIS
   @DF-RHF iter   7:  -542.07281271641091   -2.56593e-06   6.63812e-07 DIIS
   @DF-RHF iter   8:  -542.07281287061176   -1.54201e-07   1.60238e-07 DIIS
   @DF-RHF iter   9:  -542.07281287575279   -5.14103e-09   6.53547e-08 DIIS
   @DF-RHF iter  10:  -542.07281287639694   -6.44150e-10   1.22378e-08 DIIS
   @DF-RHF iter  11:  -542.07281287643366   -3.67208e-11   3.57506e-09 DIIS
  Energy and wave function converged.


  ==> Post-Iterations <==

    Orbital Energies [Eh]
    ---------------------

    Doubly Occupied:                                                      

       1A    -40.548504     2A    -20.736409     3A    -20.730543  
       4A    -20.726628     5A    -20.726522     6A    -20.717201  
       7A     -2.874267     8A     -1.601193     9A     -1.600385  
      10A     -1.598847    11A     -1.529979    12A     -1.518244  
      13A     -1.512052    14A     -1.496499    15A     -1.494963  
      16A     -0.892822    17A     -0.889053    18A     -0.874825  
      19A     -0.850691    20A     -0.843576    21A     -0.774367  
      22A     -0.759315    23A     -0.751130    24A     -0.748604  
      25A     -0.741674    26A     -0.686597    27A     -0.684119  
      28A     -0.675762    29A     -0.672801    30A     -0.658152  

    Virtual:                                                              

      31A     -0.096572    32A     -0.077802    33A     -0.070367  
      34A     -0.066902    35A     -0.046015    36A     -0.045555  
      37A     -0.042304    38A     -0.041091    39A     -0.036585  
      40A     -0.033825    41A     -0.032156    42A     -0.028342  
      43A     -0.023400    44A     -0.013540    45A     -0.012450  
      46A     -0.010345    47A     -0.007190    48A     -0.005721  
      49A      0.001931    50A      0.005992    51A      0.016364  
      52A      0.020395    53A      0.023360    54A      0.037429  
      55A      0.039393    56A      0.051173    57A      0.056603  
      58A      0.062164    59A      0.064820    60A      0.068863  
      61A      0.075574    62A      0.084044    63A      0.092310  
      64A      0.094986    65A      0.099132    66A      0.100953  
      67A      0.103715    68A      0.107403    69A      0.109959  
      70A      0.114410    71A      0.122771    72A      0.124582  
      73A      0.131528    74A      0.134535    75A      0.141121  
      76A      0.146520    77A      0.151091    78A      0.159405  
      79A      0.171583    80A      0.172856    81A      0.189744  
      82A      0.190181    83A      0.197397    84A      0.203246  
      85A      0.210215    86A      0.213915    87A      0.216006  
      88A      0.229802    89A      0.240040    90A      0.248183  
      91A      0.255880    92A      0.262188    93A      0.266231  
      94A      0.286823    95A      0.292536    96A      0.296286  
      97A      0.300715    98A      0.308034    99A      0.314395  
     100A      0.321879   101A      0.323140   102A      0.325186  
     103A      0.330276   104A      0.333768   105A      0.336209  
     106A      0.337817   107A      0.343778   108A      0.346290  
     109A      0.352578   110A      0.355062   111A      0.356012  
     112A      0.359717   113A      0.361645   114A      0.365761  
     115A      0.374812   116A      0.376190   117A      0.383164  
     118A      0.394032   119A      0.394449   120A      0.400044  
     121A      0.406556   122A      0.411381   123A      0.422361  
     124A      0.425085   125A      0.431537   126A      0.442241  
     127A      0.445357   128A      0.453872   129A      0.458776  
     130A      0.466720   131A      0.495041   132A      0.504750  
     133A      0.520864   134A      0.526794   135A      0.541907  
     136A      0.549782   137A      0.565005   138A      0.575822  
     139A      0.578180   140A      0.597722   141A      0.607076  
     142A      0.608231   143A      0.620745   144A      0.623931  
     145A      0.626868   146A      0.654094   147A      0.660723  
     148A      0.676964   149A      0.682102   150A      0.698265  
     151A      0.699929   152A      0.712152   153A      0.718943  
     154A      0.725787   155A      0.730489   156A      0.741311  
     157A      0.747650   158A      0.759463   159A      0.761977  
     160A      0.771859   161A      0.784633   162A      0.787615  
     163A      0.789000   164A      0.791565   165A      0.799781  
     166A      0.804356   167A      0.811236   168A      0.819452  
     169A      0.830672   170A      0.834841   171A      0.844430  
     172A      0.851262   173A      0.855433   174A      0.858689  
     175A      0.865776   176A      0.877847   177A      0.883518  
     178A      0.889190   179A      0.890925   180A      0.897343  
     181A      0.908519   182A      0.917276   183A      0.920425  
     184A      0.928082   185A      0.935439   186A      0.947630  
     187A      0.952322   188A      0.955876   189A      0.968131  
     190A      0.973395   191A      0.983543   192A      0.993879  
     193A      0.994799   194A      0.995673   195A      1.007934  
     196A      1.013204   197A      1.018344   198A      1.031184  
     199A      1.034274   200A      1.043901   201A      1.045042  
     202A      1.071688   203A      1.078287   204A      1.081642  
     205A      1.096187   206A      1.103341   207A      1.111124  
     208A      1.117435   209A      1.120460   210A      1.129047  
     211A      1.139177   212A      1.146171   213A      1.157522  
     214A      1.169609   215A      1.176685   216A      1.186506  
     217A      1.198081   218A      1.202808   219A      1.204234  
     220A      1.218868   221A      1.232072   222A      1.249619  
     223A      1.255292   224A      1.263385   225A      1.275866  
     226A      1.282460   227A      1.298296   228A      1.309672  
     229A      1.316454   230A      1.323815   231A      1.342367  
     232A      1.350407   233A      1.360352   234A      1.378891  
     235A      1.401715   236A      1.405240   237A      1.412590  
     238A      1.450488   239A      1.465466   240A      1.470057  
     241A      1.493829   242A      1.506986   243A      1.528122  
     244A      1.542313   245A      1.544616   246A      1.567706  
     247A      1.573772   248A      1.585153   249A      1.606121  
     250A      1.628064   251A      1.633892   252A      1.642361  
     253A      1.654436   254A      1.674378   255A      1.691549  
     256A      1.696122   257A      1.719352   258A      1.732307  
     259A      1.748476   260A      1.751360   261A      1.770327  
     262A      1.790320   263A      1.804894   264A      1.818418  
     265A      1.854562   266A      1.861513   267A      1.883390  
     268A      1.892406   269A      1.929439   270A      1.933593  
     271A      1.944233   272A      1.950843   273A      1.962185  
     274A      1.981531   275A      2.028271   276A      2.037591  
     277A      2.083223   278A      2.117805   279A      2.152838  
     280A      2.176248   281A      2.198941   282A      2.213307  
     283A      2.233776   284A      2.246373   285A      2.263983  
     286A      2.268005   287A      2.282071   288A      2.294152  
     289A      2.301062   290A      2.329558   291A      2.339314  
     292A      2.346275   293A      2.350040   294A      2.357731  
     295A      2.383711   296A      2.400766   297A      2.414237  
     298A      2.416857   299A      2.426979   300A      2.444056  
     301A      2.459186   302A      2.474334   303A      2.490806  
     304A      2.499254   305A      2.510608   306A      2.522954  
     307A      2.532662   308A      2.546791   309A      2.551486  
     310A      2.581980   311A      2.599655   312A      2.603279  
     313A      2.619061   314A      2.643547   315A      2.655587  
     316A      2.660781   317A      2.667762   318A      2.680349  
     319A      2.689376   320A      2.695381   321A      2.701534  
     322A      2.718393   323A      2.727538   324A      2.741705  
     325A      2.764816   326A      2.774542   327A      2.780595  
     328A      2.790286   329A      2.800462   330A      2.810610  
     331A      2.824761   332A      2.836231   333A      2.862156  
     334A      2.878323   335A      2.885560   336A      2.906329  
     337A      2.924777   338A      2.932461   339A      2.959747  
     340A      3.360284   341A      3.592547   342A      3.641449  
     343A      3.658818   344A      3.698508   345A      3.721040  
     346A      3.734561   347A      3.761190   348A      3.781484  
     349A      3.797071   350A      3.840580   351A      3.964716  
     352A      3.967044   353A      3.986685   354A      4.004340  
     355A      4.020691   356A      4.040016   357A      4.052142  
     358A      4.097092   359A      4.111699   360A      4.120131  
     361A      4.121594   362A      4.142105   363A      4.162726  
     364A      4.176925   365A      4.188518   366A      4.197516  
     367A      4.209909   368A      4.235685   369A      4.253961  
     370A      4.263449   371A      4.299097   372A      4.309561  
     373A      4.317117   374A      4.328929   375A      4.353288  
     376A      4.353534   377A      4.367452   378A      4.374676  
     379A      4.379624   380A      4.408105   381A      4.414932  
     382A      4.422673   383A      4.424717   384A      4.443619  
     385A      4.450931   386A      4.468377   387A      4.473558  
     388A      4.488942   389A      4.500014   390A      4.519100  
     391A      4.544878   392A      4.553307   393A      4.577375  
     394A      4.594500   395A      4.598274   396A      4.641756  
     397A      4.691146   398A      4.705381   399A      4.718235  
     400A      4.729726   401A      4.749331   402A      4.766072  
     403A      4.800876   404A      4.822163   405A      4.865978  
     406A      4.919708   407A      4.940684   408A      4.949675  
     409A      5.002632   410A      5.052195   411A      5.064663  
     412A      5.071379   413A      5.076676   414A      5.087399  
     415A      5.114374   416A      5.117891   417A      5.128817  
     418A      5.157190   419A      5.174910   420A      5.208326  
     421A      5.226312   422A      5.244059   423A      5.257151  
     424A      5.312553   425A      5.365361   426A      5.391140  
     427A      5.407427   428A      5.456989   429A      5.475702  
     430A      5.509284   431A      5.513116   432A      5.614353  
     433A      5.674064   434A      5.708360   435A      5.736295  
     436A      6.113029   437A      6.135582   438A      6.195516  
     439A      6.216104   440A      6.256364   441A      6.428359  
     442A      6.445557   443A      6.470434   444A      6.500397  
     445A      6.532243   446A      6.597569   447A      6.631778  
     448A      6.650973   449A      6.667885   450A      6.691921  
     451A      6.761986   452A      6.787770   453A      6.811876  
     454A      6.862529   455A      6.922277   456A      6.966389  
     457A      7.003962   458A      7.015876   459A      7.043218  
     460A      7.058453   461A      7.059908   462A      7.107193  
     463A      7.110849   464A      7.147676   465A      7.182690  
     466A      7.184732   467A      7.197411   468A      7.204756  
     469A      7.208272   470A      7.225641   471A      7.233174  
     472A      7.236909   473A      7.239159   474A      7.242748  
     475A      7.253201   476A      7.261060   477A      7.284772  
     478A      7.293336   479A      7.302509   480A      7.308708  
     481A      7.323107   482A      7.328969   483A      7.341991  
     484A      7.396336   485A      7.403959   486A      7.439415  
     487A      7.531074   488A      7.565873   489A      7.608640  
     490A      7.652064   491A      7.657687   492A      7.714530  
     493A      7.765446   494A      7.796428   495A      7.801013  
     496A      7.814751   497A      7.867376   498A      7.870748  
     499A      7.924343   500A      7.972201   501A      8.512512  
     502A      8.572243   503A      8.731084   504A      8.822148  
     505A      8.847918   506A     14.761501   507A     15.399531  
     508A     16.160726   509A     16.336345   510A     16.804425  

    Final Occupation by Irrep:
              A 
    DOCC [    30 ]
    NA   [    30 ]
    NB   [    30 ]

  @DF-RHF Final Energy:  -542.07281287643366

   => Energetics <=

    Nuclear Repulsion Energy =            310.3152838133089517
    One-Electron Energy =               -1362.9447410005200254
    Two-Electron Energy =                 510.5566443107774148
    Total Energy =                       -542.0728128764336589

Computation Completed


Properties will be evaluated at   0.000000,   0.000000,   0.000000 [a0]

Properties computed using the SCF density matrix


 Multipole Moments:

 ------------------------------------------------------------------------------------
     Multipole            Electronic (a.u.)      Nuclear  (a.u.)        Total (a.u.)
 ------------------------------------------------------------------------------------

 L = 1.  Multiply by 2.5417464519 to convert [e a0] to [Debye]
 Dipole X            :         27.5125521          -28.3029989           -0.7904468
 Dipole Y            :        -28.8376030           29.6898557            0.8522526
 Dipole Z            :         -2.9063107            3.3463100            0.4399993
 Magnitude           :                                                    1.2428757

 ------------------------------------------------------------------------------------

*** tstop() called on ddmfs1 at Mon Jan 22 14:17:39 2024
Module time:
	user time   =     141.37 seconds =       2.36 minutes
	system time =      10.49 seconds =       0.17 minutes
	total time  =          9 seconds =       0.15 minutes
Total time:
	user time   =     141.37 seconds =       2.36 minutes
	system time =      10.49 seconds =       0.17 minutes
	total time  =          9 seconds =       0.15 minutes

*** tstart() called on ddmfs1
*** at Mon Jan 22 14:17:39 2024


  //>>>>>>>>>>>>>>>>>>>>>>>>>>>>>>>>>>>//
  //               DFMP2               //
  //<<<<<<<<<<<<<<<<<<<<<<<<<<<<<<<<<<<//

   => Loading Basis Set <=

    Name: (AUG-CC-PVTZ AUX)
    Role: RIFIT
    Keyword: DF_BASIS_MP2
    atoms 1                            entry NA         line   610 file /ddmfs1b/softs/psi4conda/share/psi4/basis/def2-qzvpp-ri.gbs 
    atoms 2, 5, 8, 11, 14              entry O          line   264 file /ddmfs1b/softs/psi4conda/share/psi4/basis/aug-cc-pvtz-ri.gbs 
    atoms 3-4, 6-7, 9-10, 12-13, 15-16 entry H          line    30 file /ddmfs1b/softs/psi4conda/share/psi4/basis/aug-cc-pvtz-ri.gbs 

	 --------------------------------------------------------
	                          DF-MP2                         
	      2nd-Order Density-Fitted Moller-Plesset Theory     
	              RMP2 Wavefunction,  20 Threads             
	                                                         
	        Rob Parrish, Justin Turney, Andy Simmonett,      
	           Ed Hohenstein, and C. David Sherrill          
	 --------------------------------------------------------

   => Auxiliary Basis Set <=

  Basis Set: (AUG-CC-PVTZ AUX)
    Blend: AUG-CC-PVTZ-RI + DEF2-QZVPP-RI
    Number of shells: 322
    Number of basis functions: 1156
    Number of Cartesian functions: 1444
    Spherical Harmonics?: true
    Max angular momentum: 4

	 --------------------------------------------------------
	                 NBF =   510, NAUX =  1156
	 --------------------------------------------------------
	   CLASS    FOCC     OCC    AOCC    AVIR     VIR    FVIR
	   PAIRS       0      30      30     480     480       0
	 --------------------------------------------------------

	-----------------------------------------------------------
	 ==================> DF-MP2 Energies <==================== 
	-----------------------------------------------------------
	 Reference Energy          =    -542.0728128764336589 [Eh]
	 Singles Energy            =      -0.0000000000000000 [Eh]
	 Same-Spin Energy          =      -0.3525215851720736 [Eh]
	 Opposite-Spin Energy      =      -1.1017350611645600 [Eh]
	 Correlation Energy        =      -1.4542566463366335 [Eh]
	 Total Energy              =    -543.5270695227702618 [Eh]
	-----------------------------------------------------------
	 ================> DF-SCS-MP2 Energies <================== 
	-----------------------------------------------------------
	 SCS Same-Spin Scale       =       0.3333333333333333 [-]
	 SCS Opposite-Spin Scale   =       1.2000000000000000 [-]
	 SCS Same-Spin Energy      =      -0.1175071950573579 [Eh]
	 SCS Opposite-Spin Energy  =      -1.3220820733974719 [Eh]
	 SCS Correlation Energy    =      -1.4395892684548297 [Eh]
	 SCS Total Energy          =    -543.5124021448884832 [Eh]
	-----------------------------------------------------------


*** tstop() called on ddmfs1 at Mon Jan 22 14:17:47 2024
Module time:
	user time   =      45.40 seconds =       0.76 minutes
	system time =       2.60 seconds =       0.04 minutes
	total time  =          8 seconds =       0.13 minutes
Total time:
	user time   =     186.79 seconds =       3.11 minutes
	system time =      13.09 seconds =       0.22 minutes
	total time  =         17 seconds =       0.28 minutes

    Psi4 stopped on: Monday, 22 January 2024 02:17PM
    Psi4 wall time for execution: 0:00:17.15

*** Psi4 exiting successfully. Buy a developer a beer!
