
    -----------------------------------------------------------------------
          Psi4: An Open-Source Ab Initio Electronic Structure Package
                               Psi4 1.8.2 release

                         Git: Rev {} zzzzzzz 


    D. G. A. Smith, L. A. Burns, A. C. Simmonett, R. M. Parrish,
    M. C. Schieber, R. Galvelis, P. Kraus, H. Kruse, R. Di Remigio,
    A. Alenaizan, A. M. James, S. Lehtola, J. P. Misiewicz, M. Scheurer,
    R. A. Shaw, J. B. Schriber, Y. Xie, Z. L. Glick, D. A. Sirianni,
    J. S. O'Brien, J. M. Waldrop, A. Kumar, E. G. Hohenstein,
    B. P. Pritchard, B. R. Brooks, H. F. Schaefer III, A. Yu. Sokolov,
    K. Patkowski, A. E. DePrince III, U. Bozkaya, R. A. King,
    F. A. Evangelista, J. M. Turney, T. D. Crawford, C. D. Sherrill,
    J. Chem. Phys. 152(18) 184108 (2020). https://doi.org/10.1063/5.0006002

                            Additional Code Authors
    E. T. Seidl, C. L. Janssen, E. F. Valeev, M. L. Leininger,
    J. F. Gonthier, R. M. Richard, H. R. McAlexander, M. Saitow, X. Wang,
    P. Verma, M. H. Lechner, A. Jiang, S. Behnle, A. G. Heide,
    M. F. Herbst, and D. L. Poole

             Previous Authors, Complete List of Code Contributors,
                       and Citations for Specific Modules
    https://github.com/psi4/psi4/blob/master/codemeta.json
    https://github.com/psi4/psi4/graphs/contributors
    http://psicode.org/psi4manual/master/introduction.html#citing-psifour

    -----------------------------------------------------------------------


    Psi4 started on: Monday, 22 January 2024 02:22PM

    Process ID: 66472
    Host:       ddmfs1
    PSIDATADIR: /ddmfs1b/softs/psi4conda/share/psi4
    Memory:     500.0 MiB
    Threads:    20
    
  ==> Input File <==

--------------------------------------------------------------------------
MEMORY 60 GB

molecule dimer {
0 1
Gh(Na)     0.000000     0.000000     0.000000
Gh(O)     -0.033562     0.651864    -2.283036
Gh(H)      0.894796     0.893756    -2.460802
Gh(H)     -0.574548     1.432965    -2.476385
O          2.159584    -0.736393     0.244526
H          2.484224    -0.797737    -0.668585
H          2.769476    -0.050577     0.618321
Gh(O)      1.010079     1.997128     0.381980
Gh(H)      1.335088     1.941477     1.298553
Gh(H)      1.836526     2.246424    -0.124748
Gh(O)     -0.693443    -2.201180    -0.087038
Gh(H)     -1.384165    -2.200407     0.626177
Gh(H)     -1.159158    -2.555826    -0.870984
Gh(O)     -0.562174    -0.147253     2.221974
Gh(H)      0.059516    -0.569628     2.892423
Gh(H)     -0.988942     0.664075     2.631446
Gh(O)     -2.540820     0.600282    -0.110639
Gh(H)     -2.964940    -0.234719     0.142310
Gh(H)     -2.996517     1.319936     0.377222

units ang
no_reorient
no_com
symmetry c1
}

set {
basis        aug-cc-pVTZ
scf_type     df
}

energy("mp2")
--------------------------------------------------------------------------

  Memory set to  55.879 GiB by Python driver.

Scratch directory: /ddmfs1a/scratch/
   => Libint2 <=

    Primary   basis highest AM E, G, H:  5, 4, 3
    Auxiliary basis highest AM E, G, H:  6, 5, 4
    Onebody   basis highest AM E, G, H:  6, 5, 4
    Solid Harmonics ordering:            gaussian

*** tstart() called on ddmfs1
*** at Mon Jan 22 14:22:51 2024

   => Loading Basis Set <=

    Name: AUG-CC-PVTZ
    Role: ORBITAL
    Keyword: BASIS
    atoms 1                                   entry NA         line   469 file /ddmfs1b/softs/psi4conda/share/psi4/basis/aug-cc-pvtz.gbs 
    atoms 2, 5, 8, 11, 14, 17                 entry O          line   331 file /ddmfs1b/softs/psi4conda/share/psi4/basis/aug-cc-pvtz.gbs 
    atoms 3-4, 6-7, 9-10, 12-13, 15-16, 18-19 entry H          line    40 file /ddmfs1b/softs/psi4conda/share/psi4/basis/aug-cc-pvtz.gbs 


         ---------------------------------------------------------
                                   SCF
               by Justin Turney, Rob Parrish, Andy Simmonett
                          and Daniel G. A. Smith
                              RHF Reference
                       20 Threads,  57220 MiB Core
         ---------------------------------------------------------

  ==> Geometry <==

    Molecular point group: c1
    Full point group: C1

    Geometry (in Angstrom), charge = 0, multiplicity = 1:

       Center              X                  Y                   Z               Mass       
    ------------   -----------------  -----------------  -----------------  -----------------
      Gh(NA)          0.000000000000     0.000000000000     0.000000000000    22.989769282000
      Gh(O)          -0.033562000000     0.651864000000    -2.283036000000    15.994914619570
      Gh(H)           0.894796000000     0.893756000000    -2.460802000000     1.007825032230
      Gh(H)          -0.574548000000     1.432965000000    -2.476385000000     1.007825032230
         O            2.159584000000    -0.736393000000     0.244526000000    15.994914619570
         H            2.484224000000    -0.797737000000    -0.668585000000     1.007825032230
         H            2.769476000000    -0.050577000000     0.618321000000     1.007825032230
      Gh(O)           1.010079000000     1.997128000000     0.381980000000    15.994914619570
      Gh(H)           1.335088000000     1.941477000000     1.298553000000     1.007825032230
      Gh(H)           1.836526000000     2.246424000000    -0.124748000000     1.007825032230
      Gh(O)          -0.693443000000    -2.201180000000    -0.087038000000    15.994914619570
      Gh(H)          -1.384165000000    -2.200407000000     0.626177000000     1.007825032230
      Gh(H)          -1.159158000000    -2.555826000000    -0.870984000000     1.007825032230
      Gh(O)          -0.562174000000    -0.147253000000     2.221974000000    15.994914619570
      Gh(H)           0.059516000000    -0.569628000000     2.892423000000     1.007825032230
      Gh(H)          -0.988942000000     0.664075000000     2.631446000000     1.007825032230
      Gh(O)          -2.540820000000     0.600282000000    -0.110639000000    15.994914619570
      Gh(H)          -2.964940000000    -0.234719000000     0.142310000000     1.007825032230
      Gh(H)          -2.996517000000     1.319936000000     0.377222000000     1.007825032230

  Running in c1 symmetry.

  Rotational constants: A =      0.04404  B =      0.03960  C =      0.03633 [cm^-1]
  Rotational constants: A =   1320.19285  B =   1187.10381  C =   1089.26704 [MHz]
  Nuclear repulsion =    8.980875052846125

  Charge       = 0
  Multiplicity = 1
  Electrons    = 10
  Nalpha       = 5
  Nbeta        = 5

  ==> Algorithm <==

  SCF Algorithm Type is DF.
  DIIS enabled.
  MOM disabled.
  Fractional occupation disabled.
  Guess Type is SAD.
  Energy threshold   = 1.00e-08
  Density threshold  = 1.00e-08
  Integral threshold = 1.00e-12

  ==> Primary Basis <==

  Basis Set: AUG-CC-PVTZ
    Blend: AUG-CC-PVTZ
    Number of shells: 208
    Number of basis functions: 602
    Number of Cartesian functions: 689
    Spherical Harmonics?: true
    Max angular momentum: 3

   => Loading Basis Set <=

    Name: (AUG-CC-PVTZ AUX)
    Role: JKFIT
    Keyword: DF_BASIS_SCF
    atoms 1                                   entry NA         line   498 file /ddmfs1b/softs/psi4conda/share/psi4/basis/def2-universal-jkfit.gbs 
    atoms 2, 5, 8, 11, 14, 17                 entry O          line   286 file /ddmfs1b/softs/psi4conda/share/psi4/basis/aug-cc-pvtz-jkfit.gbs 
    atoms 3-4, 6-7, 9-10, 12-13, 15-16, 18-19 entry H          line    70 file /ddmfs1b/softs/psi4conda/share/psi4/basis/aug-cc-pvtz-jkfit.gbs 

  ==> Integral Setup <==

  DFHelper Memory: AOs need 3.329 GiB; user supplied 41.910 GiB. 
  Using in-core AOs.

  ==> MemDFJK: Density-Fitted J/K Matrices <==

    J tasked:                   Yes
    K tasked:                   Yes
    wK tasked:                   No
    OpenMP threads:              20
    Memory [MiB]:             42915
    Algorithm:                 Core
    Schwarz Cutoff:           1E-12
    Mask sparsity (%):       8.2935
    Fitting Condition:        1E-10

   => Auxiliary Basis Set <=

  Basis Set: (AUG-CC-PVTZ AUX)
    Blend: AUG-CC-PVTZ-JKFIT + DEF2-UNIVERSAL-JKFIT
    Number of shells: 382
    Number of basis functions: 1288
    Number of Cartesian functions: 1583
    Spherical Harmonics?: true
    Max angular momentum: 4

  Minimum eigenvalue in the overlap matrix is 1.7503689844E-05.
  Reciprocal condition number of the overlap matrix is 1.1006617223E-06.
    Using symmetric orthogonalization.

  ==> Pre-Iterations <==

  SCF Guess: Superposition of Atomic Densities via on-the-fly atomic UHF (no occupation information).

   -------------------------
    Irrep   Nso     Nmo    
   -------------------------
     A        602     602 
   -------------------------
    Total     602     602
   -------------------------

  ==> Iterations <==

                           Total Energy        Delta E     RMS |[F,P]|

   @DF-RHF iter SAD:   -75.45379196061315   -7.54538e+01   0.00000e+00 
   @DF-RHF iter   1:   -75.97184526347087   -5.18053e-01   7.75798e-04 DIIS/ADIIS
   @DF-RHF iter   2:   -76.02374829067497   -5.19030e-02   5.43698e-04 DIIS/ADIIS
   @DF-RHF iter   3:   -76.05716781646518   -3.34195e-02   3.70196e-05 DIIS
   @DF-RHF iter   4:   -76.05758572038005   -4.17904e-04   9.31885e-06 DIIS
   @DF-RHF iter   5:   -76.05761535068584   -2.96303e-05   2.18163e-06 DIIS
   @DF-RHF iter   6:   -76.05761788001749   -2.52933e-06   4.73710e-07 DIIS
   @DF-RHF iter   7:   -76.05761800823922   -1.28222e-07   8.04472e-08 DIIS
   @DF-RHF iter   8:   -76.05761801141668   -3.17746e-09   1.37855e-08 DIIS
   @DF-RHF iter   9:   -76.05761801149048   -7.37970e-11   3.41750e-09 DIIS
  Energy and wave function converged.


  ==> Post-Iterations <==

    Orbital Energies [Eh]
    ---------------------

    Doubly Occupied:                                                      

       1A    -20.572558     2A     -1.343961     3A     -0.698441  
       4A     -0.586823     5A     -0.509448  

    Virtual:                                                              

       6A      0.007056     7A      0.015746     8A      0.016607  
       9A      0.018166    10A      0.036514    11A      0.049404  
      12A      0.050011    13A      0.052502    14A      0.055924  
      15A      0.057576    16A      0.058459    17A      0.059434  
      18A      0.063771    19A      0.077096    20A      0.079500  
      21A      0.080510    22A      0.082565    23A      0.085778  
      24A      0.091203    25A      0.095896    26A      0.096929  
      27A      0.104555    28A      0.110014    29A      0.119117  
      30A      0.121913    31A      0.137317    32A      0.139747  
      33A      0.144198    34A      0.160087    35A      0.163359  
      36A      0.170681    37A      0.172906    38A      0.179406  
      39A      0.184546    40A      0.193093    41A      0.195204  
      42A      0.201231    43A      0.204866    44A      0.207611  
      45A      0.210584    46A      0.216986    47A      0.221269  
      48A      0.228258    49A      0.232805    50A      0.248175  
      51A      0.250492    52A      0.254380    53A      0.262286  
      54A      0.265886    55A      0.268157    56A      0.273416  
      57A      0.276546    58A      0.284368    59A      0.291647  
      60A      0.304267    61A      0.313361    62A      0.315836  
      63A      0.336128    64A      0.341530    65A      0.344644  
      66A      0.346624    67A      0.350231    68A      0.358522  
      69A      0.359912    70A      0.366247    71A      0.372748  
      72A      0.375737    73A      0.379331    74A      0.386614  
      75A      0.389830    76A      0.403287    77A      0.415723  
      78A      0.419760    79A      0.427345    80A      0.432901  
      81A      0.436245    82A      0.436982    83A      0.441727  
      84A      0.443898    85A      0.447885    86A      0.451240  
      87A      0.453438    88A      0.456219    89A      0.459299  
      90A      0.469983    91A      0.472863    92A      0.477582  
      93A      0.480108    94A      0.481115    95A      0.491057  
      96A      0.492577    97A      0.498826    98A      0.506658  
      99A      0.510574   100A      0.514703   101A      0.520382  
     102A      0.523665   103A      0.525287   104A      0.529815  
     105A      0.535095   106A      0.543111   107A      0.546331  
     108A      0.561385   109A      0.564175   110A      0.572044  
     111A      0.577619   112A      0.580115   113A      0.584092  
     114A      0.594165   115A      0.602434   116A      0.627067  
     117A      0.636255   118A      0.645229   119A      0.655757  
     120A      0.666333   121A      0.704906   122A      0.717616  
     123A      0.726304   124A      0.738521   125A      0.744264  
     126A      0.756033   127A      0.765732   128A      0.769438  
     129A      0.773578   130A      0.782215   131A      0.790144  
     132A      0.797540   133A      0.817231   134A      0.822107  
     135A      0.830476   136A      0.832474   137A      0.839469  
     138A      0.856997   139A      0.857593   140A      0.860831  
     141A      0.870766   142A      0.877049   143A      0.880725  
     144A      0.885236   145A      0.891200   146A      0.903968  
     147A      0.905785   148A      0.914073   149A      0.918805  
     150A      0.928302   151A      0.931410   152A      0.937095  
     153A      0.944030   154A      0.948377   155A      0.954555  
     156A      0.963093   157A      0.965353   158A      0.975846  
     159A      0.980622   160A      0.990361   161A      0.996788  
     162A      0.999917   163A      1.004629   164A      1.008849  
     165A      1.011016   166A      1.015809   167A      1.027380  
     168A      1.041588   169A      1.043475   170A      1.051055  
     171A      1.054555   172A      1.059995   173A      1.071991  
     174A      1.072856   175A      1.080287   176A      1.082866  
     177A      1.087322   178A      1.090659   179A      1.094147  
     180A      1.101951   181A      1.104844   182A      1.111750  
     183A      1.114193   184A      1.117564   185A      1.127666  
     186A      1.138888   187A      1.140049   188A      1.158696  
     189A      1.161450   190A      1.168922   191A      1.174667  
     192A      1.179789   193A      1.191411   194A      1.196495  
     195A      1.204333   196A      1.211439   197A      1.212145  
     198A      1.217758   199A      1.225418   200A      1.237848  
     201A      1.245724   202A      1.254207   203A      1.265436  
     204A      1.277361   205A      1.285930   206A      1.297041  
     207A      1.297849   208A      1.305940   209A      1.320347  
     210A      1.325920   211A      1.336404   212A      1.339014  
     213A      1.343299   214A      1.361822   215A      1.371945  
     216A      1.374168   217A      1.378239   218A      1.391192  
     219A      1.393886   220A      1.401167   221A      1.409067  
     222A      1.414572   223A      1.429204   224A      1.432219  
     225A      1.437844   226A      1.446888   227A      1.456504  
     228A      1.466921   229A      1.469862   230A      1.473972  
     231A      1.483987   232A      1.485556   233A      1.514058  
     234A      1.520359   235A      1.524938   236A      1.535011  
     237A      1.546677   238A      1.549013   239A      1.563022  
     240A      1.570979   241A      1.581937   242A      1.597886  
     243A      1.609543   244A      1.613202   245A      1.636160  
     246A      1.640375   247A      1.644940   248A      1.665041  
     249A      1.676713   250A      1.683634   251A      1.691955  
     252A      1.699850   253A      1.717919   254A      1.736712  
     255A      1.742170   256A      1.781549   257A      1.789043  
     258A      1.802121   259A      1.816082   260A      1.835529  
     261A      1.841446   262A      1.860172   263A      1.861676  
     264A      1.876931   265A      1.896244   266A      1.901213  
     267A      1.918366   268A      1.924853   269A      1.940381  
     270A      1.947467   271A      1.959236   272A      1.972728  
     273A      1.980290   274A      1.988937   275A      1.997634  
     276A      2.000214   277A      2.008003   278A      2.017627  
     279A      2.032650   280A      2.037169   281A      2.042253  
     282A      2.047400   283A      2.058757   284A      2.066736  
     285A      2.079180   286A      2.085573   287A      2.103941  
     288A      2.121599   289A      2.134877   290A      2.148038  
     291A      2.161353   292A      2.171577   293A      2.182256  
     294A      2.194132   295A      2.236926   296A      2.337848  
     297A      2.418460   298A      2.471462   299A      2.474049  
     300A      2.499669   301A      2.519339   302A      2.531961  
     303A      2.542583   304A      2.551663   305A      2.571972  
     306A      2.582168   307A      2.599086   308A      2.613025  
     309A      2.614548   310A      2.625787   311A      2.649538  
     312A      2.651959   313A      2.658983   314A      2.671447  
     315A      2.675463   316A      2.688714   317A      2.692999  
     318A      2.709624   319A      2.718537   320A      2.726891  
     321A      2.738601   322A      2.753307   323A      2.765887  
     324A      2.766842   325A      2.779644   326A      2.786085  
     327A      2.799910   328A      2.817505   329A      2.822724  
     330A      2.837253   331A      2.847597   332A      2.867280  
     333A      2.870408   334A      2.905204   335A      2.918372  
     336A      2.947407   337A      2.952539   338A      2.959076  
     339A      2.974064   340A      2.990689   341A      3.008261  
     342A      3.024039   343A      3.024701   344A      3.053118  
     345A      3.070927   346A      3.074915   347A      3.092850  
     348A      3.118195   349A      3.135426   350A      3.160700  
     351A      3.198432   352A      3.214830   353A      3.230391  
     354A      3.246070   355A      3.256699   356A      3.261375  
     357A      3.269014   358A      3.278809   359A      3.289387  
     360A      3.302149   361A      3.312474   362A      3.333145  
     363A      3.347161   364A      3.350320   365A      3.360015  
     366A      3.373678   367A      3.379079   368A      3.386865  
     369A      3.391498   370A      3.399266   371A      3.422773  
     372A      3.431665   373A      3.433288   374A      3.457826  
     375A      3.502234   376A      3.515116   377A      3.516699  
     378A      3.533802   379A      3.666720   380A      3.682184  
     381A      3.691406   382A      3.761301   383A      3.780845  
     384A      3.790881   385A      3.801519   386A      3.842758  
     387A      3.869376   388A      3.887410   389A      3.907542  
     390A      4.003116   391A      4.190697   392A      4.248924  
     393A      4.313593   394A      4.350367   395A      4.398221  
     396A      4.441959   397A      4.458515   398A      4.472955  
     399A      4.491559   400A      4.503685   401A      4.535119  
     402A      4.555715   403A      4.560673   404A      4.561826  
     405A      4.581899   406A      4.594940   407A      4.601809  
     408A      4.611455   409A      4.618377   410A      4.630599  
     411A      4.644109   412A      4.654674   413A      4.665139  
     414A      4.679854   415A      4.693160   416A      4.713041  
     417A      4.727056   418A      4.732604   419A      4.751194  
     420A      4.755596   421A      4.776993   422A      4.783934  
     423A      4.793518   424A      4.809077   425A      4.826723  
     426A      4.832324   427A      4.853228   428A      4.867419  
     429A      4.889642   430A      4.905351   431A      4.947995  
     432A      5.025609   433A      5.039027   434A      5.056930  
     435A      5.067993   436A      5.093527   437A      5.112197  
     438A      5.112745   439A      5.145257   440A      5.150597  
     441A      5.155766   442A      5.180773   443A      5.192074  
     444A      5.195725   445A      5.208244   446A      5.217083  
     447A      5.240743   448A      5.242951   449A      5.250848  
     450A      5.280634   451A      5.292225   452A      5.301523  
     453A      5.317939   454A      5.330381   455A      5.402914  
     456A      5.425247   457A      5.475065   458A      5.492241  
     459A      5.496390   460A      5.507796   461A      5.526993  
     462A      5.571828   463A      5.582272   464A      5.613240  
     465A      5.624417   466A      5.631889   467A      5.642051  
     468A      5.673364   469A      5.688988   470A      5.709865  
     471A      5.717763   472A      5.750971   473A      5.783641  
     474A      5.864825   475A      5.888739   476A      5.931833  
     477A      5.952763   478A      6.146492   479A      6.228452  
     480A      6.241706   481A      6.269135   482A      6.319942  
     483A      6.351796   484A      6.365147   485A      6.386848  
     486A      6.395307   487A      6.421628   488A      6.455461  
     489A      6.509029   490A      6.616270   491A      6.656213  
     492A      6.683865   493A      6.734984   494A      6.768795  
     495A      6.787550   496A      6.846971   497A      6.942409  
     498A      6.993854   499A      7.022631   500A      7.041284  
     501A      7.056125   502A      7.075899   503A      7.175529  
     504A      7.257695   505A      7.282492   506A      7.369912  
     507A      7.455413   508A      7.480718   509A      7.585638  
     510A      7.641271   511A      7.669291   512A      7.719068  
     513A      7.751951   514A      7.771074   515A      7.798742  
     516A      7.819821   517A      7.829779   518A      7.859768  
     519A      7.863350   520A      7.875397   521A      7.926890  
     522A      7.938776   523A      7.955023   524A      8.032802  
     525A      8.114711   526A      8.119184   527A      8.146760  
     528A      8.159691   529A      8.172602   530A      8.203511  
     531A      8.214816   532A      8.217098   533A      8.238734  
     534A      8.252709   535A      8.259466   536A      8.283484  
     537A      8.313766   538A      8.321764   539A      8.341344  
     540A      8.625755   541A      8.668387   542A      8.697101  
     543A      8.720809   544A      8.757666   545A      8.764345  
     546A      8.790751   547A      8.798244   548A      8.812893  
     549A      8.830156   550A      8.857630   551A      9.920931  
     552A      9.932605   553A      9.969141   554A      9.989274  
     555A     10.012394   556A     10.017872   557A     10.028104  
     558A     10.030259   559A     10.044258   560A     10.067985  
     561A     10.077045   562A     10.087008   563A     10.102118  
     564A     10.113717   565A     10.124898   566A     10.218373  
     567A     10.240432   568A     10.250807   569A     10.269732  
     570A     10.286217   571A     10.966585   572A     11.088907  
     573A     11.102921   574A     11.122916   575A     11.142896  
     576A     11.833000   577A     11.854661   578A     11.919216  
     579A     11.945846   580A     11.963497   581A     12.006656  
     582A     12.052548   583A     12.087792   584A     12.119163  
     585A     12.155801   586A     13.401786   587A     13.528593  
     588A     13.551549   589A     13.599733   590A     13.619842  
     591A     13.977658   592A     13.993218   593A     14.000309  
     594A     14.064454   595A     14.089536   596A     15.826317  
     597A     63.702386   598A     64.626841   599A     64.851975  
     600A     64.928133   601A     65.059815   602A     65.219290  

    Final Occupation by Irrep:
              A 
    DOCC [     5 ]
    NA   [     5 ]
    NB   [     5 ]

  @DF-RHF Final Energy:   -76.05761801149048

   => Energetics <=

    Nuclear Repulsion Energy =              8.9808750528461250
    One-Electron Energy =                -122.6545206523971387
    Two-Electron Energy =                  37.6160275880605326
    Total Energy =                        -76.0576180114904759

Computation Completed


Properties will be evaluated at   0.000000,   0.000000,   0.000000 [a0]

Properties computed using the SCF density matrix


 Multipole Moments:

 ------------------------------------------------------------------------------------
     Multipole            Electronic (a.u.)      Nuclear  (a.u.)        Total (a.u.)
 ------------------------------------------------------------------------------------

 L = 1.  Multiply by 2.5417464519 to convert [e a0] to [Debye]
 Dipole X            :        -41.9704010           42.5762326            0.6058316
 Dipole Y            :         13.1390038          -12.7357299            0.4032740
 Dipole Z            :         -3.9548551            3.6017122           -0.3531430
 Magnitude           :                                                    0.8089325

 ------------------------------------------------------------------------------------

*** tstop() called on ddmfs1 at Mon Jan 22 14:23:00 2024
Module time:
	user time   =     134.76 seconds =       2.25 minutes
	system time =       7.52 seconds =       0.13 minutes
	total time  =          9 seconds =       0.15 minutes
Total time:
	user time   =     134.76 seconds =       2.25 minutes
	system time =       7.52 seconds =       0.13 minutes
	total time  =          9 seconds =       0.15 minutes

*** tstart() called on ddmfs1
*** at Mon Jan 22 14:23:00 2024


  //>>>>>>>>>>>>>>>>>>>>>>>>>>>>>>>>>>>//
  //               DFMP2               //
  //<<<<<<<<<<<<<<<<<<<<<<<<<<<<<<<<<<<//

   => Loading Basis Set <=

    Name: (AUG-CC-PVTZ AUX)
    Role: RIFIT
    Keyword: DF_BASIS_MP2
    atoms 1                                   entry NA         line   610 file /ddmfs1b/softs/psi4conda/share/psi4/basis/def2-qzvpp-ri.gbs 
    atoms 2, 5, 8, 11, 14, 17                 entry O          line   264 file /ddmfs1b/softs/psi4conda/share/psi4/basis/aug-cc-pvtz-ri.gbs 
    atoms 3-4, 6-7, 9-10, 12-13, 15-16, 18-19 entry H          line    30 file /ddmfs1b/softs/psi4conda/share/psi4/basis/aug-cc-pvtz-ri.gbs 

	 --------------------------------------------------------
	                          DF-MP2                         
	      2nd-Order Density-Fitted Moller-Plesset Theory     
	              RMP2 Wavefunction,  20 Threads             
	                                                         
	        Rob Parrish, Justin Turney, Andy Simmonett,      
	           Ed Hohenstein, and C. David Sherrill          
	 --------------------------------------------------------

   => Auxiliary Basis Set <=

  Basis Set: (AUG-CC-PVTZ AUX)
    Blend: AUG-CC-PVTZ-RI + DEF2-QZVPP-RI
    Number of shells: 378
    Number of basis functions: 1354
    Number of Cartesian functions: 1690
    Spherical Harmonics?: true
    Max angular momentum: 4

	 --------------------------------------------------------
	                 NBF =   602, NAUX =  1354
	 --------------------------------------------------------
	   CLASS    FOCC     OCC    AOCC    AVIR     VIR    FVIR
	   PAIRS       0       5       5     597     597       0
	 --------------------------------------------------------

	-----------------------------------------------------------
	 ==================> DF-MP2 Energies <==================== 
	-----------------------------------------------------------
	 Reference Energy          =     -76.0576180114904759 [Eh]
	 Singles Energy            =      -0.0000000000000000 [Eh]
	 Same-Spin Energy          =      -0.0689417021873466 [Eh]
	 Opposite-Spin Energy      =      -0.2176183142858331 [Eh]
	 Correlation Energy        =      -0.2865600164731797 [Eh]
	 Total Energy              =     -76.3441780279636504 [Eh]
	-----------------------------------------------------------
	 ================> DF-SCS-MP2 Energies <================== 
	-----------------------------------------------------------
	 SCS Same-Spin Scale       =       0.3333333333333333 [-]
	 SCS Opposite-Spin Scale   =       1.2000000000000000 [-]
	 SCS Same-Spin Energy      =      -0.0229805673957822 [Eh]
	 SCS Opposite-Spin Energy  =      -0.2611419771429997 [Eh]
	 SCS Correlation Energy    =      -0.2841225445387819 [Eh]
	 SCS Total Energy          =     -76.3417405560292508 [Eh]
	-----------------------------------------------------------


*** tstop() called on ddmfs1 at Mon Jan 22 14:23:09 2024
Module time:
	user time   =      37.79 seconds =       0.63 minutes
	system time =       2.46 seconds =       0.04 minutes
	total time  =          9 seconds =       0.15 minutes
Total time:
	user time   =     172.57 seconds =       2.88 minutes
	system time =       9.98 seconds =       0.17 minutes
	total time  =         18 seconds =       0.30 minutes

    Psi4 stopped on: Monday, 22 January 2024 02:23PM
    Psi4 wall time for execution: 0:00:17.93

*** Psi4 exiting successfully. Buy a developer a beer!
