
    -----------------------------------------------------------------------
          Psi4: An Open-Source Ab Initio Electronic Structure Package
                               Psi4 1.8.2 release

                         Git: Rev {} zzzzzzz 


    D. G. A. Smith, L. A. Burns, A. C. Simmonett, R. M. Parrish,
    M. C. Schieber, R. Galvelis, P. Kraus, H. Kruse, R. Di Remigio,
    A. Alenaizan, A. M. James, S. Lehtola, J. P. Misiewicz, M. Scheurer,
    R. A. Shaw, J. B. Schriber, Y. Xie, Z. L. Glick, D. A. Sirianni,
    J. S. O'Brien, J. M. Waldrop, A. Kumar, E. G. Hohenstein,
    B. P. Pritchard, B. R. Brooks, H. F. Schaefer III, A. Yu. Sokolov,
    K. Patkowski, A. E. DePrince III, U. Bozkaya, R. A. King,
    F. A. Evangelista, J. M. Turney, T. D. Crawford, C. D. Sherrill,
    J. Chem. Phys. 152(18) 184108 (2020). https://doi.org/10.1063/5.0006002

                            Additional Code Authors
    E. T. Seidl, C. L. Janssen, E. F. Valeev, M. L. Leininger,
    J. F. Gonthier, R. M. Richard, H. R. McAlexander, M. Saitow, X. Wang,
    P. Verma, M. H. Lechner, A. Jiang, S. Behnle, A. G. Heide,
    M. F. Herbst, and D. L. Poole

             Previous Authors, Complete List of Code Contributors,
                       and Citations for Specific Modules
    https://github.com/psi4/psi4/blob/master/codemeta.json
    https://github.com/psi4/psi4/graphs/contributors
    http://psicode.org/psi4manual/master/introduction.html#citing-psifour

    -----------------------------------------------------------------------


    Psi4 started on: Monday, 22 January 2024 03:52PM

    Process ID: 74632
    Host:       ddmfs1
    PSIDATADIR: /ddmfs1b/softs/psi4conda/share/psi4
    Memory:     500.0 MiB
    Threads:    20
    
  ==> Input File <==

--------------------------------------------------------------------------
MEMORY 60 GB

molecule dimer {
0 1
Gh(Na)     0.000000     0.000000     0.000000
Gh(O)     -0.763534     0.932846     2.231461
Gh(H)     -0.733128     1.900005     2.285331
Gh(H)     -0.178159     0.502091     2.866138
O          0.452399     2.241951    -0.962680
H          1.205593     2.615208    -0.515886
H          0.800151     2.215705    -1.892096
Gh(O)      0.346113    -2.463872     0.347284
Gh(H)      0.268206    -3.107115    -0.361290
Gh(H)     -0.089641    -3.005871     1.016265
Gh(O)      2.050775    -0.213605    -1.193701
Gh(H)      2.004919    -1.173998    -1.292082
Gh(H)      2.563798    -0.024846    -0.341802
Gh(O)     -1.677611    -0.559730    -1.506099
Gh(H)     -2.457862    -0.155870    -2.009591
Gh(H)     -1.026711    -0.660387    -2.183118

units ang
no_reorient
no_com
symmetry c1
}

set {
basis        aug-cc-pVTZ
scf_type     df
}

energy("mp2")
--------------------------------------------------------------------------

  Memory set to  55.879 GiB by Python driver.

Scratch directory: /ddmfs1a/scratch/
   => Libint2 <=

    Primary   basis highest AM E, G, H:  5, 4, 3
    Auxiliary basis highest AM E, G, H:  6, 5, 4
    Onebody   basis highest AM E, G, H:  6, 5, 4
    Solid Harmonics ordering:            gaussian

*** tstart() called on ddmfs1
*** at Mon Jan 22 15:52:12 2024

   => Loading Basis Set <=

    Name: AUG-CC-PVTZ
    Role: ORBITAL
    Keyword: BASIS
    atoms 1                            entry NA         line   469 file /ddmfs1b/softs/psi4conda/share/psi4/basis/aug-cc-pvtz.gbs 
    atoms 2, 5, 8, 11, 14              entry O          line   331 file /ddmfs1b/softs/psi4conda/share/psi4/basis/aug-cc-pvtz.gbs 
    atoms 3-4, 6-7, 9-10, 12-13, 15-16 entry H          line    40 file /ddmfs1b/softs/psi4conda/share/psi4/basis/aug-cc-pvtz.gbs 


         ---------------------------------------------------------
                                   SCF
               by Justin Turney, Rob Parrish, Andy Simmonett
                          and Daniel G. A. Smith
                              RHF Reference
                       20 Threads,  57220 MiB Core
         ---------------------------------------------------------

  ==> Geometry <==

    Molecular point group: c1
    Full point group: C1

    Geometry (in Angstrom), charge = 0, multiplicity = 1:

       Center              X                  Y                   Z               Mass       
    ------------   -----------------  -----------------  -----------------  -----------------
      Gh(NA)          0.000000000000     0.000000000000     0.000000000000    22.989769282000
      Gh(O)          -0.763534000000     0.932846000000     2.231461000000    15.994914619570
      Gh(H)          -0.733128000000     1.900005000000     2.285331000000     1.007825032230
      Gh(H)          -0.178159000000     0.502091000000     2.866138000000     1.007825032230
         O            0.452399000000     2.241951000000    -0.962680000000    15.994914619570
         H            1.205593000000     2.615208000000    -0.515886000000     1.007825032230
         H            0.800151000000     2.215705000000    -1.892096000000     1.007825032230
      Gh(O)           0.346113000000    -2.463872000000     0.347284000000    15.994914619570
      Gh(H)           0.268206000000    -3.107115000000    -0.361290000000     1.007825032230
      Gh(H)          -0.089641000000    -3.005871000000     1.016265000000     1.007825032230
      Gh(O)           2.050775000000    -0.213605000000    -1.193701000000    15.994914619570
      Gh(H)           2.004919000000    -1.173998000000    -1.292082000000     1.007825032230
      Gh(H)           2.563798000000    -0.024846000000    -0.341802000000     1.007825032230
      Gh(O)          -1.677611000000    -0.559730000000    -1.506099000000    15.994914619570
      Gh(H)          -2.457862000000    -0.155870000000    -2.009591000000     1.007825032230
      Gh(H)          -1.026711000000    -0.660387000000    -2.183118000000     1.007825032230

  Running in c1 symmetry.

  Rotational constants: A =      0.05082  B =      0.04643  C =      0.03861 [cm^-1]
  Rotational constants: A =   1523.60812  B =   1391.90464  C =   1157.46638 [MHz]
  Nuclear repulsion =    9.066922635041962

  Charge       = 0
  Multiplicity = 1
  Electrons    = 10
  Nalpha       = 5
  Nbeta        = 5

  ==> Algorithm <==

  SCF Algorithm Type is DF.
  DIIS enabled.
  MOM disabled.
  Fractional occupation disabled.
  Guess Type is SAD.
  Energy threshold   = 1.00e-08
  Density threshold  = 1.00e-08
  Integral threshold = 1.00e-12

  ==> Primary Basis <==

  Basis Set: AUG-CC-PVTZ
    Blend: AUG-CC-PVTZ
    Number of shells: 176
    Number of basis functions: 510
    Number of Cartesian functions: 584
    Spherical Harmonics?: true
    Max angular momentum: 3

   => Loading Basis Set <=

    Name: (AUG-CC-PVTZ AUX)
    Role: JKFIT
    Keyword: DF_BASIS_SCF
    atoms 1                            entry NA         line   498 file /ddmfs1b/softs/psi4conda/share/psi4/basis/def2-universal-jkfit.gbs 
    atoms 2, 5, 8, 11, 14              entry O          line   286 file /ddmfs1b/softs/psi4conda/share/psi4/basis/aug-cc-pvtz-jkfit.gbs 
    atoms 3-4, 6-7, 9-10, 12-13, 15-16 entry H          line    70 file /ddmfs1b/softs/psi4conda/share/psi4/basis/aug-cc-pvtz-jkfit.gbs 

  ==> Integral Setup <==

  DFHelper Memory: AOs need 2.029 GiB; user supplied 41.910 GiB. 
  Using in-core AOs.

  ==> MemDFJK: Density-Fitted J/K Matrices <==

    J tasked:                   Yes
    K tasked:                   Yes
    wK tasked:                   No
    OpenMP threads:              20
    Memory [MiB]:             42915
    Algorithm:                 Core
    Schwarz Cutoff:           1E-12
    Mask sparsity (%):       8.8374
    Fitting Condition:        1E-10

   => Auxiliary Basis Set <=

  Basis Set: (AUG-CC-PVTZ AUX)
    Blend: AUG-CC-PVTZ-JKFIT + DEF2-UNIVERSAL-JKFIT
    Number of shells: 324
    Number of basis functions: 1092
    Number of Cartesian functions: 1342
    Spherical Harmonics?: true
    Max angular momentum: 4

  Minimum eigenvalue in the overlap matrix is 3.9417663082E-05.
  Reciprocal condition number of the overlap matrix is 2.8464290153E-06.
    Using symmetric orthogonalization.

  ==> Pre-Iterations <==

  SCF Guess: Superposition of Atomic Densities via on-the-fly atomic UHF (no occupation information).

   -------------------------
    Irrep   Nso     Nmo    
   -------------------------
     A        510     510 
   -------------------------
    Total     510     510
   -------------------------

  ==> Iterations <==

                           Total Energy        Delta E     RMS |[F,P]|

   @DF-RHF iter SAD:   -75.46503137734764   -7.54650e+01   0.00000e+00 
   @DF-RHF iter   1:   -75.97220098960111   -5.07170e-01   9.17856e-04 ADIIS/DIIS
   @DF-RHF iter   2:   -76.02450787507280   -5.23069e-02   6.38011e-04 ADIIS/DIIS
   @DF-RHF iter   3:   -76.05741149798030   -3.29036e-02   4.33610e-05 DIIS
   @DF-RHF iter   4:   -76.05781810549394   -4.06608e-04   1.07479e-05 DIIS
   @DF-RHF iter   5:   -76.05784604260153   -2.79371e-05   2.52288e-06 DIIS
   @DF-RHF iter   6:   -76.05784843660108   -2.39400e-06   5.47307e-07 DIIS
   @DF-RHF iter   7:   -76.05784855782747   -1.21226e-07   9.22059e-08 DIIS
   @DF-RHF iter   8:   -76.05784856078672   -2.95925e-09   1.56077e-08 DIIS
   @DF-RHF iter   9:   -76.05784856085279   -6.60663e-11   3.80170e-09 DIIS
  Energy and wave function converged.


  ==> Post-Iterations <==

    Orbital Energies [Eh]
    ---------------------

    Doubly Occupied:                                                      

       1A    -20.571507     2A     -1.349456     3A     -0.700803  
       4A     -0.590694     5A     -0.510498  

    Virtual:                                                              

       6A      0.007442     7A      0.016166     8A      0.016761  
       9A      0.018276    10A      0.038914    11A      0.051698  
      12A      0.052917    13A      0.053557    14A      0.056793  
      15A      0.057526    16A      0.058431    17A      0.059820  
      18A      0.065881    19A      0.079849    20A      0.080681  
      21A      0.085743    22A      0.085813    23A      0.090027  
      24A      0.091600    25A      0.100540    26A      0.109169  
      27A      0.116532    28A      0.118316    29A      0.135923  
      30A      0.138477    31A      0.148247    32A      0.158488  
      33A      0.161542    34A      0.170330    35A      0.175367  
      36A      0.177210    37A      0.182450    38A      0.196994  
      39A      0.198177    40A      0.205683    41A      0.210487  
      42A      0.213340    43A      0.216172    44A      0.225357  
      45A      0.226389    46A      0.230828    47A      0.236406  
      48A      0.252152    49A      0.261348    50A      0.268284  
      51A      0.272682    52A      0.284521    53A      0.290270  
      54A      0.292525    55A      0.295619    56A      0.304918  
      57A      0.320196    58A      0.324259    59A      0.333888  
      60A      0.334648    61A      0.345090    62A      0.349721  
      63A      0.350562    64A      0.359005    65A      0.359599  
      66A      0.366469    67A      0.377769    68A      0.378482  
      69A      0.389251    70A      0.398638    71A      0.406134  
      72A      0.411083    73A      0.419159    74A      0.422111  
      75A      0.428534    76A      0.432566    77A      0.435401  
      78A      0.447491    79A      0.452434    80A      0.453508  
      81A      0.458853    82A      0.465216    83A      0.466093  
      84A      0.468310    85A      0.473196    86A      0.476274  
      87A      0.480741    88A      0.485680    89A      0.489007  
      90A      0.493846    91A      0.499095    92A      0.509741  
      93A      0.512334    94A      0.519812    95A      0.526635  
      96A      0.532471    97A      0.534981    98A      0.540570  
      99A      0.552677   100A      0.566582   101A      0.568868  
     102A      0.578917   103A      0.591180   104A      0.605547  
     105A      0.625205   106A      0.633757   107A      0.656428  
     108A      0.690644   109A      0.713897   110A      0.725458  
     111A      0.732444   112A      0.742191   113A      0.748563  
     114A      0.753180   115A      0.763359   116A      0.772896  
     117A      0.780651   118A      0.794618   119A      0.799355  
     120A      0.806430   121A      0.819415   122A      0.824162  
     123A      0.832801   124A      0.840385   125A      0.846799  
     126A      0.856604   127A      0.861393   128A      0.867043  
     129A      0.870736   130A      0.874443   131A      0.883345  
     132A      0.886448   133A      0.888615   134A      0.904997  
     135A      0.913815   136A      0.924878   137A      0.935338  
     138A      0.937623   139A      0.938462   140A      0.942312  
     141A      0.947975   142A      0.956543   143A      0.965442  
     144A      0.974804   145A      0.982667   146A      0.989751  
     147A      0.991411   148A      0.998936   149A      1.002253  
     150A      1.012185   151A      1.020680   152A      1.025883  
     153A      1.034788   154A      1.048195   155A      1.049919  
     156A      1.052473   157A      1.061004   158A      1.067872  
     159A      1.073114   160A      1.077669   161A      1.087529  
     162A      1.092362   163A      1.104595   164A      1.109296  
     165A      1.114607   166A      1.122093   167A      1.130374  
     168A      1.138230   169A      1.146662   170A      1.150016  
     171A      1.156534   172A      1.168342   173A      1.176818  
     174A      1.183997   175A      1.192104   176A      1.194843  
     177A      1.200566   178A      1.217547   179A      1.229737  
     180A      1.236403   181A      1.248495   182A      1.251122  
     183A      1.261586   184A      1.269135   185A      1.275594  
     186A      1.281438   187A      1.294121   188A      1.297812  
     189A      1.303646   190A      1.313463   191A      1.322146  
     192A      1.334267   193A      1.345699   194A      1.348305  
     195A      1.360463   196A      1.369940   197A      1.381587  
     198A      1.388551   199A      1.410972   200A      1.421502  
     201A      1.426323   202A      1.438507   203A      1.466113  
     204A      1.468355   205A      1.475203   206A      1.476570  
     207A      1.501894   208A      1.507283   209A      1.511353  
     210A      1.528062   211A      1.534369   212A      1.552153  
     213A      1.580458   214A      1.584255   215A      1.592740  
     216A      1.621757   217A      1.623054   218A      1.658215  
     219A      1.667434   220A      1.686805   221A      1.706763  
     222A      1.720944   223A      1.729682   224A      1.745511  
     225A      1.760658   226A      1.771348   227A      1.810428  
     228A      1.822287   229A      1.847119   230A      1.857799  
     231A      1.884098   232A      1.889293   233A      1.898704  
     234A      1.901098   235A      1.909051   236A      1.916173  
     237A      1.920640   238A      1.935105   239A      1.966375  
     240A      1.975874   241A      1.982942   242A      1.987548  
     243A      1.990480   244A      1.997550   245A      2.021739  
     246A      2.026315   247A      2.049354   248A      2.057325  
     249A      2.069496   250A      2.076771   251A      2.111930  
     252A      2.135999   253A      2.164875   254A      2.198309  
     255A      2.220455   256A      2.390753   257A      2.430201  
     258A      2.447822   259A      2.452923   260A      2.499081  
     261A      2.500574   262A      2.518369   263A      2.534423  
     264A      2.548111   265A      2.562290   266A      2.571823  
     267A      2.583007   268A      2.608638   269A      2.611768  
     270A      2.626057   271A      2.632891   272A      2.638517  
     273A      2.648332   274A      2.655699   275A      2.668055  
     276A      2.678492   277A      2.695257   278A      2.701221  
     279A      2.717372   280A      2.729637   281A      2.741341  
     282A      2.761127   283A      2.781658   284A      2.786967  
     285A      2.809483   286A      2.814526   287A      2.845191  
     288A      2.861370   289A      2.878107   290A      2.888066  
     291A      2.901108   292A      2.929971   293A      2.936771  
     294A      2.967645   295A      2.976699   296A      2.985436  
     297A      3.007914   298A      3.023328   299A      3.039935  
     300A      3.055580   301A      3.084685   302A      3.112568  
     303A      3.126420   304A      3.208985   305A      3.223611  
     306A      3.241229   307A      3.263428   308A      3.272303  
     309A      3.282785   310A      3.290836   311A      3.302864  
     312A      3.312226   313A      3.326883   314A      3.365217  
     315A      3.375176   316A      3.381779   317A      3.395093  
     318A      3.406205   319A      3.417066   320A      3.434436  
     321A      3.458402   322A      3.463813   323A      3.508666  
     324A      3.609281   325A      3.656793   326A      3.667105  
     327A      3.713382   328A      3.749936   329A      3.754660  
     330A      3.803675   331A      3.840549   332A      3.862404  
     333A      3.887615   334A      4.148047   335A      4.217549  
     336A      4.287222   337A      4.305105   338A      4.401496  
     339A      4.408796   340A      4.428712   341A      4.454580  
     342A      4.486767   343A      4.495379   344A      4.507610  
     345A      4.511849   346A      4.537978   347A      4.554871  
     348A      4.564023   349A      4.579091   350A      4.589870  
     351A      4.595962   352A      4.605863   353A      4.611946  
     354A      4.632116   355A      4.650974   356A      4.681253  
     357A      4.687944   358A      4.712798   359A      4.733115  
     360A      4.742734   361A      4.761881   362A      4.776209  
     363A      4.801457   364A      4.812861   365A      4.820458  
     366A      4.827590   367A      4.863921   368A      4.914265  
     369A      4.960314   370A      4.974047   371A      5.008815  
     372A      5.027573   373A      5.035440   374A      5.054244  
     375A      5.062094   376A      5.077386   377A      5.107985  
     378A      5.133779   379A      5.136269   380A      5.170654  
     381A      5.179926   382A      5.200244   383A      5.214035  
     384A      5.249483   385A      5.281039   386A      5.307069  
     387A      5.332481   388A      5.373121   389A      5.442212  
     390A      5.496531   391A      5.511342   392A      5.522597  
     393A      5.550341   394A      5.574454   395A      5.582893  
     396A      5.666189   397A      5.690182   398A      5.709274  
     399A      5.715074   400A      5.717214   401A      5.743371  
     402A      5.757130   403A      5.777328   404A      5.834959  
     405A      5.911930   406A      5.973492   407A      5.997647  
     408A      6.224630   409A      6.237913   410A      6.260223  
     411A      6.276452   412A      6.303721   413A      6.338826  
     414A      6.356076   415A      6.393887   416A      6.427158  
     417A      6.596349   418A      6.610877   419A      6.678270  
     420A      6.726728   421A      6.781953   422A      6.867919  
     423A      6.975457   424A      7.013349   425A      7.064752  
     426A      7.089582   427A      7.112205   428A      7.135755  
     429A      7.170148   430A      7.215261   431A      7.249453  
     432A      7.265616   433A      7.361623   434A      7.433697  
     435A      7.438320   436A      7.512104   437A      7.625641  
     438A      7.722201   439A      7.742835   440A      7.749285  
     441A      7.761676   442A      7.797014   443A      7.853640  
     444A      7.874736   445A      7.892096   446A      7.982423  
     447A      8.008600   448A      8.086596   449A      8.092719  
     450A      8.096647   451A      8.144658   452A      8.152325  
     453A      8.178003   454A      8.224630   455A      8.268812  
     456A      8.307638   457A      8.322742   458A      8.326346  
     459A      8.348686   460A      8.675584   461A      8.686374  
     462A      8.748854   463A      8.758929   464A      8.767350  
     465A      8.820858   466A      8.838109   467A      8.857179  
     468A      8.963897   469A      9.861221   470A      9.886150  
     471A      9.890457   472A      9.936003   473A      9.985314  
     474A     10.005088   475A     10.016647   476A     10.032833  
     477A     10.047856   478A     10.069702   479A     10.073404  
     480A     10.111091   481A     10.169890   482A     10.219404  
     483A     10.272727   484A     10.287469   485A     11.000666  
     486A     11.068156   487A     11.106876   488A     11.326218  
     489A     11.822112   490A     11.838251   491A     11.877957  
     492A     11.934275   493A     12.071224   494A     12.180148  
     495A     12.183694   496A     12.223238   497A     13.478297  
     498A     13.522560   499A     13.560481   500A     13.683418  
     501A     13.872876   502A     13.951357   503A     14.003831  
     504A     14.045953   505A     15.856516   506A     64.296342  
     507A     64.776972   508A     64.974767   509A     65.168791  
     510A     65.289756  

    Final Occupation by Irrep:
              A 
    DOCC [     5 ]
    NA   [     5 ]
    NB   [     5 ]

  @DF-RHF Final Energy:   -76.05784856085279

   => Energetics <=

    Nuclear Repulsion Energy =              9.0669226350419621
    One-Electron Energy =                -122.8036225901816749
    Two-Electron Energy =                  37.6788513942869372
    Total Energy =                        -76.0578485608527757

Computation Completed


Properties will be evaluated at   0.000000,   0.000000,   0.000000 [a0]

Properties computed using the SCF density matrix


 Multipole Moments:

 ------------------------------------------------------------------------------------
     Multipole            Electronic (a.u.)      Nuclear  (a.u.)        Total (a.u.)
 ------------------------------------------------------------------------------------

 L = 1.  Multiply by 2.5417464519 to convert [e a0] to [Debye]
 Dipole X            :         -9.9114428           10.6295885            0.7181457
 Dipole Y            :        -42.7944346           43.0224895            0.2280549
 Dipole Z            :         18.7974243          -19.1040389           -0.3066145
 Magnitude           :                                                    0.8134831

 ------------------------------------------------------------------------------------

*** tstop() called on ddmfs1 at Mon Jan 22 15:52:18 2024
Module time:
	user time   =      92.06 seconds =       1.53 minutes
	system time =       5.74 seconds =       0.10 minutes
	total time  =          6 seconds =       0.10 minutes
Total time:
	user time   =      92.06 seconds =       1.53 minutes
	system time =       5.74 seconds =       0.10 minutes
	total time  =          6 seconds =       0.10 minutes

*** tstart() called on ddmfs1
*** at Mon Jan 22 15:52:18 2024


  //>>>>>>>>>>>>>>>>>>>>>>>>>>>>>>>>>>>//
  //               DFMP2               //
  //<<<<<<<<<<<<<<<<<<<<<<<<<<<<<<<<<<<//

   => Loading Basis Set <=

    Name: (AUG-CC-PVTZ AUX)
    Role: RIFIT
    Keyword: DF_BASIS_MP2
    atoms 1                            entry NA         line   610 file /ddmfs1b/softs/psi4conda/share/psi4/basis/def2-qzvpp-ri.gbs 
    atoms 2, 5, 8, 11, 14              entry O          line   264 file /ddmfs1b/softs/psi4conda/share/psi4/basis/aug-cc-pvtz-ri.gbs 
    atoms 3-4, 6-7, 9-10, 12-13, 15-16 entry H          line    30 file /ddmfs1b/softs/psi4conda/share/psi4/basis/aug-cc-pvtz-ri.gbs 

	 --------------------------------------------------------
	                          DF-MP2                         
	      2nd-Order Density-Fitted Moller-Plesset Theory     
	              RMP2 Wavefunction,  20 Threads             
	                                                         
	        Rob Parrish, Justin Turney, Andy Simmonett,      
	           Ed Hohenstein, and C. David Sherrill          
	 --------------------------------------------------------

   => Auxiliary Basis Set <=

  Basis Set: (AUG-CC-PVTZ AUX)
    Blend: AUG-CC-PVTZ-RI + DEF2-QZVPP-RI
    Number of shells: 322
    Number of basis functions: 1156
    Number of Cartesian functions: 1444
    Spherical Harmonics?: true
    Max angular momentum: 4

	 --------------------------------------------------------
	                 NBF =   510, NAUX =  1156
	 --------------------------------------------------------
	   CLASS    FOCC     OCC    AOCC    AVIR     VIR    FVIR
	   PAIRS       0       5       5     505     505       0
	 --------------------------------------------------------

	-----------------------------------------------------------
	 ==================> DF-MP2 Energies <==================== 
	-----------------------------------------------------------
	 Reference Energy          =     -76.0578485608527899 [Eh]
	 Singles Energy            =      -0.0000000000000000 [Eh]
	 Same-Spin Energy          =      -0.0687820045163116 [Eh]
	 Opposite-Spin Energy      =      -0.2168967884326291 [Eh]
	 Correlation Energy        =      -0.2856787929489407 [Eh]
	 Total Energy              =     -76.3435273538017327 [Eh]
	-----------------------------------------------------------
	 ================> DF-SCS-MP2 Energies <================== 
	-----------------------------------------------------------
	 SCS Same-Spin Scale       =       0.3333333333333333 [-]
	 SCS Opposite-Spin Scale   =       1.2000000000000000 [-]
	 SCS Same-Spin Energy      =      -0.0229273348387705 [Eh]
	 SCS Opposite-Spin Energy  =      -0.2602761461191549 [Eh]
	 SCS Correlation Energy    =      -0.2832034809579254 [Eh]
	 SCS Total Energy          =     -76.3410520418107126 [Eh]
	-----------------------------------------------------------


*** tstop() called on ddmfs1 at Mon Jan 22 15:52:25 2024
Module time:
	user time   =      28.92 seconds =       0.48 minutes
	system time =       1.91 seconds =       0.03 minutes
	total time  =          7 seconds =       0.12 minutes
Total time:
	user time   =     121.00 seconds =       2.02 minutes
	system time =       7.65 seconds =       0.13 minutes
	total time  =         13 seconds =       0.22 minutes

    Psi4 stopped on: Monday, 22 January 2024 03:52PM
    Psi4 wall time for execution: 0:00:13.33

*** Psi4 exiting successfully. Buy a developer a beer!
