
    -----------------------------------------------------------------------
          Psi4: An Open-Source Ab Initio Electronic Structure Package
                               Psi4 1.8.2 release

                         Git: Rev {} zzzzzzz 


    D. G. A. Smith, L. A. Burns, A. C. Simmonett, R. M. Parrish,
    M. C. Schieber, R. Galvelis, P. Kraus, H. Kruse, R. Di Remigio,
    A. Alenaizan, A. M. James, S. Lehtola, J. P. Misiewicz, M. Scheurer,
    R. A. Shaw, J. B. Schriber, Y. Xie, Z. L. Glick, D. A. Sirianni,
    J. S. O'Brien, J. M. Waldrop, A. Kumar, E. G. Hohenstein,
    B. P. Pritchard, B. R. Brooks, H. F. Schaefer III, A. Yu. Sokolov,
    K. Patkowski, A. E. DePrince III, U. Bozkaya, R. A. King,
    F. A. Evangelista, J. M. Turney, T. D. Crawford, C. D. Sherrill,
    J. Chem. Phys. 152(18) 184108 (2020). https://doi.org/10.1063/5.0006002

                            Additional Code Authors
    E. T. Seidl, C. L. Janssen, E. F. Valeev, M. L. Leininger,
    J. F. Gonthier, R. M. Richard, H. R. McAlexander, M. Saitow, X. Wang,
    P. Verma, M. H. Lechner, A. Jiang, S. Behnle, A. G. Heide,
    M. F. Herbst, and D. L. Poole

             Previous Authors, Complete List of Code Contributors,
                       and Citations for Specific Modules
    https://github.com/psi4/psi4/blob/master/codemeta.json
    https://github.com/psi4/psi4/graphs/contributors
    http://psicode.org/psi4manual/master/introduction.html#citing-psifour

    -----------------------------------------------------------------------


    Psi4 started on: Monday, 22 January 2024 03:42PM

    Process ID: 73726
    Host:       ddmfs1
    PSIDATADIR: /ddmfs1b/softs/psi4conda/share/psi4
    Memory:     500.0 MiB
    Threads:    20
    
  ==> Input File <==

--------------------------------------------------------------------------
MEMORY 60 GB

molecule dimer {
0 1
Gh(Na)     0.000000     0.000000     0.000000
Gh(O)     -1.476289     1.000580    -1.680201
Gh(H)     -1.347957     0.330310    -2.372440
Gh(H)     -2.429876     1.119469    -1.591365
O          2.003211     0.161049    -1.174825
H          2.679153     0.338854    -0.470757
H          1.973185     0.976483    -1.680248
Gh(O)     -0.163112     1.557536     1.551695
Gh(H)      0.623683     2.047554     1.538014
Gh(H)     -0.465897     1.324097     2.431350
Gh(O)     -1.395492    -1.854519    -0.938929
Gh(H)     -1.529696    -2.656867    -0.415875
Gh(H)     -1.708751    -2.067533    -1.827479
Gh(O)      1.140018    -1.255107     1.603180
Gh(H)      2.012796    -1.642493     1.425109
Gh(H)      1.148354    -1.258433     2.534760

units ang
no_reorient
no_com
symmetry c1
}

set {
basis        aug-cc-pVTZ
scf_type     df
}

energy("mp2")
--------------------------------------------------------------------------

  Memory set to  55.879 GiB by Python driver.

Scratch directory: /ddmfs1a/scratch/
   => Libint2 <=

    Primary   basis highest AM E, G, H:  5, 4, 3
    Auxiliary basis highest AM E, G, H:  6, 5, 4
    Onebody   basis highest AM E, G, H:  6, 5, 4
    Solid Harmonics ordering:            gaussian

*** tstart() called on ddmfs1
*** at Mon Jan 22 15:42:24 2024

   => Loading Basis Set <=

    Name: AUG-CC-PVTZ
    Role: ORBITAL
    Keyword: BASIS
    atoms 1                            entry NA         line   469 file /ddmfs1b/softs/psi4conda/share/psi4/basis/aug-cc-pvtz.gbs 
    atoms 2, 5, 8, 11, 14              entry O          line   331 file /ddmfs1b/softs/psi4conda/share/psi4/basis/aug-cc-pvtz.gbs 
    atoms 3-4, 6-7, 9-10, 12-13, 15-16 entry H          line    40 file /ddmfs1b/softs/psi4conda/share/psi4/basis/aug-cc-pvtz.gbs 


         ---------------------------------------------------------
                                   SCF
               by Justin Turney, Rob Parrish, Andy Simmonett
                          and Daniel G. A. Smith
                              RHF Reference
                       20 Threads,  57220 MiB Core
         ---------------------------------------------------------

  ==> Geometry <==

    Molecular point group: c1
    Full point group: C1

    Geometry (in Angstrom), charge = 0, multiplicity = 1:

       Center              X                  Y                   Z               Mass       
    ------------   -----------------  -----------------  -----------------  -----------------
      Gh(NA)          0.000000000000     0.000000000000     0.000000000000    22.989769282000
      Gh(O)          -1.476289000000     1.000580000000    -1.680201000000    15.994914619570
      Gh(H)          -1.347957000000     0.330310000000    -2.372440000000     1.007825032230
      Gh(H)          -2.429876000000     1.119469000000    -1.591365000000     1.007825032230
         O            2.003211000000     0.161049000000    -1.174825000000    15.994914619570
         H            2.679153000000     0.338854000000    -0.470757000000     1.007825032230
         H            1.973185000000     0.976483000000    -1.680248000000     1.007825032230
      Gh(O)          -0.163112000000     1.557536000000     1.551695000000    15.994914619570
      Gh(H)           0.623683000000     2.047554000000     1.538014000000     1.007825032230
      Gh(H)          -0.465897000000     1.324097000000     2.431350000000     1.007825032230
      Gh(O)          -1.395492000000    -1.854519000000    -0.938929000000    15.994914619570
      Gh(H)          -1.529696000000    -2.656867000000    -0.415875000000     1.007825032230
      Gh(H)          -1.708751000000    -2.067533000000    -1.827479000000     1.007825032230
      Gh(O)           1.140018000000    -1.255107000000     1.603180000000    15.994914619570
      Gh(H)           2.012796000000    -1.642493000000     1.425109000000     1.007825032230
      Gh(H)           1.148354000000    -1.258433000000     2.534760000000     1.007825032230

  Running in c1 symmetry.

  Rotational constants: A =      0.05889  B =      0.04509  C =      0.04134 [cm^-1]
  Rotational constants: A =   1765.51019  B =   1351.74882  C =   1239.41701 [MHz]
  Nuclear repulsion =    9.021666500508433

  Charge       = 0
  Multiplicity = 1
  Electrons    = 10
  Nalpha       = 5
  Nbeta        = 5

  ==> Algorithm <==

  SCF Algorithm Type is DF.
  DIIS enabled.
  MOM disabled.
  Fractional occupation disabled.
  Guess Type is SAD.
  Energy threshold   = 1.00e-08
  Density threshold  = 1.00e-08
  Integral threshold = 1.00e-12

  ==> Primary Basis <==

  Basis Set: AUG-CC-PVTZ
    Blend: AUG-CC-PVTZ
    Number of shells: 176
    Number of basis functions: 510
    Number of Cartesian functions: 584
    Spherical Harmonics?: true
    Max angular momentum: 3

   => Loading Basis Set <=

    Name: (AUG-CC-PVTZ AUX)
    Role: JKFIT
    Keyword: DF_BASIS_SCF
    atoms 1                            entry NA         line   498 file /ddmfs1b/softs/psi4conda/share/psi4/basis/def2-universal-jkfit.gbs 
    atoms 2, 5, 8, 11, 14              entry O          line   286 file /ddmfs1b/softs/psi4conda/share/psi4/basis/aug-cc-pvtz-jkfit.gbs 
    atoms 3-4, 6-7, 9-10, 12-13, 15-16 entry H          line    70 file /ddmfs1b/softs/psi4conda/share/psi4/basis/aug-cc-pvtz-jkfit.gbs 

  ==> Integral Setup <==

  DFHelper Memory: AOs need 2.039 GiB; user supplied 41.910 GiB. 
  Using in-core AOs.

  ==> MemDFJK: Density-Fitted J/K Matrices <==

    J tasked:                   Yes
    K tasked:                   Yes
    wK tasked:                   No
    OpenMP threads:              20
    Memory [MiB]:             42915
    Algorithm:                 Core
    Schwarz Cutoff:           1E-12
    Mask sparsity (%):       8.3576
    Fitting Condition:        1E-10

   => Auxiliary Basis Set <=

  Basis Set: (AUG-CC-PVTZ AUX)
    Blend: AUG-CC-PVTZ-JKFIT + DEF2-UNIVERSAL-JKFIT
    Number of shells: 324
    Number of basis functions: 1092
    Number of Cartesian functions: 1342
    Spherical Harmonics?: true
    Max angular momentum: 4

  Minimum eigenvalue in the overlap matrix is 2.6930092275E-05.
  Reciprocal condition number of the overlap matrix is 1.9582410089E-06.
    Using symmetric orthogonalization.

  ==> Pre-Iterations <==

  SCF Guess: Superposition of Atomic Densities via on-the-fly atomic UHF (no occupation information).

   -------------------------
    Irrep   Nso     Nmo    
   -------------------------
     A        510     510 
   -------------------------
    Total     510     510
   -------------------------

  ==> Iterations <==

                           Total Energy        Delta E     RMS |[F,P]|

   @DF-RHF iter SAD:   -75.45651283499575   -7.54565e+01   0.00000e+00 
   @DF-RHF iter   1:   -75.97311504717464   -5.16602e-01   9.16509e-04 DIIS/ADIIS
   @DF-RHF iter   2:   -76.02514844030449   -5.20334e-02   6.36777e-04 DIIS/ADIIS
   @DF-RHF iter   3:   -76.05792980644246   -3.27814e-02   4.34268e-05 DIIS
   @DF-RHF iter   4:   -76.05834494198207   -4.15136e-04   1.08001e-05 DIIS
   @DF-RHF iter   5:   -76.05837334714904   -2.84052e-05   2.50477e-06 DIIS
   @DF-RHF iter   6:   -76.05837575253840   -2.40539e-06   5.51206e-07 DIIS
   @DF-RHF iter   7:   -76.05837587924813   -1.26710e-07   9.76028e-08 DIIS
   @DF-RHF iter   8:   -76.05837588269959   -3.45146e-09   1.67506e-08 DIIS
   @DF-RHF iter   9:   -76.05837588278132   -8.17266e-11   4.28577e-09 DIIS
  Energy and wave function converged.


  ==> Post-Iterations <==

    Orbital Energies [Eh]
    ---------------------

    Doubly Occupied:                                                      

       1A    -20.570392     2A     -1.344564     3A     -0.706792  
       4A     -0.582040     5A     -0.508977  

    Virtual:                                                              

       6A      0.007278     7A      0.016236     8A      0.016563  
       9A      0.018333    10A      0.038513    11A      0.050975  
      12A      0.053357    13A      0.054072    14A      0.056122  
      15A      0.056947    16A      0.057752    17A      0.061565  
      18A      0.065045    19A      0.078869    20A      0.081630  
      21A      0.084291    22A      0.085879    23A      0.089232  
      24A      0.095036    25A      0.103420    26A      0.106182  
      27A      0.111914    28A      0.117294    29A      0.134431  
      30A      0.140072    31A      0.141900    32A      0.155528  
      33A      0.165018    34A      0.170404    35A      0.175498  
      36A      0.178218    37A      0.185928    38A      0.193040  
      39A      0.200108    40A      0.200937    41A      0.204995  
      42A      0.211841    43A      0.220206    44A      0.224341  
      45A      0.232054    46A      0.237372    47A      0.243378  
      48A      0.248051    49A      0.262492    50A      0.265134  
      51A      0.271017    52A      0.280087    53A      0.289346  
      54A      0.294594    55A      0.303667    56A      0.317626  
      57A      0.321055    58A      0.329030    59A      0.338194  
      60A      0.342030    61A      0.343893    62A      0.350502  
      63A      0.357053    64A      0.361774    65A      0.369087  
      66A      0.375547    67A      0.377252    68A      0.392907  
      69A      0.394307    70A      0.396850    71A      0.405639  
      72A      0.409400    73A      0.417860    74A      0.422327  
      75A      0.429216    76A      0.434758    77A      0.440541  
      78A      0.445581    79A      0.448161    80A      0.450834  
      81A      0.456261    82A      0.457961    83A      0.459731  
      84A      0.466963    85A      0.470638    86A      0.477057  
      87A      0.482834    88A      0.485568    89A      0.492323  
      90A      0.497563    91A      0.504270    92A      0.511483  
      93A      0.516203    94A      0.521830    95A      0.530178  
      96A      0.533506    97A      0.536954    98A      0.541575  
      99A      0.561900   100A      0.573691   101A      0.585841  
     102A      0.592038   103A      0.610163   104A      0.623929  
     105A      0.645212   106A      0.655421   107A      0.673485  
     108A      0.686234   109A      0.694113   110A      0.713024  
     111A      0.728514   112A      0.734038   113A      0.749976  
     114A      0.752605   115A      0.761250   116A      0.776198  
     117A      0.792342   118A      0.797883   119A      0.804866  
     120A      0.809659   121A      0.814590   122A      0.819959  
     123A      0.830676   124A      0.838030   125A      0.850259  
     126A      0.854825   127A      0.859819   128A      0.863234  
     129A      0.875980   130A      0.884408   131A      0.886826  
     132A      0.898388   133A      0.903596   134A      0.909723  
     135A      0.918087   136A      0.928810   137A      0.936512  
     138A      0.940760   139A      0.945975   140A      0.956209  
     141A      0.962343   142A      0.981821   143A      0.984857  
     144A      0.986498   145A      0.989819   146A      0.999155  
     147A      1.008175   148A      1.011039   149A      1.017927  
     150A      1.019972   151A      1.025252   152A      1.038814  
     153A      1.039778   154A      1.048301   155A      1.051968  
     156A      1.063609   157A      1.065227   158A      1.073517  
     159A      1.082216   160A      1.089333   161A      1.091594  
     162A      1.098936   163A      1.108612   164A      1.114087  
     165A      1.118497   166A      1.134064   167A      1.137864  
     168A      1.142036   169A      1.152455   170A      1.154852  
     171A      1.164044   172A      1.173339   173A      1.183690  
     174A      1.185581   175A      1.201670   176A      1.207049  
     177A      1.217419   178A      1.224689   179A      1.233099  
     180A      1.242246   181A      1.248070   182A      1.250968  
     183A      1.261688   184A      1.271451   185A      1.281920  
     186A      1.291072   187A      1.299039   188A      1.303893  
     189A      1.310439   190A      1.318754   191A      1.327124  
     192A      1.342093   193A      1.349457   194A      1.352959  
     195A      1.364547   196A      1.372273   197A      1.391001  
     198A      1.412576   199A      1.421630   200A      1.429678  
     201A      1.455407   202A      1.469218   203A      1.473105  
     204A      1.480110   205A      1.482233   206A      1.490388  
     207A      1.494089   208A      1.523749   209A      1.536000  
     210A      1.543906   211A      1.558482   212A      1.566590  
     213A      1.583223   214A      1.612223   215A      1.617720  
     216A      1.647380   217A      1.658681   218A      1.674838  
     219A      1.679406   220A      1.694571   221A      1.715929  
     222A      1.735085   223A      1.751476   224A      1.764721  
     225A      1.780559   226A      1.783029   227A      1.823849  
     228A      1.842530   229A      1.858056   230A      1.861597  
     231A      1.871372   232A      1.876632   233A      1.881289  
     234A      1.896054   235A      1.913263   236A      1.923239  
     237A      1.943886   238A      1.951211   239A      1.978525  
     240A      1.992373   241A      2.005953   242A      2.014025  
     243A      2.019578   244A      2.040410   245A      2.045620  
     246A      2.049150   247A      2.087571   248A      2.088938  
     249A      2.096446   250A      2.106770   251A      2.131917  
     252A      2.146424   253A      2.162433   254A      2.196726  
     255A      2.255671   256A      2.383535   257A      2.433439  
     258A      2.459710   259A      2.474906   260A      2.494091  
     261A      2.518543   262A      2.529006   263A      2.537662  
     264A      2.553235   265A      2.574303   266A      2.580148  
     267A      2.590023   268A      2.596594   269A      2.618328  
     270A      2.623660   271A      2.629177   272A      2.634015  
     273A      2.652649   274A      2.670064   275A      2.683769  
     276A      2.687025   277A      2.693288   278A      2.704201  
     279A      2.711434   280A      2.720199   281A      2.730620  
     282A      2.752442   283A      2.773436   284A      2.786880  
     285A      2.801736   286A      2.818658   287A      2.842694  
     288A      2.874752   289A      2.885714   290A      2.897258  
     291A      2.901032   292A      2.928409   293A      2.941920  
     294A      2.952178   295A      2.973034   296A      2.981216  
     297A      3.009987   298A      3.033428   299A      3.044167  
     300A      3.055758   301A      3.111484   302A      3.154600  
     303A      3.158736   304A      3.252729   305A      3.262089  
     306A      3.265832   307A      3.283390   308A      3.284611  
     309A      3.302138   310A      3.323175   311A      3.336478  
     312A      3.344106   313A      3.353974   314A      3.360478  
     315A      3.370060   316A      3.406155   317A      3.421048  
     318A      3.429793   319A      3.435446   320A      3.450058  
     321A      3.456113   322A      3.488463   323A      3.502811  
     324A      3.638970   325A      3.652731   326A      3.675999  
     327A      3.709490   328A      3.748730   329A      3.765794  
     330A      3.782742   331A      3.802832   332A      3.878174  
     333A      3.896506   334A      4.159848   335A      4.244828  
     336A      4.302389   337A      4.340926   338A      4.395775  
     339A      4.442397   340A      4.455412   341A      4.477724  
     342A      4.497639   343A      4.504526   344A      4.533188  
     345A      4.552130   346A      4.552346   347A      4.569236  
     348A      4.570763   349A      4.587888   350A      4.599685  
     351A      4.611834   352A      4.638624   353A      4.644215  
     354A      4.663412   355A      4.693510   356A      4.706100  
     357A      4.722350   358A      4.737518   359A      4.757083  
     360A      4.762063   361A      4.787713   362A      4.812345  
     363A      4.828792   364A      4.831163   365A      4.841805  
     366A      4.854604   367A      4.865926   368A      4.890751  
     369A      4.928626   370A      4.993552   371A      5.010110  
     372A      5.022579   373A      5.039349   374A      5.041140  
     375A      5.059070   376A      5.073433   377A      5.119817  
     378A      5.153311   379A      5.161023   380A      5.176795  
     381A      5.186440   382A      5.196456   383A      5.232395  
     384A      5.251336   385A      5.253675   386A      5.313048  
     387A      5.331347   388A      5.373563   389A      5.516869  
     390A      5.558832   391A      5.564721   392A      5.597836  
     393A      5.636765   394A      5.655115   395A      5.663718  
     396A      5.671100   397A      5.689715   398A      5.694126  
     399A      5.715354   400A      5.750230   401A      5.780284  
     402A      5.839808   403A      5.849494   404A      5.904484  
     405A      5.925084   406A      5.997632   407A      6.065564  
     408A      6.205758   409A      6.258915   410A      6.286313  
     411A      6.291429   412A      6.336925   413A      6.407209  
     414A      6.417868   415A      6.441129   416A      6.475854  
     417A      6.633312   418A      6.702697   419A      6.753871  
     420A      6.785690   421A      6.833597   422A      6.929502  
     423A      6.956380   424A      7.007224   425A      7.097073  
     426A      7.112328   427A      7.186801   428A      7.219773  
     429A      7.225488   430A      7.308705   431A      7.338352  
     432A      7.394699   433A      7.434852   434A      7.442789  
     435A      7.506459   436A      7.564215   437A      7.675414  
     438A      7.734290   439A      7.746882   440A      7.762447  
     441A      7.801955   442A      7.846570   443A      7.881164  
     444A      7.907580   445A      7.915145   446A      7.966328  
     447A      7.988419   448A      8.108831   449A      8.115692  
     450A      8.140620   451A      8.186199   452A      8.223277  
     453A      8.238042   454A      8.271303   455A      8.290191  
     456A      8.316853   457A      8.339019   458A      8.368613  
     459A      8.413950   460A      8.763219   461A      8.787223  
     462A      8.822092   463A      8.832535   464A      8.838717  
     465A      8.875202   466A      8.884479   467A      8.994222  
     468A      9.056785   469A      9.882954   470A      9.932805  
     471A      9.958001   472A      9.976915   473A     10.008152  
     474A     10.014839   475A     10.025942   476A     10.056993  
     477A     10.070614   478A     10.078028   479A     10.093187  
     480A     10.109051   481A     10.208248   482A     10.234256  
     483A     10.270119   484A     10.286141   485A     11.183718  
     486A     11.225190   487A     11.235850   488A     11.333902  
     489A     11.741078   490A     11.822514   491A     11.899831  
     492A     11.940794   493A     12.127693   494A     12.190656  
     495A     12.410185   496A     12.540975   497A     13.563872  
     498A     13.621370   499A     13.697357   500A     13.806293  
     501A     13.904317   502A     13.932336   503A     13.951612  
     504A     13.987115   505A     15.815362   506A     64.786368  
     507A     64.997766   508A     65.091683   509A     66.054766  
     510A     67.132508  

    Final Occupation by Irrep:
              A 
    DOCC [     5 ]
    NA   [     5 ]
    NB   [     5 ]

  @DF-RHF Final Energy:   -76.05837588278132

   => Energetics <=

    Nuclear Repulsion Energy =              9.0216665005084327
    One-Electron Energy =                -122.7345517221892806
    Two-Electron Energy =                  37.6545093388995440
    Total Energy =                        -76.0583758827813057

Computation Completed


Properties will be evaluated at   0.000000,   0.000000,   0.000000 [a0]

Properties computed using the SCF density matrix


 Multipole Moments:

 ------------------------------------------------------------------------------------
     Multipole            Electronic (a.u.)      Nuclear  (a.u.)        Total (a.u.)
 ------------------------------------------------------------------------------------

 L = 1.  Multiply by 2.5417464519 to convert [e a0] to [Debye]
 Dipole X            :        -38.6541988           39.0758060            0.4216071
 Dipole Y            :         -4.2661106            4.9203347            0.6542241
 Dipole Z            :         21.9514016          -21.8255903            0.1258113
 Magnitude           :                                                    0.7884099

 ------------------------------------------------------------------------------------

*** tstop() called on ddmfs1 at Mon Jan 22 15:42:31 2024
Module time:
	user time   =      90.56 seconds =       1.51 minutes
	system time =       6.03 seconds =       0.10 minutes
	total time  =          7 seconds =       0.12 minutes
Total time:
	user time   =      90.56 seconds =       1.51 minutes
	system time =       6.03 seconds =       0.10 minutes
	total time  =          7 seconds =       0.12 minutes

*** tstart() called on ddmfs1
*** at Mon Jan 22 15:42:31 2024


  //>>>>>>>>>>>>>>>>>>>>>>>>>>>>>>>>>>>//
  //               DFMP2               //
  //<<<<<<<<<<<<<<<<<<<<<<<<<<<<<<<<<<<//

   => Loading Basis Set <=

    Name: (AUG-CC-PVTZ AUX)
    Role: RIFIT
    Keyword: DF_BASIS_MP2
    atoms 1                            entry NA         line   610 file /ddmfs1b/softs/psi4conda/share/psi4/basis/def2-qzvpp-ri.gbs 
    atoms 2, 5, 8, 11, 14              entry O          line   264 file /ddmfs1b/softs/psi4conda/share/psi4/basis/aug-cc-pvtz-ri.gbs 
    atoms 3-4, 6-7, 9-10, 12-13, 15-16 entry H          line    30 file /ddmfs1b/softs/psi4conda/share/psi4/basis/aug-cc-pvtz-ri.gbs 

	 --------------------------------------------------------
	                          DF-MP2                         
	      2nd-Order Density-Fitted Moller-Plesset Theory     
	              RMP2 Wavefunction,  20 Threads             
	                                                         
	        Rob Parrish, Justin Turney, Andy Simmonett,      
	           Ed Hohenstein, and C. David Sherrill          
	 --------------------------------------------------------

   => Auxiliary Basis Set <=

  Basis Set: (AUG-CC-PVTZ AUX)
    Blend: AUG-CC-PVTZ-RI + DEF2-QZVPP-RI
    Number of shells: 322
    Number of basis functions: 1156
    Number of Cartesian functions: 1444
    Spherical Harmonics?: true
    Max angular momentum: 4

	 --------------------------------------------------------
	                 NBF =   510, NAUX =  1156
	 --------------------------------------------------------
	   CLASS    FOCC     OCC    AOCC    AVIR     VIR    FVIR
	   PAIRS       0       5       5     505     505       0
	 --------------------------------------------------------

	-----------------------------------------------------------
	 ==================> DF-MP2 Energies <==================== 
	-----------------------------------------------------------
	 Reference Energy          =     -76.0583758827813199 [Eh]
	 Singles Energy            =      -0.0000000000000000 [Eh]
	 Same-Spin Energy          =      -0.0687521543159010 [Eh]
	 Opposite-Spin Energy      =      -0.2169221050561517 [Eh]
	 Correlation Energy        =      -0.2856742593720527 [Eh]
	 Total Energy              =     -76.3440501421533781 [Eh]
	-----------------------------------------------------------
	 ================> DF-SCS-MP2 Energies <================== 
	-----------------------------------------------------------
	 SCS Same-Spin Scale       =       0.3333333333333333 [-]
	 SCS Opposite-Spin Scale   =       1.2000000000000000 [-]
	 SCS Same-Spin Energy      =      -0.0229173847719670 [Eh]
	 SCS Opposite-Spin Energy  =      -0.2603065260673821 [Eh]
	 SCS Correlation Energy    =      -0.2832239108393491 [Eh]
	 SCS Total Energy          =     -76.3415997936206736 [Eh]
	-----------------------------------------------------------


*** tstop() called on ddmfs1 at Mon Jan 22 15:42:38 2024
Module time:
	user time   =      28.49 seconds =       0.47 minutes
	system time =       1.97 seconds =       0.03 minutes
	total time  =          7 seconds =       0.12 minutes
Total time:
	user time   =     119.06 seconds =       1.98 minutes
	system time =       8.00 seconds =       0.13 minutes
	total time  =         14 seconds =       0.23 minutes

    Psi4 stopped on: Monday, 22 January 2024 03:42PM
    Psi4 wall time for execution: 0:00:13.20

*** Psi4 exiting successfully. Buy a developer a beer!
