
    -----------------------------------------------------------------------
          Psi4: An Open-Source Ab Initio Electronic Structure Package
                               Psi4 1.8.2 release

                         Git: Rev {} zzzzzzz 


    D. G. A. Smith, L. A. Burns, A. C. Simmonett, R. M. Parrish,
    M. C. Schieber, R. Galvelis, P. Kraus, H. Kruse, R. Di Remigio,
    A. Alenaizan, A. M. James, S. Lehtola, J. P. Misiewicz, M. Scheurer,
    R. A. Shaw, J. B. Schriber, Y. Xie, Z. L. Glick, D. A. Sirianni,
    J. S. O'Brien, J. M. Waldrop, A. Kumar, E. G. Hohenstein,
    B. P. Pritchard, B. R. Brooks, H. F. Schaefer III, A. Yu. Sokolov,
    K. Patkowski, A. E. DePrince III, U. Bozkaya, R. A. King,
    F. A. Evangelista, J. M. Turney, T. D. Crawford, C. D. Sherrill,
    J. Chem. Phys. 152(18) 184108 (2020). https://doi.org/10.1063/5.0006002

                            Additional Code Authors
    E. T. Seidl, C. L. Janssen, E. F. Valeev, M. L. Leininger,
    J. F. Gonthier, R. M. Richard, H. R. McAlexander, M. Saitow, X. Wang,
    P. Verma, M. H. Lechner, A. Jiang, S. Behnle, A. G. Heide,
    M. F. Herbst, and D. L. Poole

             Previous Authors, Complete List of Code Contributors,
                       and Citations for Specific Modules
    https://github.com/psi4/psi4/blob/master/codemeta.json
    https://github.com/psi4/psi4/graphs/contributors
    http://psicode.org/psi4manual/master/introduction.html#citing-psifour

    -----------------------------------------------------------------------


    Psi4 started on: Monday, 22 January 2024 03:55PM

    Process ID: 74920
    Host:       ddmfs1
    PSIDATADIR: /ddmfs1b/softs/psi4conda/share/psi4
    Memory:     500.0 MiB
    Threads:    20
    
  ==> Input File <==

--------------------------------------------------------------------------
MEMORY 60 GB

molecule dimer {
0 1
Gh(Na)     0.000000     0.000000     0.000000
O          0.897942     0.232779    -2.242681
H          0.375770     0.945152    -2.637263
H          1.742548     0.701814    -2.136948
Gh(O)     -0.526370    -2.247938    -0.113789
Gh(H)     -0.067939    -2.929889     0.403156
Gh(H)     -1.121253    -2.676460    -0.712395
Gh(O)      0.965071     2.227927    -0.066810
Gh(H)      1.977096     2.201242     0.110202
Gh(H)      0.828364     2.723446    -0.874262
Gh(O)     -0.282618     0.653366     2.269494
Gh(H)     -1.091358     0.346471     2.688083
Gh(H)      0.398640     0.607206     2.959686

units ang
no_reorient
no_com
symmetry c1
}

set {
basis        aug-cc-pVTZ
scf_type     df
}

energy("mp2")
--------------------------------------------------------------------------

  Memory set to  55.879 GiB by Python driver.

Scratch directory: /ddmfs1a/scratch/
   => Libint2 <=

    Primary   basis highest AM E, G, H:  5, 4, 3
    Auxiliary basis highest AM E, G, H:  6, 5, 4
    Onebody   basis highest AM E, G, H:  6, 5, 4
    Solid Harmonics ordering:            gaussian

*** tstart() called on ddmfs1
*** at Mon Jan 22 15:55:16 2024

   => Loading Basis Set <=

    Name: AUG-CC-PVTZ
    Role: ORBITAL
    Keyword: BASIS
    atoms 1                     entry NA         line   469 file /ddmfs1b/softs/psi4conda/share/psi4/basis/aug-cc-pvtz.gbs 
    atoms 2, 5, 8, 11           entry O          line   331 file /ddmfs1b/softs/psi4conda/share/psi4/basis/aug-cc-pvtz.gbs 
    atoms 3-4, 6-7, 9-10, 12-13 entry H          line    40 file /ddmfs1b/softs/psi4conda/share/psi4/basis/aug-cc-pvtz.gbs 


         ---------------------------------------------------------
                                   SCF
               by Justin Turney, Rob Parrish, Andy Simmonett
                          and Daniel G. A. Smith
                              RHF Reference
                       20 Threads,  57220 MiB Core
         ---------------------------------------------------------

  ==> Geometry <==

    Molecular point group: c1
    Full point group: C1

    Geometry (in Angstrom), charge = 0, multiplicity = 1:

       Center              X                  Y                   Z               Mass       
    ------------   -----------------  -----------------  -----------------  -----------------
      Gh(NA)          0.000000000000     0.000000000000     0.000000000000    22.989769282000
         O            0.897942000000     0.232779000000    -2.242681000000    15.994914619570
         H            0.375770000000     0.945152000000    -2.637263000000     1.007825032230
         H            1.742548000000     0.701814000000    -2.136948000000     1.007825032230
      Gh(O)          -0.526370000000    -2.247938000000    -0.113789000000    15.994914619570
      Gh(H)          -0.067939000000    -2.929889000000     0.403156000000     1.007825032230
      Gh(H)          -1.121253000000    -2.676460000000    -0.712395000000     1.007825032230
      Gh(O)           0.965071000000     2.227927000000    -0.066810000000    15.994914619570
      Gh(H)           1.977096000000     2.201242000000     0.110202000000     1.007825032230
      Gh(H)           0.828364000000     2.723446000000    -0.874262000000     1.007825032230
      Gh(O)          -0.282618000000     0.653366000000     2.269494000000    15.994914619570
      Gh(H)          -1.091358000000     0.346471000000     2.688083000000     1.007825032230
      Gh(H)           0.398640000000     0.607206000000     2.959686000000     1.007825032230

  Running in c1 symmetry.

  Rotational constants: A =      0.07957  B =      0.07369  C =      0.03939 [cm^-1]
  Rotational constants: A =   2385.41413  B =   2209.31756  C =   1180.86653 [MHz]
  Nuclear repulsion =    9.090693624900586

  Charge       = 0
  Multiplicity = 1
  Electrons    = 10
  Nalpha       = 5
  Nbeta        = 5

  ==> Algorithm <==

  SCF Algorithm Type is DF.
  DIIS enabled.
  MOM disabled.
  Fractional occupation disabled.
  Guess Type is SAD.
  Energy threshold   = 1.00e-08
  Density threshold  = 1.00e-08
  Integral threshold = 1.00e-12

  ==> Primary Basis <==

  Basis Set: AUG-CC-PVTZ
    Blend: AUG-CC-PVTZ
    Number of shells: 144
    Number of basis functions: 418
    Number of Cartesian functions: 479
    Spherical Harmonics?: true
    Max angular momentum: 3

   => Loading Basis Set <=

    Name: (AUG-CC-PVTZ AUX)
    Role: JKFIT
    Keyword: DF_BASIS_SCF
    atoms 1                     entry NA         line   498 file /ddmfs1b/softs/psi4conda/share/psi4/basis/def2-universal-jkfit.gbs 
    atoms 2, 5, 8, 11           entry O          line   286 file /ddmfs1b/softs/psi4conda/share/psi4/basis/aug-cc-pvtz-jkfit.gbs 
    atoms 3-4, 6-7, 9-10, 12-13 entry H          line    70 file /ddmfs1b/softs/psi4conda/share/psi4/basis/aug-cc-pvtz-jkfit.gbs 

  ==> Integral Setup <==

  DFHelper Memory: AOs need 1.131 GiB; user supplied 41.910 GiB. 
  Using in-core AOs.

  ==> MemDFJK: Density-Fitted J/K Matrices <==

    J tasked:                   Yes
    K tasked:                   Yes
    wK tasked:                   No
    OpenMP threads:              20
    Memory [MiB]:             42915
    Algorithm:                 Core
    Schwarz Cutoff:           1E-12
    Mask sparsity (%):       8.8173
    Fitting Condition:        1E-10

   => Auxiliary Basis Set <=

  Basis Set: (AUG-CC-PVTZ AUX)
    Blend: AUG-CC-PVTZ-JKFIT + DEF2-UNIVERSAL-JKFIT
    Number of shells: 266
    Number of basis functions: 896
    Number of Cartesian functions: 1101
    Spherical Harmonics?: true
    Max angular momentum: 4

  Minimum eigenvalue in the overlap matrix is 4.5502624437E-05.
  Reciprocal condition number of the overlap matrix is 3.6310555173E-06.
    Using symmetric orthogonalization.

  ==> Pre-Iterations <==

  SCF Guess: Superposition of Atomic Densities via on-the-fly atomic UHF (no occupation information).

   -------------------------
    Irrep   Nso     Nmo    
   -------------------------
     A        418     418 
   -------------------------
    Total     418     418
   -------------------------

  ==> Iterations <==

                           Total Energy        Delta E     RMS |[F,P]|

   @DF-RHF iter SAD:   -75.46955922863732   -7.54696e+01   0.00000e+00 
   @DF-RHF iter   1:   -75.97320638992360   -5.03647e-01   1.11940e-03 ADIIS/DIIS
   @DF-RHF iter   2:   -76.02551441671559   -5.23080e-02   7.76093e-04 ADIIS/DIIS
   @DF-RHF iter   3:   -76.05818416029351   -3.26697e-02   5.26112e-05 DIIS
   @DF-RHF iter   4:   -76.05858217971186   -3.98019e-04   1.29331e-05 DIIS
   @DF-RHF iter   5:   -76.05860906330626   -2.68836e-05   3.02148e-06 DIIS
   @DF-RHF iter   6:   -76.05861134252638   -2.27922e-06   6.51800e-07 DIIS
   @DF-RHF iter   7:   -76.05861145673862   -1.14212e-07   1.09255e-07 DIIS
   @DF-RHF iter   8:   -76.05861145949854   -2.75992e-09   1.82268e-08 DIIS
   @DF-RHF iter   9:   -76.05861145955699   -5.84492e-11   4.25486e-09 DIIS
  Energy and wave function converged.


  ==> Post-Iterations <==

    Orbital Energies [Eh]
    ---------------------

    Doubly Occupied:                                                      

       1A    -20.571467     2A     -1.351070     3A     -0.700311  
       4A     -0.593075     5A     -0.510914  

    Virtual:                                                              

       6A      0.007477     7A      0.016183     8A      0.017523  
       9A      0.018657    10A      0.038760    11A      0.051896  
      12A      0.053636    13A      0.056068    14A      0.057306  
      15A      0.059996    16A      0.060144    17A      0.065645  
      18A      0.068376    19A      0.079625    20A      0.081119  
      21A      0.084622    22A      0.087423    23A      0.095925  
      24A      0.103449    25A      0.111642    26A      0.118418  
      27A      0.135394    28A      0.139208    29A      0.148658  
      30A      0.150684    31A      0.160112    32A      0.176625  
      33A      0.177707    34A      0.186291    35A      0.188832  
      36A      0.194096    37A      0.202614    38A      0.206695  
      39A      0.208861    40A      0.216977    41A      0.221145  
      42A      0.225368    43A      0.245819    44A      0.256009  
      45A      0.268491    46A      0.272841    47A      0.284874  
      48A      0.295105    49A      0.300911    50A      0.303297  
      51A      0.313599    52A      0.320931    53A      0.324802  
      54A      0.329456    55A      0.336345    56A      0.348717  
      57A      0.358915    58A      0.363408    59A      0.366046  
      60A      0.373419    61A      0.377742    62A      0.383278  
      63A      0.388207    64A      0.395445    65A      0.404360  
      66A      0.407648    67A      0.416442    68A      0.423084  
      69A      0.424533    70A      0.429179    71A      0.432037  
      72A      0.439272    73A      0.446118    74A      0.451662  
      75A      0.455436    76A      0.460444    77A      0.466075  
      78A      0.472583    79A      0.482439    80A      0.487822  
      81A      0.490412    82A      0.496016    83A      0.504605  
      84A      0.511601    85A      0.527620    86A      0.537679  
      87A      0.542568    88A      0.554527    89A      0.566286  
      90A      0.571313    91A      0.577099    92A      0.601713  
      93A      0.647032    94A      0.669417    95A      0.677644  
      96A      0.693759    97A      0.701230    98A      0.718859  
      99A      0.740801   100A      0.748787   101A      0.755373  
     102A      0.773357   103A      0.784951   104A      0.792876  
     105A      0.797068   106A      0.808284   107A      0.812656  
     108A      0.825438   109A      0.827001   110A      0.838653  
     111A      0.847351   112A      0.860328   113A      0.865001  
     114A      0.866645   115A      0.883252   116A      0.900871  
     117A      0.907606   118A      0.913671   119A      0.920162  
     120A      0.937296   121A      0.948445   122A      0.950872  
     123A      0.958764   124A      0.963913   125A      0.979734  
     126A      0.989914   127A      0.991427   128A      0.996189  
     129A      1.004013   130A      1.008040   131A      1.017004  
     132A      1.020380   133A      1.029718   134A      1.038434  
     135A      1.041573   136A      1.051963   137A      1.058845  
     138A      1.068287   139A      1.072795   140A      1.077164  
     141A      1.078099   142A      1.085754   143A      1.097874  
     144A      1.111100   145A      1.125527   146A      1.128428  
     147A      1.142099   148A      1.149115   149A      1.152974  
     150A      1.164026   151A      1.170078   152A      1.182518  
     153A      1.186255   154A      1.216611   155A      1.222559  
     156A      1.226994   157A      1.228633   158A      1.242299  
     159A      1.250706   160A      1.257268   161A      1.270975  
     162A      1.276194   163A      1.291314   164A      1.306416  
     165A      1.311096   166A      1.316592   167A      1.328413  
     168A      1.332226   169A      1.356198   170A      1.364756  
     171A      1.382763   172A      1.387530   173A      1.405682  
     174A      1.418203   175A      1.422517   176A      1.456034  
     177A      1.467743   178A      1.489142   179A      1.500446  
     180A      1.528506   181A      1.535907   182A      1.574795  
     183A      1.602661   184A      1.619553   185A      1.629604  
     186A      1.678219   187A      1.690750   188A      1.701930  
     189A      1.729499   190A      1.746959   191A      1.771602  
     192A      1.819316   193A      1.834804   194A      1.839709  
     195A      1.856448   196A      1.863474   197A      1.873907  
     198A      1.890421   199A      1.904205   200A      1.919566  
     201A      1.930642   202A      1.941763   203A      1.960070  
     204A      1.974540   205A      1.996100   206A      2.007294  
     207A      2.018446   208A      2.051475   209A      2.055218  
     210A      2.069204   211A      2.081978   212A      2.131334  
     213A      2.144308   214A      2.221187   215A      2.385010  
     216A      2.425883   217A      2.464366   218A      2.492671  
     219A      2.511629   220A      2.522028   221A      2.537375  
     222A      2.546607   223A      2.559652   224A      2.565018  
     225A      2.574287   226A      2.577264   227A      2.597325  
     228A      2.606617   229A      2.622423   230A      2.628958  
     231A      2.642390   232A      2.658360   233A      2.678537  
     234A      2.703118   235A      2.712362   236A      2.718343  
     237A      2.739327   238A      2.753895   239A      2.766900  
     240A      2.811266   241A      2.833518   242A      2.854658  
     243A      2.862395   244A      2.892740   245A      2.918682  
     246A      2.932563   247A      2.945928   248A      2.952856  
     249A      2.967122   250A      3.057492   251A      3.083177  
     252A      3.094949   253A      3.114551   254A      3.211545  
     255A      3.214935   256A      3.241936   257A      3.253517  
     258A      3.282211   259A      3.290077   260A      3.305393  
     261A      3.331341   262A      3.346684   263A      3.354333  
     264A      3.360535   265A      3.375659   266A      3.385189  
     267A      3.429328   268A      3.478110   269A      3.610362  
     270A      3.635592   271A      3.687376   272A      3.717799  
     273A      3.721563   274A      3.769465   275A      3.859570  
     276A      3.898684   277A      4.142076   278A      4.195389  
     279A      4.288794   280A      4.310824   281A      4.367086  
     282A      4.387356   283A      4.401283   284A      4.468126  
     285A      4.500121   286A      4.523862   287A      4.530027  
     288A      4.532335   289A      4.548179   290A      4.558433  
     291A      4.562805   292A      4.583297   293A      4.617613  
     294A      4.644323   295A      4.655990   296A      4.684571  
     297A      4.709158   298A      4.724457   299A      4.745341  
     300A      4.751673   301A      4.764390   302A      4.797663  
     303A      4.810775   304A      4.811130   305A      4.908476  
     306A      4.972244   307A      4.988594   308A      5.002130  
     309A      5.022615   310A      5.039463   311A      5.047887  
     312A      5.054918   313A      5.129398   314A      5.162892  
     315A      5.176272   316A      5.185369   317A      5.203297  
     318A      5.228989   319A      5.243808   320A      5.279961  
     321A      5.378772   322A      5.412630   323A      5.470586  
     324A      5.517666   325A      5.536812   326A      5.541989  
     327A      5.624435   328A      5.645051   329A      5.652630  
     330A      5.682376   331A      5.707289   332A      5.746572  
     333A      5.750997   334A      5.839490   335A      5.888940  
     336A      5.980464   337A      6.146255   338A      6.175697  
     339A      6.210979   340A      6.320409   341A      6.368107  
     342A      6.403041   343A      6.422821   344A      6.555833  
     345A      6.597983   346A      6.654075   347A      6.685141  
     348A      6.798085   349A      6.811319   350A      7.013023  
     351A      7.056251   352A      7.076295   353A      7.139245  
     354A      7.186561   355A      7.232558   356A      7.246561  
     357A      7.353317   358A      7.387686   359A      7.428614  
     360A      7.453868   361A      7.536746   362A      7.653009  
     363A      7.710558   364A      7.727030   365A      7.760857  
     366A      7.825958   367A      7.847069   368A      7.867204  
     369A      7.895938   370A      7.994310   371A      8.083027  
     372A      8.104563   373A      8.131467   374A      8.185984  
     375A      8.220935   376A      8.276645   377A      8.289493  
     378A      8.294567   379A      8.301613   380A      8.637613  
     381A      8.716971   382A      8.756161   383A      8.844731  
     384A      8.855640   385A      8.865930   386A      8.888443  
     387A      9.884462   388A      9.938228   389A      9.958348  
     390A      9.994390   391A     10.004120   392A     10.013091  
     393A     10.036452   394A     10.043514   395A     10.069401  
     396A     10.190131   397A     10.236441   398A     10.255847  
     399A     10.921498   400A     11.201981   401A     11.223737  
     402A     11.741837   403A     11.807754   404A     11.884908  
     405A     12.014186   406A     12.176995   407A     12.308921  
     408A     13.445488   409A     13.536275   410A     13.594813  
     411A     13.880868   412A     13.891607   413A     13.968432  
     414A     15.927566   415A     63.928528   416A     64.752593  
     417A     65.039521   418A     65.537907  

    Final Occupation by Irrep:
              A 
    DOCC [     5 ]
    NA   [     5 ]
    NB   [     5 ]

  @DF-RHF Final Energy:   -76.05861145955699

   => Energetics <=

    Nuclear Repulsion Energy =              9.0906936249005863
    One-Electron Energy =                -122.8449349094507426
    Two-Electron Energy =                  37.6956298249931692
    Total Energy =                        -76.0586114595569995

Computation Completed


Properties will be evaluated at   0.000000,   0.000000,   0.000000 [a0]

Properties computed using the SCF density matrix


 Multipole Moments:

 ------------------------------------------------------------------------------------
     Multipole            Electronic (a.u.)      Nuclear  (a.u.)        Total (a.u.)
 ------------------------------------------------------------------------------------

 L = 1.  Multiply by 2.5417464519 to convert [e a0] to [Debye]
 Dipole X            :        -17.3691429           17.5779565            0.2088136
 Dipole Y            :         -5.8634900            6.6314231            0.7679332
 Dipole Z            :         42.7381314          -42.9263743           -0.1882429
 Magnitude           :                                                    0.8177774

 ------------------------------------------------------------------------------------

*** tstop() called on ddmfs1 at Mon Jan 22 15:55:21 2024
Module time:
	user time   =      61.08 seconds =       1.02 minutes
	system time =       4.36 seconds =       0.07 minutes
	total time  =          5 seconds =       0.08 minutes
Total time:
	user time   =      61.08 seconds =       1.02 minutes
	system time =       4.36 seconds =       0.07 minutes
	total time  =          5 seconds =       0.08 minutes

*** tstart() called on ddmfs1
*** at Mon Jan 22 15:55:21 2024


  //>>>>>>>>>>>>>>>>>>>>>>>>>>>>>>>>>>>//
  //               DFMP2               //
  //<<<<<<<<<<<<<<<<<<<<<<<<<<<<<<<<<<<//

   => Loading Basis Set <=

    Name: (AUG-CC-PVTZ AUX)
    Role: RIFIT
    Keyword: DF_BASIS_MP2
    atoms 1                     entry NA         line   610 file /ddmfs1b/softs/psi4conda/share/psi4/basis/def2-qzvpp-ri.gbs 
    atoms 2, 5, 8, 11           entry O          line   264 file /ddmfs1b/softs/psi4conda/share/psi4/basis/aug-cc-pvtz-ri.gbs 
    atoms 3-4, 6-7, 9-10, 12-13 entry H          line    30 file /ddmfs1b/softs/psi4conda/share/psi4/basis/aug-cc-pvtz-ri.gbs 

	 --------------------------------------------------------
	                          DF-MP2                         
	      2nd-Order Density-Fitted Moller-Plesset Theory     
	              RMP2 Wavefunction,  20 Threads             
	                                                         
	        Rob Parrish, Justin Turney, Andy Simmonett,      
	           Ed Hohenstein, and C. David Sherrill          
	 --------------------------------------------------------

   => Auxiliary Basis Set <=

  Basis Set: (AUG-CC-PVTZ AUX)
    Blend: AUG-CC-PVTZ-RI + DEF2-QZVPP-RI
    Number of shells: 266
    Number of basis functions: 958
    Number of Cartesian functions: 1198
    Spherical Harmonics?: true
    Max angular momentum: 4

	 --------------------------------------------------------
	                 NBF =   418, NAUX =   958
	 --------------------------------------------------------
	   CLASS    FOCC     OCC    AOCC    AVIR     VIR    FVIR
	   PAIRS       0       5       5     413     413       0
	 --------------------------------------------------------

	-----------------------------------------------------------
	 ==================> DF-MP2 Energies <==================== 
	-----------------------------------------------------------
	 Reference Energy          =     -76.0586114595569853 [Eh]
	 Singles Energy            =      -0.0000000000000000 [Eh]
	 Same-Spin Energy          =      -0.0687705023686642 [Eh]
	 Opposite-Spin Energy      =      -0.2168367119059222 [Eh]
	 Correlation Energy        =      -0.2856072142745864 [Eh]
	 Total Energy              =     -76.3442186738315769 [Eh]
	-----------------------------------------------------------
	 ================> DF-SCS-MP2 Energies <================== 
	-----------------------------------------------------------
	 SCS Same-Spin Scale       =       0.3333333333333333 [-]
	 SCS Opposite-Spin Scale   =       1.2000000000000000 [-]
	 SCS Same-Spin Energy      =      -0.0229235007895547 [Eh]
	 SCS Opposite-Spin Energy  =      -0.2602040542871066 [Eh]
	 SCS Correlation Energy    =      -0.2831275550766613 [Eh]
	 SCS Total Energy          =     -76.3417390146336459 [Eh]
	-----------------------------------------------------------


*** tstop() called on ddmfs1 at Mon Jan 22 15:55:26 2024
Module time:
	user time   =      21.51 seconds =       0.36 minutes
	system time =       1.53 seconds =       0.03 minutes
	total time  =          5 seconds =       0.08 minutes
Total time:
	user time   =      82.60 seconds =       1.38 minutes
	system time =       5.89 seconds =       0.10 minutes
	total time  =         10 seconds =       0.17 minutes

    Psi4 stopped on: Monday, 22 January 2024 03:55PM
    Psi4 wall time for execution: 0:00:09.70

*** Psi4 exiting successfully. Buy a developer a beer!
