
    -----------------------------------------------------------------------
          Psi4: An Open-Source Ab Initio Electronic Structure Package
                               Psi4 1.8.2 release

                         Git: Rev {} zzzzzzz 


    D. G. A. Smith, L. A. Burns, A. C. Simmonett, R. M. Parrish,
    M. C. Schieber, R. Galvelis, P. Kraus, H. Kruse, R. Di Remigio,
    A. Alenaizan, A. M. James, S. Lehtola, J. P. Misiewicz, M. Scheurer,
    R. A. Shaw, J. B. Schriber, Y. Xie, Z. L. Glick, D. A. Sirianni,
    J. S. O'Brien, J. M. Waldrop, A. Kumar, E. G. Hohenstein,
    B. P. Pritchard, B. R. Brooks, H. F. Schaefer III, A. Yu. Sokolov,
    K. Patkowski, A. E. DePrince III, U. Bozkaya, R. A. King,
    F. A. Evangelista, J. M. Turney, T. D. Crawford, C. D. Sherrill,
    J. Chem. Phys. 152(18) 184108 (2020). https://doi.org/10.1063/5.0006002

                            Additional Code Authors
    E. T. Seidl, C. L. Janssen, E. F. Valeev, M. L. Leininger,
    J. F. Gonthier, R. M. Richard, H. R. McAlexander, M. Saitow, X. Wang,
    P. Verma, M. H. Lechner, A. Jiang, S. Behnle, A. G. Heide,
    M. F. Herbst, and D. L. Poole

             Previous Authors, Complete List of Code Contributors,
                       and Citations for Specific Modules
    https://github.com/psi4/psi4/blob/master/codemeta.json
    https://github.com/psi4/psi4/graphs/contributors
    http://psicode.org/psi4manual/master/introduction.html#citing-psifour

    -----------------------------------------------------------------------


    Psi4 started on: Monday, 22 January 2024 02:28PM

    Process ID: 66915
    Host:       ddmfs1
    PSIDATADIR: /ddmfs1b/softs/psi4conda/share/psi4
    Memory:     500.0 MiB
    Threads:    20
    
  ==> Input File <==

--------------------------------------------------------------------------
MEMORY 60 GB

molecule dimer {
1 1
Na         0.000000     0.000000     0.000000
Gh(O)      1.626028     1.034922     1.580623
Gh(H)      1.378579     0.724001     2.502033
Gh(H)      2.064630     1.955065     1.635979
Gh(O)     -1.372352    -2.180406    -0.667887
Gh(H)     -1.156517    -2.493550     0.245784
Gh(H)     -1.510414    -2.963832    -1.183852
Gh(O)     -1.339998     1.807402     0.199177
Gh(H)     -1.582903     2.201952    -0.688290
Gh(H)     -1.288117     2.504336     0.887083
Gh(O)     -1.123329    -0.697031     2.020695
Gh(H)     -0.556554    -0.315841     2.727097
Gh(H)     -1.512463    -1.540032     2.286606
Gh(O)     -0.325095     0.344770    -2.289885
Gh(H)     -0.904628    -0.206831    -2.834921
Gh(H)      0.583007     0.391315    -2.704986

units ang
no_reorient
no_com
symmetry c1
}

set {
basis        aug-cc-pVTZ
scf_type     df
}

energy("mp2")
--------------------------------------------------------------------------

  Memory set to  55.879 GiB by Python driver.

Scratch directory: /ddmfs1a/scratch/
   => Libint2 <=

    Primary   basis highest AM E, G, H:  5, 4, 3
    Auxiliary basis highest AM E, G, H:  6, 5, 4
    Onebody   basis highest AM E, G, H:  6, 5, 4
    Solid Harmonics ordering:            gaussian

*** tstart() called on ddmfs1
*** at Mon Jan 22 14:28:29 2024

   => Loading Basis Set <=

    Name: AUG-CC-PVTZ
    Role: ORBITAL
    Keyword: BASIS
    atoms 1                            entry NA         line   469 file /ddmfs1b/softs/psi4conda/share/psi4/basis/aug-cc-pvtz.gbs 
    atoms 2, 5, 8, 11, 14              entry O          line   331 file /ddmfs1b/softs/psi4conda/share/psi4/basis/aug-cc-pvtz.gbs 
    atoms 3-4, 6-7, 9-10, 12-13, 15-16 entry H          line    40 file /ddmfs1b/softs/psi4conda/share/psi4/basis/aug-cc-pvtz.gbs 


         ---------------------------------------------------------
                                   SCF
               by Justin Turney, Rob Parrish, Andy Simmonett
                          and Daniel G. A. Smith
                              RHF Reference
                       20 Threads,  57220 MiB Core
         ---------------------------------------------------------

  ==> Geometry <==

    Molecular point group: c1
    Full point group: C1

    Geometry (in Angstrom), charge = 1, multiplicity = 1:

       Center              X                  Y                   Z               Mass       
    ------------   -----------------  -----------------  -----------------  -----------------
         NA           0.000000000000     0.000000000000     0.000000000000    22.989769282000
      Gh(O)           1.626028000000     1.034922000000     1.580623000000    15.994914619570
      Gh(H)           1.378579000000     0.724001000000     2.502033000000     1.007825032230
      Gh(H)           2.064630000000     1.955065000000     1.635979000000     1.007825032230
      Gh(O)          -1.372352000000    -2.180406000000    -0.667887000000    15.994914619570
      Gh(H)          -1.156517000000    -2.493550000000     0.245784000000     1.007825032230
      Gh(H)          -1.510414000000    -2.963832000000    -1.183852000000     1.007825032230
      Gh(O)          -1.339998000000     1.807402000000     0.199177000000    15.994914619570
      Gh(H)          -1.582903000000     2.201952000000    -0.688290000000     1.007825032230
      Gh(H)          -1.288117000000     2.504336000000     0.887083000000     1.007825032230
      Gh(O)          -1.123329000000    -0.697031000000     2.020695000000    15.994914619570
      Gh(H)          -0.556554000000    -0.315841000000     2.727097000000     1.007825032230
      Gh(H)          -1.512463000000    -1.540032000000     2.286606000000     1.007825032230
      Gh(O)          -0.325095000000     0.344770000000    -2.289885000000    15.994914619570
      Gh(H)          -0.904628000000    -0.206831000000    -2.834921000000     1.007825032230
      Gh(H)           0.583007000000     0.391315000000    -2.704986000000     1.007825032230

  Running in c1 symmetry.

  Rotational constants: A =      0.05676  B =      0.04530  C =      0.03638 [cm^-1]
  Rotational constants: A =   1701.57886  B =   1357.96034  C =   1090.77961 [MHz]
  Nuclear repulsion =    0.000000000000000

  Charge       = 1
  Multiplicity = 1
  Electrons    = 10
  Nalpha       = 5
  Nbeta        = 5

  ==> Algorithm <==

  SCF Algorithm Type is DF.
  DIIS enabled.
  MOM disabled.
  Fractional occupation disabled.
  Guess Type is SAD.
  Energy threshold   = 1.00e-08
  Density threshold  = 1.00e-08
  Integral threshold = 1.00e-12

  ==> Primary Basis <==

  Basis Set: AUG-CC-PVTZ
    Blend: AUG-CC-PVTZ
    Number of shells: 176
    Number of basis functions: 510
    Number of Cartesian functions: 584
    Spherical Harmonics?: true
    Max angular momentum: 3

   => Loading Basis Set <=

    Name: (AUG-CC-PVTZ AUX)
    Role: JKFIT
    Keyword: DF_BASIS_SCF
    atoms 1                            entry NA         line   498 file /ddmfs1b/softs/psi4conda/share/psi4/basis/def2-universal-jkfit.gbs 
    atoms 2, 5, 8, 11, 14              entry O          line   286 file /ddmfs1b/softs/psi4conda/share/psi4/basis/aug-cc-pvtz-jkfit.gbs 
    atoms 3-4, 6-7, 9-10, 12-13, 15-16 entry H          line    70 file /ddmfs1b/softs/psi4conda/share/psi4/basis/aug-cc-pvtz-jkfit.gbs 

  ==> Integral Setup <==

  DFHelper Memory: AOs need 2.025 GiB; user supplied 41.910 GiB. 
  Using in-core AOs.

  ==> MemDFJK: Density-Fitted J/K Matrices <==

    J tasked:                   Yes
    K tasked:                   Yes
    wK tasked:                   No
    OpenMP threads:              20
    Memory [MiB]:             42915
    Algorithm:                 Core
    Schwarz Cutoff:           1E-12
    Mask sparsity (%):       9.0411
    Fitting Condition:        1E-10

   => Auxiliary Basis Set <=

  Basis Set: (AUG-CC-PVTZ AUX)
    Blend: AUG-CC-PVTZ-JKFIT + DEF2-UNIVERSAL-JKFIT
    Number of shells: 324
    Number of basis functions: 1092
    Number of Cartesian functions: 1342
    Spherical Harmonics?: true
    Max angular momentum: 4

  Minimum eigenvalue in the overlap matrix is 4.4179059492E-05.
  Reciprocal condition number of the overlap matrix is 3.2041492078E-06.
    Using symmetric orthogonalization.

  ==> Pre-Iterations <==

  SCF Guess: Superposition of Atomic Densities via on-the-fly atomic UHF (no occupation information).

   -------------------------
    Irrep   Nso     Nmo    
   -------------------------
     A        510     510 
   -------------------------
    Total     510     510
   -------------------------

  ==> Iterations <==

                           Total Energy        Delta E     RMS |[F,P]|

   @DF-RHF iter SAD:  -161.74573405299049   -1.61746e+02   0.00000e+00 
   @DF-RHF iter   1:  -161.67607103970386    6.96630e-02   1.24456e-05 DIIS
   @DF-RHF iter   2:  -161.67608938131590   -1.83416e-05   2.33470e-06 DIIS
   @DF-RHF iter   3:  -161.67608988567085   -5.04355e-07   1.20845e-07 DIIS
   @DF-RHF iter   4:  -161.67608988668721   -1.01636e-09   1.49315e-08 DIIS
   @DF-RHF iter   5:  -161.67608988670312   -1.59162e-11   5.85634e-10 DIIS
  Energy and wave function converged.


  ==> Post-Iterations <==

    Orbital Energies [Eh]
    ---------------------

    Doubly Occupied:                                                      

       1A    -40.760489     2A     -3.073819     3A     -1.797189  
       4A     -1.797155     5A     -1.797127  

    Virtual:                                                              

       6A     -0.181805     7A     -0.109438     8A     -0.109434  
       9A     -0.109430    10A     -0.070079    11A     -0.052512  
      12A     -0.052037    13A     -0.051993    14A     -0.051343  
      15A     -0.051009    16A     -0.049304    17A     -0.049230  
      18A     -0.049167    19A     -0.026865    20A     -0.014338  
      21A     -0.013558    22A     -0.013078    23A     -0.007902  
      24A     -0.007579    25A     -0.006471    26A     -0.003302  
      27A     -0.000912    28A      0.003138    29A      0.005152  
      30A      0.011780    31A      0.015806    32A      0.021101  
      33A      0.026222    34A      0.031552    35A      0.032511  
      36A      0.042391    37A      0.045215    38A      0.055337  
      39A      0.064656    40A      0.070080    41A      0.074047  
      42A      0.076635    43A      0.083668    44A      0.088328  
      45A      0.094606    46A      0.099650    47A      0.102620  
      48A      0.112598    49A      0.117655    50A      0.120833  
      51A      0.124707    52A      0.125195    53A      0.134666  
      54A      0.135970    55A      0.143278    56A      0.144494  
      57A      0.169837    58A      0.181177    59A      0.187669  
      60A      0.194320    61A      0.198572    62A      0.202113  
      63A      0.207127    64A      0.214213    65A      0.224436  
      66A      0.226085    67A      0.237150    68A      0.239272  
      69A      0.244595    70A      0.247513    71A      0.250571  
      72A      0.256756    73A      0.264518    74A      0.265528  
      75A      0.273201    76A      0.276107    77A      0.281162  
      78A      0.286567    79A      0.289592    80A      0.293059  
      81A      0.298574    82A      0.301318    83A      0.306340  
      84A      0.313300    85A      0.317433    86A      0.321989  
      87A      0.330090    88A      0.335331    89A      0.337577  
      90A      0.344284    91A      0.347661    92A      0.352110  
      93A      0.354250    94A      0.356936    95A      0.372299  
      96A      0.377781    97A      0.378412    98A      0.383827  
      99A      0.391907   100A      0.392442   101A      0.403759  
     102A      0.422850   103A      0.427552   104A      0.438021  
     105A      0.447561   106A      0.451181   107A      0.457619  
     108A      0.465072   109A      0.476763   110A      0.487284  
     111A      0.491084   112A      0.516978   113A      0.539534  
     114A      0.546583   115A      0.555071   116A      0.557049  
     117A      0.563619   118A      0.575902   119A      0.587774  
     120A      0.604820   121A      0.612984   122A      0.619646  
     123A      0.636584   124A      0.639740   125A      0.645316  
     126A      0.660610   127A      0.666186   128A      0.679848  
     129A      0.686497   130A      0.695382   131A      0.702269  
     132A      0.711690   133A      0.719331   134A      0.727749  
     135A      0.732034   136A      0.746270   137A      0.756630  
     138A      0.764470   139A      0.766015   140A      0.771212  
     141A      0.773753   142A      0.787709   143A      0.792480  
     144A      0.799286   145A      0.809626   146A      0.814129  
     147A      0.816997   148A      0.824857   149A      0.832341  
     150A      0.840894   151A      0.845683   152A      0.851480  
     153A      0.874148   154A      0.875023   155A      0.878569  
     156A      0.886656   157A      0.890100   158A      0.899400  
     159A      0.902443   160A      0.911525   161A      0.919932  
     162A      0.925281   163A      0.929511   164A      0.938954  
     165A      0.940423   166A      0.943038   167A      0.958074  
     168A      0.969038   169A      0.971006   170A      0.975478  
     171A      0.984101   172A      0.990138   173A      1.003111  
     174A      1.009267   175A      1.013338   176A      1.016606  
     177A      1.025745   178A      1.030639   179A      1.043128  
     180A      1.052107   181A      1.060303   182A      1.065667  
     183A      1.067170   184A      1.085596   185A      1.092952  
     186A      1.098340   187A      1.101712   188A      1.113509  
     189A      1.117414   190A      1.132080   191A      1.143255  
     192A      1.155670   193A      1.161188   194A      1.174595  
     195A      1.181159   196A      1.195499   197A      1.207280  
     198A      1.215238   199A      1.217180   200A      1.224864  
     201A      1.236024   202A      1.250008   203A      1.259360  
     204A      1.270409   205A      1.272137   206A      1.277846  
     207A      1.288570   208A      1.307400   209A      1.335826  
     210A      1.343248   211A      1.366742   212A      1.369920  
     213A      1.401181   214A      1.440490   215A      1.442534  
     216A      1.459042   217A      1.478951   218A      1.496832  
     219A      1.510034   220A      1.540839   221A      1.554776  
     222A      1.564105   223A      1.582341   224A      1.613041  
     225A      1.628586   226A      1.651328   227A      1.659235  
     228A      1.670201   229A      1.681434   230A      1.683659  
     231A      1.701782   232A      1.705358   233A      1.723220  
     234A      1.728909   235A      1.740861   236A      1.748976  
     237A      1.759643   238A      1.765444   239A      1.782030  
     240A      1.799005   241A      1.803491   242A      1.818438  
     243A      1.829392   244A      1.839721   245A      1.850912  
     246A      1.852428   247A      1.865625   248A      1.872162  
     249A      1.891355   250A      1.905077   251A      1.938248  
     252A      1.950763   253A      1.977017   254A      2.053084  
     255A      2.202903   256A      2.217723   257A      2.238860  
     258A      2.265718   259A      2.272821   260A      2.302039  
     261A      2.326132   262A      2.337804   263A      2.341581  
     264A      2.360660   265A      2.366994   266A      2.384247  
     267A      2.396465   268A      2.397652   269A      2.416065  
     270A      2.428552   271A      2.431765   272A      2.442357  
     273A      2.448436   274A      2.465123   275A      2.492697  
     276A      2.505988   277A      2.515722   278A      2.523578  
     279A      2.535752   280A      2.551911   281A      2.563395  
     282A      2.572281   283A      2.589924   284A      2.609847  
     285A      2.625645   286A      2.641521   287A      2.661240  
     288A      2.682198   289A      2.715198   290A      2.720993  
     291A      2.729778   292A      2.734682   293A      2.755591  
     294A      2.777901   295A      2.794835   296A      2.812236  
     297A      2.844783   298A      2.873429   299A      2.905205  
     300A      2.989877   301A      2.997486   302A      3.005708  
     303A      3.014101   304A      3.037479   305A      3.046783  
     306A      3.056605   307A      3.059964   308A      3.075257  
     309A      3.077104   310A      3.094122   311A      3.112870  
     312A      3.124660   313A      3.143399   314A      3.145496  
     315A      3.155389   316A      3.160718   317A      3.184819  
     318A      3.195398   319A      3.212192   320A      3.229430  
     321A      3.238716   322A      3.257879   323A      3.293568  
     324A      3.307372   325A      3.339686   326A      3.433300  
     327A      3.452607   328A      3.496866   329A      3.522015  
     330A      3.540689   331A      3.566097   332A      3.582378  
     333A      3.594024   334A      3.612007   335A      3.645286  
     336A      4.199510   337A      4.215429   338A      4.232887  
     339A      4.255691   340A      4.320045   341A      4.325542  
     342A      4.335129   343A      4.349240   344A      4.361122  
     345A      4.363106   346A      4.384104   347A      4.393604  
     348A      4.407935   349A      4.421323   350A      4.431582  
     351A      4.464565   352A      4.475153   353A      4.491882  
     354A      4.501359   355A      4.537077   356A      4.557925  
     357A      4.562381   358A      4.581231   359A      4.595358  
     360A      4.619719   361A      4.636943   362A      4.650545  
     363A      4.652653   364A      4.661372   365A      4.700164  
     366A      4.821790   367A      4.832585   368A      4.842532  
     369A      4.849403   370A      4.856811   371A      4.874567  
     372A      4.891055   373A      4.892750   374A      4.929560  
     375A      4.931524   376A      4.944952   377A      4.976302  
     378A      5.000340   379A      5.010308   380A      5.024873  
     381A      5.048323   382A      5.063203   383A      5.090688  
     384A      5.119799   385A      5.150116   386A      5.205945  
     387A      5.251377   388A      5.254685   389A      5.275925  
     390A      5.317535   391A      5.332473   392A      5.359383  
     393A      5.368461   394A      5.382553   395A      5.388186  
     396A      5.450029   397A      5.461443   398A      5.491769  
     399A      5.530525   400A      5.564068   401A      5.586413  
     402A      5.591260   403A      5.624327   404A      5.665118  
     405A      5.735115   406A      5.992884   407A      6.006995  
     408A      6.011285   409A      6.025571   410A      6.051073  
     411A      6.081865   412A      6.140799   413A      6.150297  
     414A      6.179707   415A      6.239718   416A      6.445083  
     417A      6.510384   418A      6.544181   419A      6.563427  
     420A      6.669812   421A      6.680201   422A      6.786621  
     423A      6.841593   424A      6.888582   425A      6.937015  
     426A      7.459234   427A      7.508811   428A      7.523435  
     429A      7.540431   430A      7.552576   431A      7.559302  
     432A      7.567910   433A      7.588390   434A      7.632200  
     435A      7.652171   436A      7.859206   437A      7.873726  
     438A      7.877480   439A      7.893871   440A      7.943109  
     441A      7.967279   442A      7.978984   443A      7.997149  
     444A      8.012047   445A      8.022469   446A      8.032342  
     447A      8.046011   448A      8.071582   449A      8.093040  
     450A      8.101860   451A      8.359521   452A      8.399367  
     453A      8.468890   454A      8.478750   455A      8.500494  
     456A      8.509860   457A      8.560059   458A      8.623974  
     459A      8.641158   460A      8.697335   461A      9.608217  
     462A      9.662572   463A      9.668145   464A      9.684956  
     465A      9.702106   466A      9.724315   467A      9.749074  
     468A      9.764176   469A      9.777998   470A      9.791639  
     471A      9.820482   472A      9.835819   473A      9.850291  
     474A      9.856808   475A      9.890278   476A      9.941992  
     477A      9.973756   478A      9.988061   479A     10.019951  
     480A     10.089499   481A     10.678410   482A     10.767288  
     483A     10.804121   484A     10.872341   485A     10.963065  
     486A     11.465576   487A     11.484368   488A     11.522653  
     489A     11.548814   490A     11.589522   491A     11.608316  
     492A     11.754047   493A     11.841424   494A     11.939634  
     495A     11.976427   496A     13.086150   497A     13.159821  
     498A     13.220702   499A     13.315357   500A     13.399517  
     501A     13.732675   502A     13.756246   503A     13.766057  
     504A     13.782575   505A     13.833088   506A     62.668170  
     507A     63.824743   508A     64.118098   509A     64.644721  
     510A     64.885243  

    Final Occupation by Irrep:
              A 
    DOCC [     5 ]
    NA   [     5 ]
    NB   [     5 ]

  @DF-RHF Final Energy:  -161.67608988670312

   => Energetics <=

    Nuclear Repulsion Energy =              0.0000000000000000
    One-Electron Energy =                -224.9006221356725632
    Two-Electron Energy =                  63.2245322489694601
    Total Energy =                       -161.6760898867030960

Computation Completed


Properties will be evaluated at   0.000000,   0.000000,   0.000000 [a0]

Properties computed using the SCF density matrix


 Multipole Moments:

 ------------------------------------------------------------------------------------
     Multipole            Electronic (a.u.)      Nuclear  (a.u.)        Total (a.u.)
 ------------------------------------------------------------------------------------

 L = 1.  Multiply by 2.5417464519 to convert [e a0] to [Debye]
 Dipole X            :         -0.0000054            0.0000000           -0.0000054
 Dipole Y            :         -0.0001162            0.0000000           -0.0001162
 Dipole Z            :          0.0000359            0.0000000            0.0000359
 Magnitude           :                                                    0.0001217

 ------------------------------------------------------------------------------------

*** tstop() called on ddmfs1 at Mon Jan 22 14:28:36 2024
Module time:
	user time   =      83.08 seconds =       1.38 minutes
	system time =       7.18 seconds =       0.12 minutes
	total time  =          7 seconds =       0.12 minutes
Total time:
	user time   =      83.08 seconds =       1.38 minutes
	system time =       7.18 seconds =       0.12 minutes
	total time  =          7 seconds =       0.12 minutes

*** tstart() called on ddmfs1
*** at Mon Jan 22 14:28:36 2024


  //>>>>>>>>>>>>>>>>>>>>>>>>>>>>>>>>>>>//
  //               DFMP2               //
  //<<<<<<<<<<<<<<<<<<<<<<<<<<<<<<<<<<<//

   => Loading Basis Set <=

    Name: (AUG-CC-PVTZ AUX)
    Role: RIFIT
    Keyword: DF_BASIS_MP2
    atoms 1                            entry NA         line   610 file /ddmfs1b/softs/psi4conda/share/psi4/basis/def2-qzvpp-ri.gbs 
    atoms 2, 5, 8, 11, 14              entry O          line   264 file /ddmfs1b/softs/psi4conda/share/psi4/basis/aug-cc-pvtz-ri.gbs 
    atoms 3-4, 6-7, 9-10, 12-13, 15-16 entry H          line    30 file /ddmfs1b/softs/psi4conda/share/psi4/basis/aug-cc-pvtz-ri.gbs 

	 --------------------------------------------------------
	                          DF-MP2                         
	      2nd-Order Density-Fitted Moller-Plesset Theory     
	              RMP2 Wavefunction,  20 Threads             
	                                                         
	        Rob Parrish, Justin Turney, Andy Simmonett,      
	           Ed Hohenstein, and C. David Sherrill          
	 --------------------------------------------------------

   => Auxiliary Basis Set <=

  Basis Set: (AUG-CC-PVTZ AUX)
    Blend: AUG-CC-PVTZ-RI + DEF2-QZVPP-RI
    Number of shells: 322
    Number of basis functions: 1156
    Number of Cartesian functions: 1444
    Spherical Harmonics?: true
    Max angular momentum: 4

	 --------------------------------------------------------
	                 NBF =   510, NAUX =  1156
	 --------------------------------------------------------
	   CLASS    FOCC     OCC    AOCC    AVIR     VIR    FVIR
	   PAIRS       0       5       5     505     505       0
	 --------------------------------------------------------

	-----------------------------------------------------------
	 ==================> DF-MP2 Energies <==================== 
	-----------------------------------------------------------
	 Reference Energy          =    -161.6760898867031244 [Eh]
	 Singles Energy            =      -0.0000000000000000 [Eh]
	 Same-Spin Energy          =      -0.0059867131958907 [Eh]
	 Opposite-Spin Energy      =      -0.0185145122393836 [Eh]
	 Correlation Energy        =      -0.0245012254352743 [Eh]
	 Total Energy              =    -161.7005911121383974 [Eh]
	-----------------------------------------------------------
	 ================> DF-SCS-MP2 Energies <================== 
	-----------------------------------------------------------
	 SCS Same-Spin Scale       =       0.3333333333333333 [-]
	 SCS Opposite-Spin Scale   =       1.2000000000000000 [-]
	 SCS Same-Spin Energy      =      -0.0019955710652969 [Eh]
	 SCS Opposite-Spin Energy  =      -0.0222174146872604 [Eh]
	 SCS Correlation Energy    =      -0.0242129857525573 [Eh]
	 SCS Total Energy          =    -161.7003028724556941 [Eh]
	-----------------------------------------------------------


*** tstop() called on ddmfs1 at Mon Jan 22 14:28:42 2024
Module time:
	user time   =      28.98 seconds =       0.48 minutes
	system time =       1.93 seconds =       0.03 minutes
	total time  =          6 seconds =       0.10 minutes
Total time:
	user time   =     112.07 seconds =       1.87 minutes
	system time =       9.11 seconds =       0.15 minutes
	total time  =         13 seconds =       0.22 minutes

    Psi4 stopped on: Monday, 22 January 2024 02:28PM
    Psi4 wall time for execution: 0:00:12.97

*** Psi4 exiting successfully. Buy a developer a beer!
