
    -----------------------------------------------------------------------
          Psi4: An Open-Source Ab Initio Electronic Structure Package
                               Psi4 1.8.2 release

                         Git: Rev {} zzzzzzz 


    D. G. A. Smith, L. A. Burns, A. C. Simmonett, R. M. Parrish,
    M. C. Schieber, R. Galvelis, P. Kraus, H. Kruse, R. Di Remigio,
    A. Alenaizan, A. M. James, S. Lehtola, J. P. Misiewicz, M. Scheurer,
    R. A. Shaw, J. B. Schriber, Y. Xie, Z. L. Glick, D. A. Sirianni,
    J. S. O'Brien, J. M. Waldrop, A. Kumar, E. G. Hohenstein,
    B. P. Pritchard, B. R. Brooks, H. F. Schaefer III, A. Yu. Sokolov,
    K. Patkowski, A. E. DePrince III, U. Bozkaya, R. A. King,
    F. A. Evangelista, J. M. Turney, T. D. Crawford, C. D. Sherrill,
    J. Chem. Phys. 152(18) 184108 (2020). https://doi.org/10.1063/5.0006002

                            Additional Code Authors
    E. T. Seidl, C. L. Janssen, E. F. Valeev, M. L. Leininger,
    J. F. Gonthier, R. M. Richard, H. R. McAlexander, M. Saitow, X. Wang,
    P. Verma, M. H. Lechner, A. Jiang, S. Behnle, A. G. Heide,
    M. F. Herbst, and D. L. Poole

             Previous Authors, Complete List of Code Contributors,
                       and Citations for Specific Modules
    https://github.com/psi4/psi4/blob/master/codemeta.json
    https://github.com/psi4/psi4/graphs/contributors
    http://psicode.org/psi4manual/master/introduction.html#citing-psifour

    -----------------------------------------------------------------------


    Psi4 started on: Monday, 22 January 2024 01:59PM

    Process ID: 64333
    Host:       ddmfs1
    PSIDATADIR: /ddmfs1b/softs/psi4conda/share/psi4
    Memory:     500.0 MiB
    Threads:    20
    
  ==> Input File <==

--------------------------------------------------------------------------
MEMORY 60 GB

molecule dimer {
0 1
Gh(Na)     0.000000     0.000000     0.000000
O         -1.270703     1.958564     0.911769
H         -2.124725     1.551684     0.575181
H         -1.379974     2.228364     1.821269
Gh(O)      0.587472    -2.201463     0.748927
Gh(H)     -0.101641    -2.358357     1.431600
Gh(H)      1.379076    -2.483852     1.213110
Gh(O)     -2.211830    -1.319853     0.286643
Gh(H)     -2.899654    -0.680785     0.484013
Gh(H)     -1.960837    -1.588265     1.197980
Gh(O)      1.514145     0.926826     1.650245
Gh(H)      1.294798     1.672359     2.220085
Gh(H)      2.399115     1.116522     1.261384
Gh(O)     -0.863562     0.600979    -1.935483
Gh(H)     -1.872318     0.424331    -1.975920
Gh(H)     -0.615829     1.523469    -1.858067

units ang
no_reorient
no_com
symmetry c1
}

set {
basis        aug-cc-pVTZ
scf_type     df
}

energy("mp2")
--------------------------------------------------------------------------

  Memory set to  55.879 GiB by Python driver.

Scratch directory: /ddmfs1a/scratch/
   => Libint2 <=

    Primary   basis highest AM E, G, H:  5, 4, 3
    Auxiliary basis highest AM E, G, H:  6, 5, 4
    Onebody   basis highest AM E, G, H:  6, 5, 4
    Solid Harmonics ordering:            gaussian

*** tstart() called on ddmfs1
*** at Mon Jan 22 13:59:31 2024

   => Loading Basis Set <=

    Name: AUG-CC-PVTZ
    Role: ORBITAL
    Keyword: BASIS
    atoms 1                            entry NA         line   469 file /ddmfs1b/softs/psi4conda/share/psi4/basis/aug-cc-pvtz.gbs 
    atoms 2, 5, 8, 11, 14              entry O          line   331 file /ddmfs1b/softs/psi4conda/share/psi4/basis/aug-cc-pvtz.gbs 
    atoms 3-4, 6-7, 9-10, 12-13, 15-16 entry H          line    40 file /ddmfs1b/softs/psi4conda/share/psi4/basis/aug-cc-pvtz.gbs 


         ---------------------------------------------------------
                                   SCF
               by Justin Turney, Rob Parrish, Andy Simmonett
                          and Daniel G. A. Smith
                              RHF Reference
                       20 Threads,  57220 MiB Core
         ---------------------------------------------------------

  ==> Geometry <==

    Molecular point group: c1
    Full point group: C1

    Geometry (in Angstrom), charge = 0, multiplicity = 1:

       Center              X                  Y                   Z               Mass       
    ------------   -----------------  -----------------  -----------------  -----------------
      Gh(NA)          0.000000000000     0.000000000000     0.000000000000    22.989769282000
         O           -1.270703000000     1.958564000000     0.911769000000    15.994914619570
         H           -2.124725000000     1.551684000000     0.575181000000     1.007825032230
         H           -1.379974000000     2.228364000000     1.821269000000     1.007825032230
      Gh(O)           0.587472000000    -2.201463000000     0.748927000000    15.994914619570
      Gh(H)          -0.101641000000    -2.358357000000     1.431600000000     1.007825032230
      Gh(H)           1.379076000000    -2.483852000000     1.213110000000     1.007825032230
      Gh(O)          -2.211830000000    -1.319853000000     0.286643000000    15.994914619570
      Gh(H)          -2.899654000000    -0.680785000000     0.484013000000     1.007825032230
      Gh(H)          -1.960837000000    -1.588265000000     1.197980000000     1.007825032230
      Gh(O)           1.514145000000     0.926826000000     1.650245000000    15.994914619570
      Gh(H)           1.294798000000     1.672359000000     2.220085000000     1.007825032230
      Gh(H)           2.399115000000     1.116522000000     1.261384000000     1.007825032230
      Gh(O)          -0.863562000000     0.600979000000    -1.935483000000    15.994914619570
      Gh(H)          -1.872318000000     0.424331000000    -1.975920000000     1.007825032230
      Gh(H)          -0.615829000000     1.523469000000    -1.858067000000     1.007825032230

  Running in c1 symmetry.

  Rotational constants: A =      0.05088  B =      0.04952  C =      0.03839 [cm^-1]
  Rotational constants: A =   1525.27884  B =   1484.64078  C =   1150.98178 [MHz]
  Nuclear repulsion =    8.979716479551278

  Charge       = 0
  Multiplicity = 1
  Electrons    = 10
  Nalpha       = 5
  Nbeta        = 5

  ==> Algorithm <==

  SCF Algorithm Type is DF.
  DIIS enabled.
  MOM disabled.
  Fractional occupation disabled.
  Guess Type is SAD.
  Energy threshold   = 1.00e-08
  Density threshold  = 1.00e-08
  Integral threshold = 1.00e-12

  ==> Primary Basis <==

  Basis Set: AUG-CC-PVTZ
    Blend: AUG-CC-PVTZ
    Number of shells: 176
    Number of basis functions: 510
    Number of Cartesian functions: 584
    Spherical Harmonics?: true
    Max angular momentum: 3

   => Loading Basis Set <=

    Name: (AUG-CC-PVTZ AUX)
    Role: JKFIT
    Keyword: DF_BASIS_SCF
    atoms 1                            entry NA         line   498 file /ddmfs1b/softs/psi4conda/share/psi4/basis/def2-universal-jkfit.gbs 
    atoms 2, 5, 8, 11, 14              entry O          line   286 file /ddmfs1b/softs/psi4conda/share/psi4/basis/aug-cc-pvtz-jkfit.gbs 
    atoms 3-4, 6-7, 9-10, 12-13, 15-16 entry H          line    70 file /ddmfs1b/softs/psi4conda/share/psi4/basis/aug-cc-pvtz-jkfit.gbs 

  ==> Integral Setup <==

  DFHelper Memory: AOs need 2.055 GiB; user supplied 41.910 GiB. 
  Using in-core AOs.

  ==> MemDFJK: Density-Fitted J/K Matrices <==

    J tasked:                   Yes
    K tasked:                   Yes
    wK tasked:                   No
    OpenMP threads:              20
    Memory [MiB]:             42915
    Algorithm:                 Core
    Schwarz Cutoff:           1E-12
    Mask sparsity (%):       7.5925
    Fitting Condition:        1E-10

   => Auxiliary Basis Set <=

  Basis Set: (AUG-CC-PVTZ AUX)
    Blend: AUG-CC-PVTZ-JKFIT + DEF2-UNIVERSAL-JKFIT
    Number of shells: 324
    Number of basis functions: 1092
    Number of Cartesian functions: 1342
    Spherical Harmonics?: true
    Max angular momentum: 4

  Minimum eigenvalue in the overlap matrix is 3.6915396177E-05.
  Reciprocal condition number of the overlap matrix is 2.4969847080E-06.
    Using symmetric orthogonalization.

  ==> Pre-Iterations <==

  SCF Guess: Superposition of Atomic Densities via on-the-fly atomic UHF (no occupation information).

   -------------------------
    Irrep   Nso     Nmo    
   -------------------------
     A        510     510 
   -------------------------
    Total     510     510
   -------------------------

  ==> Iterations <==

                           Total Energy        Delta E     RMS |[F,P]|

   @DF-RHF iter SAD:   -75.44667583387027   -7.54467e+01   0.00000e+00 
   @DF-RHF iter   1:   -75.97174130387850   -5.25065e-01   9.16786e-04 ADIIS/DIIS
   @DF-RHF iter   2:   -76.02356327628030   -5.18220e-02   6.36422e-04 ADIIS/DIIS
   @DF-RHF iter   3:   -76.05630339226450   -3.27401e-02   4.34754e-05 DIIS
   @DF-RHF iter   4:   -76.05673235978530   -4.28968e-04   1.09576e-05 DIIS
   @DF-RHF iter   5:   -76.05676227916908   -2.99194e-05   2.55255e-06 DIIS
   @DF-RHF iter   6:   -76.05676487758483   -2.59842e-06   5.78622e-07 DIIS
   @DF-RHF iter   7:   -76.05676502400391   -1.46419e-07   1.08250e-07 DIIS
   @DF-RHF iter   8:   -76.05676502847069   -4.46678e-09   1.85142e-08 DIIS
   @DF-RHF iter   9:   -76.05676502857786   -1.07164e-10   4.88681e-09 DIIS
  Energy and wave function converged.


  ==> Post-Iterations <==

    Orbital Energies [Eh]
    ---------------------

    Doubly Occupied:                                                      

       1A    -20.568266     2A     -1.339332     3A     -0.715046  
       4A     -0.570486     5A     -0.506955  

    Virtual:                                                              

       6A      0.007629     7A      0.016206     8A      0.016771  
       9A      0.018242    10A      0.038178    11A      0.051618  
      12A      0.053708    13A      0.054276    14A      0.056842  
      15A      0.057141    16A      0.057916    17A      0.059362  
      18A      0.065923    19A      0.081034    20A      0.082460  
      21A      0.085778    22A      0.087117    23A      0.091742  
      24A      0.093147    25A      0.095605    26A      0.103744  
      27A      0.110852    28A      0.122378    29A      0.135170  
      30A      0.138471    31A      0.141820    32A      0.159982  
      33A      0.164809    34A      0.170129    35A      0.171030  
      36A      0.175122    37A      0.186593    38A      0.194617  
      39A      0.199835    40A      0.206946    41A      0.208936  
      42A      0.211948    43A      0.219436    44A      0.221875  
      45A      0.224678    46A      0.228737    47A      0.243676  
      48A      0.248160    49A      0.255909    50A      0.273549  
      51A      0.277623    52A      0.281855    53A      0.288415  
      54A      0.299112    55A      0.305100    56A      0.308476  
      57A      0.317558    58A      0.328566    59A      0.333808  
      60A      0.337689    61A      0.347475    62A      0.351789  
      63A      0.356383    64A      0.368793    65A      0.372316  
      66A      0.374120    67A      0.382175    68A      0.383582  
      69A      0.391774    70A      0.394166    71A      0.400520  
      72A      0.408842    73A      0.419253    74A      0.421076  
      75A      0.423903    76A      0.429883    77A      0.438076  
      78A      0.442782    79A      0.448007    80A      0.454394  
      81A      0.457847    82A      0.465036    83A      0.466315  
      84A      0.474520    85A      0.477576    86A      0.482567  
      87A      0.489530    88A      0.491393    89A      0.502462  
      90A      0.505944    91A      0.512122    92A      0.512788  
      93A      0.521013    94A      0.531746    95A      0.539112  
      96A      0.543886    97A      0.550807    98A      0.553924  
      99A      0.559300   100A      0.569100   101A      0.576733  
     102A      0.590722   103A      0.604627   104A      0.611364  
     105A      0.644530   106A      0.646252   107A      0.666192  
     108A      0.678740   109A      0.692009   110A      0.707682  
     111A      0.719461   112A      0.734300   113A      0.746441  
     114A      0.749206   115A      0.762950   116A      0.772217  
     117A      0.777418   118A      0.782318   119A      0.800703  
     120A      0.810808   121A      0.816404   122A      0.823804  
     123A      0.828836   124A      0.840245   125A      0.844160  
     126A      0.854374   127A      0.858245   128A      0.868897  
     129A      0.871046   130A      0.877682   131A      0.892712  
     132A      0.900033   133A      0.907138   134A      0.907934  
     135A      0.921041   136A      0.924798   137A      0.930310  
     138A      0.935275   139A      0.943248   140A      0.955257  
     141A      0.959864   142A      0.961652   143A      0.969546  
     144A      0.985684   145A      0.988663   146A      0.994511  
     147A      0.999089   148A      1.008456   149A      1.017586  
     150A      1.024484   151A      1.028501   152A      1.035500  
     153A      1.045368   154A      1.053796   155A      1.058123  
     156A      1.069450   157A      1.075242   158A      1.079137  
     159A      1.084441   160A      1.086874   161A      1.104490  
     162A      1.114034   163A      1.120475   164A      1.121233  
     165A      1.129912   166A      1.133656   167A      1.142477  
     168A      1.151845   169A      1.156688   170A      1.164701  
     171A      1.174671   172A      1.187574   173A      1.193310  
     174A      1.198647   175A      1.208209   176A      1.217260  
     177A      1.235522   178A      1.239863   179A      1.245819  
     180A      1.249299   181A      1.257610   182A      1.278986  
     183A      1.284879   184A      1.298598   185A      1.304198  
     186A      1.311502   187A      1.321427   188A      1.329365  
     189A      1.342056   190A      1.351317   191A      1.364119  
     192A      1.369589   193A      1.378356   194A      1.395667  
     195A      1.403403   196A      1.404886   197A      1.415582  
     198A      1.427867   199A      1.443642   200A      1.450888  
     201A      1.460667   202A      1.468219   203A      1.488337  
     204A      1.498272   205A      1.508213   206A      1.516223  
     207A      1.540361   208A      1.549459   209A      1.552900  
     210A      1.566824   211A      1.578487   212A      1.599533  
     213A      1.612822   214A      1.623564   215A      1.632017  
     216A      1.639933   217A      1.664981   218A      1.683588  
     219A      1.707247   220A      1.712145   221A      1.737171  
     222A      1.754638   223A      1.761960   224A      1.784034  
     225A      1.786305   226A      1.815018   227A      1.828759  
     228A      1.848541   229A      1.851192   230A      1.860408  
     231A      1.874735   232A      1.898600   233A      1.906160  
     234A      1.922861   235A      1.929594   236A      1.938885  
     237A      1.943549   238A      1.957614   239A      1.967248  
     240A      1.968181   241A      1.979789   242A      1.986581  
     243A      1.998499   244A      2.026967   245A      2.029751  
     246A      2.045193   247A      2.063699   248A      2.077138  
     249A      2.105086   250A      2.119697   251A      2.139359  
     252A      2.146750   253A      2.221751   254A      2.230097  
     255A      2.257796   256A      2.405257   257A      2.434001  
     258A      2.466875   259A      2.473184   260A      2.492745  
     261A      2.510633   262A      2.544569   263A      2.551490  
     264A      2.555279   265A      2.576664   266A      2.602730  
     267A      2.606030   268A      2.619046   269A      2.628026  
     270A      2.638222   271A      2.649392   272A      2.659088  
     273A      2.666402   274A      2.686659   275A      2.703434  
     276A      2.715540   277A      2.738227   278A      2.742219  
     279A      2.756692   280A      2.767775   281A      2.778398  
     282A      2.780099   283A      2.808177   284A      2.819383  
     285A      2.823494   286A      2.835418   287A      2.856153  
     288A      2.880265   289A      2.895542   290A      2.921975  
     291A      2.929036   292A      2.947229   293A      2.969244  
     294A      2.979786   295A      3.003645   296A      3.011830  
     297A      3.036977   298A      3.048325   299A      3.081375  
     300A      3.100489   301A      3.117905   302A      3.147922  
     303A      3.180764   304A      3.206656   305A      3.208602  
     306A      3.233925   307A      3.241580   308A      3.253570  
     309A      3.264931   310A      3.277543   311A      3.306384  
     312A      3.321931   313A      3.331984   314A      3.341440  
     315A      3.367124   316A      3.373726   317A      3.395987  
     318A      3.407727   319A      3.429308   320A      3.449731  
     321A      3.460450   322A      3.510636   323A      3.551447  
     324A      3.597022   325A      3.650299   326A      3.675248  
     327A      3.700647   328A      3.767411   329A      3.785831  
     330A      3.803602   331A      3.831391   332A      3.847171  
     333A      3.961925   334A      4.171458   335A      4.282939  
     336A      4.306376   337A      4.374639   338A      4.436600  
     339A      4.440057   340A      4.462438   341A      4.478572  
     342A      4.481936   343A      4.526219   344A      4.531876  
     345A      4.553635   346A      4.555832   347A      4.567133  
     348A      4.580127   349A      4.586739   350A      4.595880  
     351A      4.627294   352A      4.633802   353A      4.659938  
     354A      4.665134   355A      4.668113   356A      4.710299  
     357A      4.714651   358A      4.731989   359A      4.739187  
     360A      4.754210   361A      4.763065   362A      4.776461  
     363A      4.794108   364A      4.806329   365A      4.828872  
     366A      4.839814   367A      4.863947   368A      4.910757  
     369A      4.975008   370A      5.006728   371A      5.031677  
     372A      5.038215   373A      5.050028   374A      5.074311  
     375A      5.089251   376A      5.099579   377A      5.121934  
     378A      5.139345   379A      5.151727   380A      5.164548  
     381A      5.181331   382A      5.248036   383A      5.264034  
     384A      5.291270   385A      5.327366   386A      5.342616  
     387A      5.413608   388A      5.435736   389A      5.459835  
     390A      5.471666   391A      5.494625   392A      5.525538  
     393A      5.590277   394A      5.600988   395A      5.612252  
     396A      5.630119   397A      5.642588   398A      5.677526  
     399A      5.698627   400A      5.707235   401A      5.726727  
     402A      5.731002   403A      5.843376   404A      5.866418  
     405A      5.903032   406A      5.974090   407A      5.984252  
     408A      6.174409   409A      6.224969   410A      6.257989  
     411A      6.293231   412A      6.300874   413A      6.366804  
     414A      6.380862   415A      6.399032   416A      6.422578  
     417A      6.605902   418A      6.678448   419A      6.686726  
     420A      6.708907   421A      6.758029   422A      6.811162  
     423A      6.920522   424A      7.002956   425A      7.045826  
     426A      7.064503   427A      7.083747   428A      7.103485  
     429A      7.197357   430A      7.224106   431A      7.341740  
     432A      7.395784   433A      7.423850   434A      7.449040  
     435A      7.460694   436A      7.519340   437A      7.670235  
     438A      7.731611   439A      7.752456   440A      7.776349  
     441A      7.795433   442A      7.824331   443A      7.842135  
     444A      7.912003   445A      7.922169   446A      7.961043  
     447A      7.994967   448A      8.102222   449A      8.124347  
     450A      8.132425   451A      8.146876   452A      8.168140  
     453A      8.172663   454A      8.229529   455A      8.296434  
     456A      8.306787   457A      8.312481   458A      8.331630  
     459A      8.377414   460A      8.656697   461A      8.729604  
     462A      8.740554   463A      8.769035   464A      8.785187  
     465A      8.805103   466A      8.821601   467A      8.857615  
     468A      8.884323   469A      9.832848   470A      9.915962  
     471A      9.926930   472A      9.978548   473A      9.994623  
     474A      9.997339   475A     10.012715   476A     10.038583  
     477A     10.052026   478A     10.071660   479A     10.098507  
     480A     10.114562   481A     10.138880   482A     10.241478  
     483A     10.249893   484A     10.386057   485A     10.878280  
     486A     11.134572   487A     11.192721   488A     11.229363  
     489A     11.841442   490A     11.868698   491A     11.882974  
     492A     11.961199   493A     12.098307   494A     12.106822  
     495A     12.182004   496A     12.237592   497A     13.418055  
     498A     13.504691   499A     13.555866   500A     13.641020  
     501A     13.951399   502A     13.977106   503A     13.995186  
     504A     14.085294   505A     15.763090   506A     64.632617  
     507A     64.735796   508A     64.839354   509A     65.120708  
     510A     65.903908  

    Final Occupation by Irrep:
              A 
    DOCC [     5 ]
    NA   [     5 ]
    NB   [     5 ]

  @DF-RHF Final Energy:   -76.05676502857786

   => Energetics <=

    Nuclear Repulsion Energy =              8.9797164795512785
    One-Electron Energy =                -122.6727899137954125
    Two-Electron Energy =                  37.6363084056662700
    Total Energy =                        -76.0567650285778569

Computation Completed


Properties will be evaluated at   0.000000,   0.000000,   0.000000 [a0]

Properties computed using the SCF density matrix


 Multipole Moments:

 ------------------------------------------------------------------------------------
     Multipole            Electronic (a.u.)      Nuclear  (a.u.)        Total (a.u.)
 ------------------------------------------------------------------------------------

 L = 1.  Multiply by 2.5417464519 to convert [e a0] to [Debye]
 Dipole X            :         25.1945689          -25.8331665           -0.6385976
 Dipole Y            :        -36.8406625           36.7524519           -0.0882106
 Dipole Z            :        -17.9253961           18.3125838            0.3871877
 Magnitude           :                                                    0.7519989

 ------------------------------------------------------------------------------------

*** tstop() called on ddmfs1 at Mon Jan 22 13:59:37 2024
Module time:
	user time   =      92.47 seconds =       1.54 minutes
	system time =       5.67 seconds =       0.09 minutes
	total time  =          6 seconds =       0.10 minutes
Total time:
	user time   =      92.47 seconds =       1.54 minutes
	system time =       5.67 seconds =       0.09 minutes
	total time  =          6 seconds =       0.10 minutes

*** tstart() called on ddmfs1
*** at Mon Jan 22 13:59:37 2024


  //>>>>>>>>>>>>>>>>>>>>>>>>>>>>>>>>>>>//
  //               DFMP2               //
  //<<<<<<<<<<<<<<<<<<<<<<<<<<<<<<<<<<<//

   => Loading Basis Set <=

    Name: (AUG-CC-PVTZ AUX)
    Role: RIFIT
    Keyword: DF_BASIS_MP2
    atoms 1                            entry NA         line   610 file /ddmfs1b/softs/psi4conda/share/psi4/basis/def2-qzvpp-ri.gbs 
    atoms 2, 5, 8, 11, 14              entry O          line   264 file /ddmfs1b/softs/psi4conda/share/psi4/basis/aug-cc-pvtz-ri.gbs 
    atoms 3-4, 6-7, 9-10, 12-13, 15-16 entry H          line    30 file /ddmfs1b/softs/psi4conda/share/psi4/basis/aug-cc-pvtz-ri.gbs 

	 --------------------------------------------------------
	                          DF-MP2                         
	      2nd-Order Density-Fitted Moller-Plesset Theory     
	              RMP2 Wavefunction,  20 Threads             
	                                                         
	        Rob Parrish, Justin Turney, Andy Simmonett,      
	           Ed Hohenstein, and C. David Sherrill          
	 --------------------------------------------------------

   => Auxiliary Basis Set <=

  Basis Set: (AUG-CC-PVTZ AUX)
    Blend: AUG-CC-PVTZ-RI + DEF2-QZVPP-RI
    Number of shells: 322
    Number of basis functions: 1156
    Number of Cartesian functions: 1444
    Spherical Harmonics?: true
    Max angular momentum: 4

	 --------------------------------------------------------
	                 NBF =   510, NAUX =  1156
	 --------------------------------------------------------
	   CLASS    FOCC     OCC    AOCC    AVIR     VIR    FVIR
	   PAIRS       0       5       5     505     505       0
	 --------------------------------------------------------

	-----------------------------------------------------------
	 ==================> DF-MP2 Energies <==================== 
	-----------------------------------------------------------
	 Reference Energy          =     -76.0567650285778569 [Eh]
	 Singles Energy            =      -0.0000000000000000 [Eh]
	 Same-Spin Energy          =      -0.0687258673328521 [Eh]
	 Opposite-Spin Energy      =      -0.2168621313698218 [Eh]
	 Correlation Energy        =      -0.2855879987026739 [Eh]
	 Total Energy              =     -76.3423530272805237 [Eh]
	-----------------------------------------------------------
	 ================> DF-SCS-MP2 Energies <================== 
	-----------------------------------------------------------
	 SCS Same-Spin Scale       =       0.3333333333333333 [-]
	 SCS Opposite-Spin Scale   =       1.2000000000000000 [-]
	 SCS Same-Spin Energy      =      -0.0229086224442840 [Eh]
	 SCS Opposite-Spin Energy  =      -0.2602345576437862 [Eh]
	 SCS Correlation Energy    =      -0.2831431800880702 [Eh]
	 SCS Total Energy          =     -76.3399082086659320 [Eh]
	-----------------------------------------------------------


*** tstop() called on ddmfs1 at Mon Jan 22 13:59:44 2024
Module time:
	user time   =      28.54 seconds =       0.48 minutes
	system time =       2.17 seconds =       0.04 minutes
	total time  =          7 seconds =       0.12 minutes
Total time:
	user time   =     121.03 seconds =       2.02 minutes
	system time =       7.84 seconds =       0.13 minutes
	total time  =         13 seconds =       0.22 minutes

    Psi4 stopped on: Monday, 22 January 2024 01:59PM
    Psi4 wall time for execution: 0:00:13.34

*** Psi4 exiting successfully. Buy a developer a beer!
