
    -----------------------------------------------------------------------
          Psi4: An Open-Source Ab Initio Electronic Structure Package
                               Psi4 1.8.2 release

                         Git: Rev {} zzzzzzz 


    D. G. A. Smith, L. A. Burns, A. C. Simmonett, R. M. Parrish,
    M. C. Schieber, R. Galvelis, P. Kraus, H. Kruse, R. Di Remigio,
    A. Alenaizan, A. M. James, S. Lehtola, J. P. Misiewicz, M. Scheurer,
    R. A. Shaw, J. B. Schriber, Y. Xie, Z. L. Glick, D. A. Sirianni,
    J. S. O'Brien, J. M. Waldrop, A. Kumar, E. G. Hohenstein,
    B. P. Pritchard, B. R. Brooks, H. F. Schaefer III, A. Yu. Sokolov,
    K. Patkowski, A. E. DePrince III, U. Bozkaya, R. A. King,
    F. A. Evangelista, J. M. Turney, T. D. Crawford, C. D. Sherrill,
    J. Chem. Phys. 152(18) 184108 (2020). https://doi.org/10.1063/5.0006002

                            Additional Code Authors
    E. T. Seidl, C. L. Janssen, E. F. Valeev, M. L. Leininger,
    J. F. Gonthier, R. M. Richard, H. R. McAlexander, M. Saitow, X. Wang,
    P. Verma, M. H. Lechner, A. Jiang, S. Behnle, A. G. Heide,
    M. F. Herbst, and D. L. Poole

             Previous Authors, Complete List of Code Contributors,
                       and Citations for Specific Modules
    https://github.com/psi4/psi4/blob/master/codemeta.json
    https://github.com/psi4/psi4/graphs/contributors
    http://psicode.org/psi4manual/master/introduction.html#citing-psifour

    -----------------------------------------------------------------------


    Psi4 started on: Monday, 22 January 2024 02:57PM

    Process ID: 69684
    Host:       ddmfs1
    PSIDATADIR: /ddmfs1b/softs/psi4conda/share/psi4
    Memory:     500.0 MiB
    Threads:    20
    
  ==> Input File <==

--------------------------------------------------------------------------
MEMORY 60 GB

molecule dimer {
1 1
Na         0.000000     0.000000     0.000000
Gh(O)      2.161813     1.206626    -0.266700
Gh(H)      2.702963     0.459594    -0.645875
Gh(H)      2.788583     1.720992     0.282642
Gh(O)     -0.556590    -0.575984    -2.179488
Gh(H)     -1.017472     0.122616    -2.697717
Gh(H)      0.357469    -0.689631    -2.443771
Gh(O)      0.229150     0.481834     2.206901
Gh(H)     -0.313539     1.262282     2.430655
Gh(H)      0.022652    -0.088819     2.940612
Gh(O)     -0.111430    -2.057137     0.450586
Gh(H)     -0.126469    -2.559975    -0.403823
Gh(H)     -0.555096    -2.521016     1.178518
Gh(O)     -1.173824     1.990268    -0.285624
Gh(H)     -1.323983     2.704336    -0.895645
Gh(H)     -1.221891     2.483177     0.551307

units ang
no_reorient
no_com
symmetry c1
}

set {
basis        aug-cc-pVTZ
scf_type     df
}

energy("mp2")
--------------------------------------------------------------------------

  Memory set to  55.879 GiB by Python driver.

Scratch directory: /ddmfs1a/scratch/
   => Libint2 <=

    Primary   basis highest AM E, G, H:  5, 4, 3
    Auxiliary basis highest AM E, G, H:  6, 5, 4
    Onebody   basis highest AM E, G, H:  6, 5, 4
    Solid Harmonics ordering:            gaussian

*** tstart() called on ddmfs1
*** at Mon Jan 22 14:57:16 2024

   => Loading Basis Set <=

    Name: AUG-CC-PVTZ
    Role: ORBITAL
    Keyword: BASIS
    atoms 1                            entry NA         line   469 file /ddmfs1b/softs/psi4conda/share/psi4/basis/aug-cc-pvtz.gbs 
    atoms 2, 5, 8, 11, 14              entry O          line   331 file /ddmfs1b/softs/psi4conda/share/psi4/basis/aug-cc-pvtz.gbs 
    atoms 3-4, 6-7, 9-10, 12-13, 15-16 entry H          line    40 file /ddmfs1b/softs/psi4conda/share/psi4/basis/aug-cc-pvtz.gbs 


         ---------------------------------------------------------
                                   SCF
               by Justin Turney, Rob Parrish, Andy Simmonett
                          and Daniel G. A. Smith
                              RHF Reference
                       20 Threads,  57220 MiB Core
         ---------------------------------------------------------

  ==> Geometry <==

    Molecular point group: c1
    Full point group: C1

    Geometry (in Angstrom), charge = 1, multiplicity = 1:

       Center              X                  Y                   Z               Mass       
    ------------   -----------------  -----------------  -----------------  -----------------
         NA           0.000000000000     0.000000000000     0.000000000000    22.989769282000
      Gh(O)           2.161813000000     1.206626000000    -0.266700000000    15.994914619570
      Gh(H)           2.702963000000     0.459594000000    -0.645875000000     1.007825032230
      Gh(H)           2.788583000000     1.720992000000     0.282642000000     1.007825032230
      Gh(O)          -0.556590000000    -0.575984000000    -2.179488000000    15.994914619570
      Gh(H)          -1.017472000000     0.122616000000    -2.697717000000     1.007825032230
      Gh(H)           0.357469000000    -0.689631000000    -2.443771000000     1.007825032230
      Gh(O)           0.229150000000     0.481834000000     2.206901000000    15.994914619570
      Gh(H)          -0.313539000000     1.262282000000     2.430655000000     1.007825032230
      Gh(H)           0.022652000000    -0.088819000000     2.940612000000     1.007825032230
      Gh(O)          -0.111430000000    -2.057137000000     0.450586000000    15.994914619570
      Gh(H)          -0.126469000000    -2.559975000000    -0.403823000000     1.007825032230
      Gh(H)          -0.555096000000    -2.521016000000     1.178518000000     1.007825032230
      Gh(O)          -1.173824000000     1.990268000000    -0.285624000000    15.994914619570
      Gh(H)          -1.323983000000     2.704336000000    -0.895645000000     1.007825032230
      Gh(H)          -1.221891000000     2.483177000000     0.551307000000     1.007825032230

  Running in c1 symmetry.

  Rotational constants: A =      0.05654  B =      0.05190  C =      0.04269 [cm^-1]
  Rotational constants: A =   1695.12982  B =   1556.05480  C =   1279.94587 [MHz]
  Nuclear repulsion =    0.000000000000000

  Charge       = 1
  Multiplicity = 1
  Electrons    = 10
  Nalpha       = 5
  Nbeta        = 5

  ==> Algorithm <==

  SCF Algorithm Type is DF.
  DIIS enabled.
  MOM disabled.
  Fractional occupation disabled.
  Guess Type is SAD.
  Energy threshold   = 1.00e-08
  Density threshold  = 1.00e-08
  Integral threshold = 1.00e-12

  ==> Primary Basis <==

  Basis Set: AUG-CC-PVTZ
    Blend: AUG-CC-PVTZ
    Number of shells: 176
    Number of basis functions: 510
    Number of Cartesian functions: 584
    Spherical Harmonics?: true
    Max angular momentum: 3

   => Loading Basis Set <=

    Name: (AUG-CC-PVTZ AUX)
    Role: JKFIT
    Keyword: DF_BASIS_SCF
    atoms 1                            entry NA         line   498 file /ddmfs1b/softs/psi4conda/share/psi4/basis/def2-universal-jkfit.gbs 
    atoms 2, 5, 8, 11, 14              entry O          line   286 file /ddmfs1b/softs/psi4conda/share/psi4/basis/aug-cc-pvtz-jkfit.gbs 
    atoms 3-4, 6-7, 9-10, 12-13, 15-16 entry H          line    70 file /ddmfs1b/softs/psi4conda/share/psi4/basis/aug-cc-pvtz-jkfit.gbs 

  ==> Integral Setup <==

  DFHelper Memory: AOs need 2.051 GiB; user supplied 41.910 GiB. 
  Using in-core AOs.

  ==> MemDFJK: Density-Fitted J/K Matrices <==

    J tasked:                   Yes
    K tasked:                   Yes
    wK tasked:                   No
    OpenMP threads:              20
    Memory [MiB]:             42915
    Algorithm:                 Core
    Schwarz Cutoff:           1E-12
    Mask sparsity (%):       7.8262
    Fitting Condition:        1E-10

   => Auxiliary Basis Set <=

  Basis Set: (AUG-CC-PVTZ AUX)
    Blend: AUG-CC-PVTZ-JKFIT + DEF2-UNIVERSAL-JKFIT
    Number of shells: 324
    Number of basis functions: 1092
    Number of Cartesian functions: 1342
    Spherical Harmonics?: true
    Max angular momentum: 4

  Minimum eigenvalue in the overlap matrix is 2.2614174704E-05.
  Reciprocal condition number of the overlap matrix is 1.6185436187E-06.
    Using symmetric orthogonalization.

  ==> Pre-Iterations <==

  SCF Guess: Superposition of Atomic Densities via on-the-fly atomic UHF (no occupation information).

   -------------------------
    Irrep   Nso     Nmo    
   -------------------------
     A        510     510 
   -------------------------
    Total     510     510
   -------------------------

  ==> Iterations <==

                           Total Energy        Delta E     RMS |[F,P]|

   @DF-RHF iter SAD:  -161.74574610396971   -1.61746e+02   0.00000e+00 
   @DF-RHF iter   1:  -161.67607448108549    6.96716e-02   1.26963e-05 DIIS
   @DF-RHF iter   2:  -161.67609309996556   -1.86189e-05   2.31567e-06 DIIS
   @DF-RHF iter   3:  -161.67609361135317   -5.11388e-07   1.12744e-07 DIIS
   @DF-RHF iter   4:  -161.67609361224464   -8.91475e-10   1.67026e-08 DIIS
   @DF-RHF iter   5:  -161.67609361226297   -1.83320e-11   6.42991e-10 DIIS
  Energy and wave function converged.


  ==> Post-Iterations <==

    Orbital Energies [Eh]
    ---------------------

    Doubly Occupied:                                                      

       1A    -40.760375     2A     -3.073780     3A     -1.797154  
       4A     -1.797143     5A     -1.797078  

    Virtual:                                                              

       6A     -0.181804     7A     -0.109437     8A     -0.109435  
       9A     -0.109429    10A     -0.070082    11A     -0.052185  
      12A     -0.052033    13A     -0.051594    14A     -0.051388  
      15A     -0.051312    16A     -0.049320    17A     -0.049237  
      18A     -0.049197    19A     -0.026892    20A     -0.013566  
      21A     -0.012193    22A     -0.011414    23A     -0.009551  
      24A     -0.008525    25A     -0.006558    26A     -0.005637  
      27A     -0.004152    28A     -0.002080    29A      0.001103  
      30A      0.015743    31A      0.017922    32A      0.022838  
      33A      0.025662    34A      0.028920    35A      0.031290  
      36A      0.039777    37A      0.044154    38A      0.068360  
      39A      0.070055    40A      0.073661    41A      0.076277  
      42A      0.078925    43A      0.088109    44A      0.093656  
      45A      0.096085    46A      0.100022    47A      0.103518  
      48A      0.109665    49A      0.111561    50A      0.117399  
      51A      0.121338    52A      0.125607    53A      0.135476  
      54A      0.145633    55A      0.151234    56A      0.162637  
      57A      0.173401    58A      0.180114    59A      0.183721  
      60A      0.191335    61A      0.196392    62A      0.203074  
      63A      0.207136    64A      0.210495    65A      0.224192  
      66A      0.228915    67A      0.233128    68A      0.236512  
      69A      0.248821    70A      0.252534    71A      0.258346  
      72A      0.260758    73A      0.262773    74A      0.265285  
      75A      0.268464    76A      0.272793    77A      0.284380  
      78A      0.287404    79A      0.291187    80A      0.301874  
      81A      0.306744    82A      0.311296    83A      0.314405  
      84A      0.321084    85A      0.325104    86A      0.328934  
      87A      0.331917    88A      0.339767    89A      0.343378  
      90A      0.348023    91A      0.349847    92A      0.356617  
      93A      0.360536    94A      0.361189    95A      0.370797  
      96A      0.377376    97A      0.385362    98A      0.388079  
      99A      0.396500   100A      0.406471   101A      0.414729  
     102A      0.428427   103A      0.430376   104A      0.434438  
     105A      0.454514   106A      0.458350   107A      0.464306  
     108A      0.465625   109A      0.482082   110A      0.492006  
     111A      0.509868   112A      0.527726   113A      0.537390  
     114A      0.549752   115A      0.557798   116A      0.562983  
     117A      0.569205   118A      0.583139   119A      0.594866  
     120A      0.610448   121A      0.631474   122A      0.635989  
     123A      0.643854   124A      0.648083   125A      0.657717  
     126A      0.661774   127A      0.674154   128A      0.686691  
     129A      0.696893   130A      0.705119   131A      0.710818  
     132A      0.719264   133A      0.728701   134A      0.732197  
     135A      0.732831   136A      0.742088   137A      0.752698  
     138A      0.761220   139A      0.765431   140A      0.774615  
     141A      0.777189   142A      0.792286   143A      0.796009  
     144A      0.816897   145A      0.822247   146A      0.823859  
     147A      0.825824   148A      0.831456   149A      0.842860  
     150A      0.852275   151A      0.856412   152A      0.860570  
     153A      0.868465   154A      0.875820   155A      0.888533  
     156A      0.894355   157A      0.898014   158A      0.907859  
     159A      0.913233   160A      0.917536   161A      0.923739  
     162A      0.928203   163A      0.938801   164A      0.944124  
     165A      0.949998   166A      0.956075   167A      0.963758  
     168A      0.970179   169A      0.972205   170A      0.979255  
     171A      0.991404   172A      0.998936   173A      1.014427  
     174A      1.019107   175A      1.027945   176A      1.038607  
     177A      1.043742   178A      1.052636   179A      1.058786  
     180A      1.070549   181A      1.076071   182A      1.079273  
     183A      1.092394   184A      1.099082   185A      1.108372  
     186A      1.114865   187A      1.118837   188A      1.132592  
     189A      1.136398   190A      1.140252   191A      1.158327  
     192A      1.160064   193A      1.169968   194A      1.183528  
     195A      1.190480   196A      1.206207   197A      1.209566  
     198A      1.217849   199A      1.222067   200A      1.235412  
     201A      1.260000   202A      1.269000   203A      1.275081  
     204A      1.279117   205A      1.288496   206A      1.301005  
     207A      1.307921   208A      1.327976   209A      1.330584  
     210A      1.352545   211A      1.357003   212A      1.369935  
     213A      1.391373   214A      1.418244   215A      1.437906  
     216A      1.454700   217A      1.479566   218A      1.496540  
     219A      1.519541   220A      1.540038   221A      1.564712  
     222A      1.597567   223A      1.611163   224A      1.631091  
     225A      1.640569   226A      1.656584   227A      1.662336  
     228A      1.663426   229A      1.676837   230A      1.684208  
     231A      1.694756   232A      1.700652   233A      1.707375  
     234A      1.716884   235A      1.734548   236A      1.752681  
     237A      1.758247   238A      1.770489   239A      1.792794  
     240A      1.805700   241A      1.808752   242A      1.813701  
     243A      1.814495   244A      1.836366   245A      1.844038  
     246A      1.855490   247A      1.867314   248A      1.893547  
     249A      1.898602   250A      1.907749   251A      1.933356  
     252A      1.964919   253A      2.036818   254A      2.064758  
     255A      2.199151   256A      2.237018   257A      2.263390  
     258A      2.270429   259A      2.280600   260A      2.290852  
     261A      2.309565   262A      2.319701   263A      2.329729  
     264A      2.356369   265A      2.365146   266A      2.377386  
     267A      2.393076   268A      2.401284   269A      2.404249  
     270A      2.420173   271A      2.437897   272A      2.443073  
     273A      2.444765   274A      2.457298   275A      2.464156  
     276A      2.486106   277A      2.493423   278A      2.518383  
     279A      2.529926   280A      2.542389   281A      2.556756  
     282A      2.574431   283A      2.582398   284A      2.609238  
     285A      2.628433   286A      2.672940   287A      2.677731  
     288A      2.702620   289A      2.716170   290A      2.737240  
     291A      2.756634   292A      2.774557   293A      2.782224  
     294A      2.800765   295A      2.822777   296A      2.857559  
     297A      2.898167   298A      2.911205   299A      2.912126  
     300A      2.990652   301A      3.008555   302A      3.011621  
     303A      3.021556   304A      3.030391   305A      3.044783  
     306A      3.050480   307A      3.062140   308A      3.070059  
     309A      3.093148   310A      3.094435   311A      3.102926  
     312A      3.139381   313A      3.147043   314A      3.160657  
     315A      3.178620   316A      3.188698   317A      3.197196  
     318A      3.210406   319A      3.217452   320A      3.236008  
     321A      3.242294   322A      3.272360   323A      3.286833  
     324A      3.296819   325A      3.405070   326A      3.426268  
     327A      3.465899   328A      3.477371   329A      3.513440  
     330A      3.538048   331A      3.566555   332A      3.576439  
     333A      3.587262   334A      3.610829   335A      3.650792  
     336A      4.199403   337A      4.231144   338A      4.239390  
     339A      4.279315   340A      4.300450   341A      4.318016  
     342A      4.331270   343A      4.351102   344A      4.362968  
     345A      4.378789   346A      4.387300   347A      4.395824  
     348A      4.411383   349A      4.433596   350A      4.447731  
     351A      4.457235   352A      4.493770   353A      4.502820  
     354A      4.522881   355A      4.527037   356A      4.562841  
     357A      4.580430   358A      4.589121   359A      4.599834  
     360A      4.628846   361A      4.639014   362A      4.653572  
     363A      4.660601   364A      4.667037   365A      4.696431  
     366A      4.795735   367A      4.824365   368A      4.835461  
     369A      4.839338   370A      4.844049   371A      4.858640  
     372A      4.870146   373A      4.880540   374A      4.904463  
     375A      4.917346   376A      4.924673   377A      4.933696  
     378A      4.958294   379A      5.002667   380A      5.020492  
     381A      5.040957   382A      5.075146   383A      5.128403  
     384A      5.143479   385A      5.174744   386A      5.270897  
     387A      5.299652   388A      5.313108   389A      5.319345  
     390A      5.345194   391A      5.387313   392A      5.416383  
     393A      5.432132   394A      5.441396   395A      5.454326  
     396A      5.489503   397A      5.499969   398A      5.518572  
     399A      5.539835   400A      5.561145   401A      5.601961  
     402A      5.642525   403A      5.680903   404A      5.784090  
     405A      5.822629   406A      5.990007   407A      6.018969  
     408A      6.035804   409A      6.084297   410A      6.120048  
     411A      6.122591   412A      6.155342   413A      6.169934  
     414A      6.225407   415A      6.257388   416A      6.451362  
     417A      6.466833   418A      6.519709   419A      6.633095  
     420A      6.669813   421A      6.796033   422A      6.824538  
     423A      6.873634   424A      6.903419   425A      6.944862  
     426A      7.457390   427A      7.498097   428A      7.500827  
     429A      7.520084   430A      7.542532   431A      7.553577  
     432A      7.592366   433A      7.620927   434A      7.701363  
     435A      7.756793   436A      7.858857   437A      7.866294  
     438A      7.880009   439A      7.903633   440A      7.929163  
     441A      7.931905   442A      7.948279   443A      7.961115  
     444A      7.987757   445A      8.037368   446A      8.069674  
     447A      8.078764   448A      8.089507   449A      8.098841  
     450A      8.110104   451A      8.433829   452A      8.473834  
     453A      8.527942   454A      8.539871   455A      8.543526  
     456A      8.596837   457A      8.607095   458A      8.611607  
     459A      8.683480   460A      8.718295   461A      9.645608  
     462A      9.670011   463A      9.681826   464A      9.711037  
     465A      9.722017   466A      9.739493   467A      9.761336  
     468A      9.769628   469A      9.784779   470A      9.794909  
     471A      9.814998   472A      9.820763   473A      9.831399  
     474A      9.838163   475A      9.857466   476A      9.938050  
     477A      9.966950   478A     10.023004   479A     10.040918  
     480A     10.092327   481A     10.789924   482A     10.857370  
     483A     10.865577   484A     11.027559   485A     11.082414  
     486A     11.525558   487A     11.561058   488A     11.608516  
     489A     11.673975   490A     11.677929   491A     11.745748  
     492A     11.961251   493A     11.983598   494A     12.015714  
     495A     12.061069   496A     13.225502   497A     13.242953  
     498A     13.321275   499A     13.402403   500A     13.449817  
     501A     13.670180   502A     13.731716   503A     13.746760  
     504A     13.758073   505A     13.813401   506A     63.668235  
     507A     64.776656   508A     64.834260   509A     65.410154  
     510A     65.548019  

    Final Occupation by Irrep:
              A 
    DOCC [     5 ]
    NA   [     5 ]
    NB   [     5 ]

  @DF-RHF Final Energy:  -161.67609361226297

   => Energetics <=

    Nuclear Repulsion Energy =              0.0000000000000000
    One-Electron Energy =                -224.9011265683202510
    Two-Electron Energy =                  63.2250329560572553
    Total Energy =                       -161.6760936122630028

Computation Completed


Properties will be evaluated at   0.000000,   0.000000,   0.000000 [a0]

Properties computed using the SCF density matrix


 Multipole Moments:

 ------------------------------------------------------------------------------------
     Multipole            Electronic (a.u.)      Nuclear  (a.u.)        Total (a.u.)
 ------------------------------------------------------------------------------------

 L = 1.  Multiply by 2.5417464519 to convert [e a0] to [Debye]
 Dipole X            :          0.0000135            0.0000000            0.0000135
 Dipole Y            :          0.0000278            0.0000000            0.0000278
 Dipole Z            :         -0.0000473            0.0000000           -0.0000473
 Magnitude           :                                                    0.0000565

 ------------------------------------------------------------------------------------

*** tstop() called on ddmfs1 at Mon Jan 22 14:57:22 2024
Module time:
	user time   =      83.67 seconds =       1.39 minutes
	system time =       7.41 seconds =       0.12 minutes
	total time  =          6 seconds =       0.10 minutes
Total time:
	user time   =      83.67 seconds =       1.39 minutes
	system time =       7.41 seconds =       0.12 minutes
	total time  =          6 seconds =       0.10 minutes

*** tstart() called on ddmfs1
*** at Mon Jan 22 14:57:22 2024


  //>>>>>>>>>>>>>>>>>>>>>>>>>>>>>>>>>>>//
  //               DFMP2               //
  //<<<<<<<<<<<<<<<<<<<<<<<<<<<<<<<<<<<//

   => Loading Basis Set <=

    Name: (AUG-CC-PVTZ AUX)
    Role: RIFIT
    Keyword: DF_BASIS_MP2
    atoms 1                            entry NA         line   610 file /ddmfs1b/softs/psi4conda/share/psi4/basis/def2-qzvpp-ri.gbs 
    atoms 2, 5, 8, 11, 14              entry O          line   264 file /ddmfs1b/softs/psi4conda/share/psi4/basis/aug-cc-pvtz-ri.gbs 
    atoms 3-4, 6-7, 9-10, 12-13, 15-16 entry H          line    30 file /ddmfs1b/softs/psi4conda/share/psi4/basis/aug-cc-pvtz-ri.gbs 

	 --------------------------------------------------------
	                          DF-MP2                         
	      2nd-Order Density-Fitted Moller-Plesset Theory     
	              RMP2 Wavefunction,  20 Threads             
	                                                         
	        Rob Parrish, Justin Turney, Andy Simmonett,      
	           Ed Hohenstein, and C. David Sherrill          
	 --------------------------------------------------------

   => Auxiliary Basis Set <=

  Basis Set: (AUG-CC-PVTZ AUX)
    Blend: AUG-CC-PVTZ-RI + DEF2-QZVPP-RI
    Number of shells: 322
    Number of basis functions: 1156
    Number of Cartesian functions: 1444
    Spherical Harmonics?: true
    Max angular momentum: 4

	 --------------------------------------------------------
	                 NBF =   510, NAUX =  1156
	 --------------------------------------------------------
	   CLASS    FOCC     OCC    AOCC    AVIR     VIR    FVIR
	   PAIRS       0       5       5     505     505       0
	 --------------------------------------------------------

	-----------------------------------------------------------
	 ==================> DF-MP2 Energies <==================== 
	-----------------------------------------------------------
	 Reference Energy          =    -161.6760936122629744 [Eh]
	 Singles Energy            =      -0.0000000000000000 [Eh]
	 Same-Spin Energy          =      -0.0068401776462507 [Eh]
	 Opposite-Spin Energy      =      -0.0207719432784801 [Eh]
	 Correlation Energy        =      -0.0276121209247308 [Eh]
	 Total Energy              =    -161.7037057331877179 [Eh]
	-----------------------------------------------------------
	 ================> DF-SCS-MP2 Energies <================== 
	-----------------------------------------------------------
	 SCS Same-Spin Scale       =       0.3333333333333333 [-]
	 SCS Opposite-Spin Scale   =       1.2000000000000000 [-]
	 SCS Same-Spin Energy      =      -0.0022800592154169 [Eh]
	 SCS Opposite-Spin Energy  =      -0.0249263319341761 [Eh]
	 SCS Correlation Energy    =      -0.0272063911495930 [Eh]
	 SCS Total Energy          =    -161.7033000034125791 [Eh]
	-----------------------------------------------------------


*** tstop() called on ddmfs1 at Mon Jan 22 14:57:29 2024
Module time:
	user time   =      28.28 seconds =       0.47 minutes
	system time =       2.11 seconds =       0.04 minutes
	total time  =          7 seconds =       0.12 minutes
Total time:
	user time   =     111.97 seconds =       1.87 minutes
	system time =       9.52 seconds =       0.16 minutes
	total time  =         13 seconds =       0.22 minutes

    Psi4 stopped on: Monday, 22 January 2024 02:57PM
    Psi4 wall time for execution: 0:00:13.00

*** Psi4 exiting successfully. Buy a developer a beer!
