
    -----------------------------------------------------------------------
          Psi4: An Open-Source Ab Initio Electronic Structure Package
                               Psi4 1.8.2 release

                         Git: Rev {} zzzzzzz 


    D. G. A. Smith, L. A. Burns, A. C. Simmonett, R. M. Parrish,
    M. C. Schieber, R. Galvelis, P. Kraus, H. Kruse, R. Di Remigio,
    A. Alenaizan, A. M. James, S. Lehtola, J. P. Misiewicz, M. Scheurer,
    R. A. Shaw, J. B. Schriber, Y. Xie, Z. L. Glick, D. A. Sirianni,
    J. S. O'Brien, J. M. Waldrop, A. Kumar, E. G. Hohenstein,
    B. P. Pritchard, B. R. Brooks, H. F. Schaefer III, A. Yu. Sokolov,
    K. Patkowski, A. E. DePrince III, U. Bozkaya, R. A. King,
    F. A. Evangelista, J. M. Turney, T. D. Crawford, C. D. Sherrill,
    J. Chem. Phys. 152(18) 184108 (2020). https://doi.org/10.1063/5.0006002

                            Additional Code Authors
    E. T. Seidl, C. L. Janssen, E. F. Valeev, M. L. Leininger,
    J. F. Gonthier, R. M. Richard, H. R. McAlexander, M. Saitow, X. Wang,
    P. Verma, M. H. Lechner, A. Jiang, S. Behnle, A. G. Heide,
    M. F. Herbst, and D. L. Poole

             Previous Authors, Complete List of Code Contributors,
                       and Citations for Specific Modules
    https://github.com/psi4/psi4/blob/master/codemeta.json
    https://github.com/psi4/psi4/graphs/contributors
    http://psicode.org/psi4manual/master/introduction.html#citing-psifour

    -----------------------------------------------------------------------


    Psi4 started on: Monday, 22 January 2024 01:58PM

    Process ID: 64246
    Host:       ddmfs1
    PSIDATADIR: /ddmfs1b/softs/psi4conda/share/psi4
    Memory:     500.0 MiB
    Threads:    20
    
  ==> Input File <==

--------------------------------------------------------------------------
MEMORY 60 GB

molecule dimer {
0 1
Gh(Na)     0.000000     0.000000     0.000000
Gh(O)      0.954819     1.660987    -1.074380
Gh(H)      0.801764     2.636974    -1.072418
Gh(H)      1.647407     1.475023    -1.768699
Gh(O)      1.731358    -1.499028    -0.404719
Gh(H)      1.341958    -2.259563     0.035339
Gh(H)      1.778928    -1.780792    -1.299789
Gh(O)      0.649501     0.267862     2.064278
Gh(H)      1.262818     0.937200     2.368076
Gh(H)      0.594691    -0.289524     2.874892
O         -1.650746     1.627578     1.227517
H         -0.937475     1.262507     1.773525
H         -2.433155     1.122101     1.300427
Gh(O)     -1.573423    -0.329419    -1.795216
Gh(H)     -2.311819     0.249475    -2.145586
Gh(H)     -1.174989    -0.659191    -2.614392

units ang
no_reorient
no_com
symmetry c1
}

set {
basis        aug-cc-pVTZ
scf_type     df
}

energy("mp2")
--------------------------------------------------------------------------

  Memory set to  55.879 GiB by Python driver.

Scratch directory: /ddmfs1a/scratch/
   => Libint2 <=

    Primary   basis highest AM E, G, H:  5, 4, 3
    Auxiliary basis highest AM E, G, H:  6, 5, 4
    Onebody   basis highest AM E, G, H:  6, 5, 4
    Solid Harmonics ordering:            gaussian

*** tstart() called on ddmfs1
*** at Mon Jan 22 13:58:31 2024

   => Loading Basis Set <=

    Name: AUG-CC-PVTZ
    Role: ORBITAL
    Keyword: BASIS
    atoms 1                            entry NA         line   469 file /ddmfs1b/softs/psi4conda/share/psi4/basis/aug-cc-pvtz.gbs 
    atoms 2, 5, 8, 11, 14              entry O          line   331 file /ddmfs1b/softs/psi4conda/share/psi4/basis/aug-cc-pvtz.gbs 
    atoms 3-4, 6-7, 9-10, 12-13, 15-16 entry H          line    40 file /ddmfs1b/softs/psi4conda/share/psi4/basis/aug-cc-pvtz.gbs 


         ---------------------------------------------------------
                                   SCF
               by Justin Turney, Rob Parrish, Andy Simmonett
                          and Daniel G. A. Smith
                              RHF Reference
                       20 Threads,  57220 MiB Core
         ---------------------------------------------------------

  ==> Geometry <==

    Molecular point group: c1
    Full point group: C1

    Geometry (in Angstrom), charge = 0, multiplicity = 1:

       Center              X                  Y                   Z               Mass       
    ------------   -----------------  -----------------  -----------------  -----------------
      Gh(NA)          0.000000000000     0.000000000000     0.000000000000    22.989769282000
      Gh(O)           0.954819000000     1.660987000000    -1.074380000000    15.994914619570
      Gh(H)           0.801764000000     2.636974000000    -1.072418000000     1.007825032230
      Gh(H)           1.647407000000     1.475023000000    -1.768699000000     1.007825032230
      Gh(O)           1.731358000000    -1.499028000000    -0.404719000000    15.994914619570
      Gh(H)           1.341958000000    -2.259563000000     0.035339000000     1.007825032230
      Gh(H)           1.778928000000    -1.780792000000    -1.299789000000     1.007825032230
      Gh(O)           0.649501000000     0.267862000000     2.064278000000    15.994914619570
      Gh(H)           1.262818000000     0.937200000000     2.368076000000     1.007825032230
      Gh(H)           0.594691000000    -0.289524000000     2.874892000000     1.007825032230
         O           -1.650746000000     1.627578000000     1.227517000000    15.994914619570
         H           -0.937475000000     1.262507000000     1.773525000000     1.007825032230
         H           -2.433155000000     1.122101000000     1.300427000000     1.007825032230
      Gh(O)          -1.573423000000    -0.329419000000    -1.795216000000    15.994914619570
      Gh(H)          -2.311819000000     0.249475000000    -2.145586000000     1.007825032230
      Gh(H)          -1.174989000000    -0.659191000000    -2.614392000000     1.007825032230

  Running in c1 symmetry.

  Rotational constants: A =      0.05670  B =      0.05192  C =      0.03939 [cm^-1]
  Rotational constants: A =   1699.94120  B =   1556.59564  C =   1181.00198 [MHz]
  Nuclear repulsion =    9.232989242722475

  Charge       = 0
  Multiplicity = 1
  Electrons    = 10
  Nalpha       = 5
  Nbeta        = 5

  ==> Algorithm <==

  SCF Algorithm Type is DF.
  DIIS enabled.
  MOM disabled.
  Fractional occupation disabled.
  Guess Type is SAD.
  Energy threshold   = 1.00e-08
  Density threshold  = 1.00e-08
  Integral threshold = 1.00e-12

  ==> Primary Basis <==

  Basis Set: AUG-CC-PVTZ
    Blend: AUG-CC-PVTZ
    Number of shells: 176
    Number of basis functions: 510
    Number of Cartesian functions: 584
    Spherical Harmonics?: true
    Max angular momentum: 3

   => Loading Basis Set <=

    Name: (AUG-CC-PVTZ AUX)
    Role: JKFIT
    Keyword: DF_BASIS_SCF
    atoms 1                            entry NA         line   498 file /ddmfs1b/softs/psi4conda/share/psi4/basis/def2-universal-jkfit.gbs 
    atoms 2, 5, 8, 11, 14              entry O          line   286 file /ddmfs1b/softs/psi4conda/share/psi4/basis/aug-cc-pvtz-jkfit.gbs 
    atoms 3-4, 6-7, 9-10, 12-13, 15-16 entry H          line    70 file /ddmfs1b/softs/psi4conda/share/psi4/basis/aug-cc-pvtz-jkfit.gbs 

  ==> Integral Setup <==

  DFHelper Memory: AOs need 2.047 GiB; user supplied 41.910 GiB. 
  Using in-core AOs.

  ==> MemDFJK: Density-Fitted J/K Matrices <==

    J tasked:                   Yes
    K tasked:                   Yes
    wK tasked:                   No
    OpenMP threads:              20
    Memory [MiB]:             42915
    Algorithm:                 Core
    Schwarz Cutoff:           1E-12
    Mask sparsity (%):       8.0131
    Fitting Condition:        1E-10

   => Auxiliary Basis Set <=

  Basis Set: (AUG-CC-PVTZ AUX)
    Blend: AUG-CC-PVTZ-JKFIT + DEF2-UNIVERSAL-JKFIT
    Number of shells: 324
    Number of basis functions: 1092
    Number of Cartesian functions: 1342
    Spherical Harmonics?: true
    Max angular momentum: 4

  Minimum eigenvalue in the overlap matrix is 1.3384060949E-05.
  Reciprocal condition number of the overlap matrix is 9.4563077518E-07.
    Using symmetric orthogonalization.

  ==> Pre-Iterations <==

  SCF Guess: Superposition of Atomic Densities via on-the-fly atomic UHF (no occupation information).

   -------------------------
    Irrep   Nso     Nmo    
   -------------------------
     A        510     510 
   -------------------------
    Total     510     510
   -------------------------

  ==> Iterations <==

                           Total Energy        Delta E     RMS |[F,P]|

   @DF-RHF iter SAD:   -75.47693144337883   -7.54769e+01   0.00000e+00 
   @DF-RHF iter   1:   -75.97607665765474   -4.99145e-01   9.21147e-04 ADIIS/DIIS
   @DF-RHF iter   2:   -76.02865275710430   -5.25761e-02   6.19062e-04 ADIIS/DIIS
   @DF-RHF iter   3:   -76.05919019125903   -3.05374e-02   4.20070e-05 DIIS
   @DF-RHF iter   4:   -76.05957798966551   -3.87798e-04   9.97277e-06 DIIS
   @DF-RHF iter   5:   -76.05960149092758   -2.35013e-05   2.25259e-06 DIIS
   @DF-RHF iter   6:   -76.05960344225902   -1.95133e-06   5.10782e-07 DIIS
   @DF-RHF iter   7:   -76.05960355452156   -1.12263e-07   9.91436e-08 DIIS
   @DF-RHF iter   8:   -76.05960355828535   -3.76379e-09   1.60665e-08 DIIS
   @DF-RHF iter   9:   -76.05960355836342   -7.80744e-11   3.97601e-09 DIIS
  Energy and wave function converged.


  ==> Post-Iterations <==

    Orbital Energies [Eh]
    ---------------------

    Doubly Occupied:                                                      

       1A    -20.562782     2A     -1.351522     3A     -0.733976  
       4A     -0.571964     5A     -0.508680  

    Virtual:                                                              

       6A      0.006713     7A      0.015912     8A      0.016303  
       9A      0.018503    10A      0.034836    11A      0.049910  
      12A      0.052194    13A      0.053878    14A      0.055040  
      15A      0.058768    16A      0.059612    17A      0.061332  
      18A      0.064023    19A      0.078938    20A      0.080834  
      21A      0.085110    22A      0.087227    23A      0.090180  
      24A      0.094788    25A      0.097776    26A      0.103355  
      27A      0.110782    28A      0.121093    29A      0.129890  
      30A      0.137784    31A      0.141678    32A      0.161216  
      33A      0.166347    34A      0.172302    35A      0.174560  
      36A      0.175736    37A      0.180726    38A      0.195223  
      39A      0.197485    40A      0.201304    41A      0.206001  
      42A      0.208792    43A      0.218583    44A      0.220568  
      45A      0.221599    46A      0.235686    47A      0.246467  
      48A      0.250620    49A      0.261371    50A      0.267047  
      51A      0.272505    52A      0.283155    53A      0.285128  
      54A      0.295749    55A      0.299823    56A      0.307174  
      57A      0.321621    58A      0.330977    59A      0.335208  
      60A      0.346716    61A      0.350806    62A      0.354042  
      63A      0.360093    64A      0.364027    65A      0.370760  
      66A      0.372129    67A      0.378007    68A      0.382038  
      69A      0.392554    70A      0.397867    71A      0.401250  
      72A      0.405828    73A      0.416062    74A      0.419194  
      75A      0.423943    76A      0.427533    77A      0.436982  
      78A      0.439295    79A      0.442301    80A      0.448960  
      81A      0.451251    82A      0.458788    83A      0.467084  
      84A      0.470504    85A      0.474237    86A      0.479703  
      87A      0.481126    88A      0.489081    89A      0.496082  
      90A      0.499886    91A      0.505949    92A      0.513790  
      93A      0.522263    94A      0.527094    95A      0.532623  
      96A      0.546913    97A      0.550514    98A      0.552201  
      99A      0.556327   100A      0.566957   101A      0.573955  
     102A      0.589245   103A      0.611768   104A      0.637341  
     105A      0.643508   106A      0.660203   107A      0.700117  
     108A      0.703909   109A      0.709040   110A      0.719155  
     111A      0.726363   112A      0.749636   113A      0.757981  
     114A      0.765017   115A      0.773763   116A      0.778099  
     117A      0.791775   118A      0.803868   119A      0.812828  
     120A      0.815436   121A      0.822770   122A      0.826616  
     123A      0.829250   124A      0.839779   125A      0.842118  
     126A      0.846735   127A      0.862460   128A      0.864708  
     129A      0.872404   130A      0.878611   131A      0.886981  
     132A      0.900266   133A      0.906959   134A      0.915761  
     135A      0.918434   136A      0.929018   137A      0.944257  
     138A      0.948272   139A      0.949522   140A      0.957984  
     141A      0.964890   142A      0.970794   143A      0.980617  
     144A      0.983361   145A      0.995840   146A      0.998896  
     147A      1.004187   148A      1.016036   149A      1.019861  
     150A      1.025232   151A      1.030849   152A      1.041694  
     153A      1.046684   154A      1.056663   155A      1.058825  
     156A      1.070102   157A      1.077865   158A      1.081999  
     159A      1.086011   160A      1.092879   161A      1.097423  
     162A      1.102671   163A      1.110714   164A      1.116237  
     165A      1.117122   166A      1.141583   167A      1.145497  
     168A      1.147330   169A      1.152395   170A      1.161540  
     171A      1.162808   172A      1.183029   173A      1.191102  
     174A      1.211252   175A      1.215659   176A      1.223574  
     177A      1.234206   178A      1.240146   179A      1.247470  
     180A      1.253963   181A      1.256925   182A      1.271000  
     183A      1.275398   184A      1.281189   185A      1.292822  
     186A      1.295141   187A      1.316461   188A      1.320119  
     189A      1.322632   190A      1.340058   191A      1.345495  
     192A      1.356333   193A      1.377582   194A      1.379727  
     195A      1.389192   196A      1.398834   197A      1.408888  
     198A      1.425227   199A      1.431451   200A      1.437597  
     201A      1.447457   202A      1.456532   203A      1.468279  
     204A      1.482808   205A      1.490357   206A      1.497489  
     207A      1.504211   208A      1.518676   209A      1.525374  
     210A      1.553975   211A      1.563514   212A      1.571543  
     213A      1.590697   214A      1.601314   215A      1.638986  
     216A      1.663016   217A      1.672814   218A      1.683618  
     219A      1.715066   220A      1.733407   221A      1.740544  
     222A      1.753099   223A      1.765816   224A      1.769143  
     225A      1.780224   226A      1.827090   227A      1.841970  
     228A      1.853516   229A      1.863030   230A      1.864661  
     231A      1.878259   232A      1.899402   233A      1.908605  
     234A      1.913927   235A      1.930546   236A      1.939844  
     237A      1.950486   238A      1.955688   239A      1.961813  
     240A      1.976679   241A      2.012029   242A      2.016054  
     243A      2.023392   244A      2.052785   245A      2.058024  
     246A      2.064120   247A      2.091350   248A      2.105542  
     249A      2.126558   250A      2.148763   251A      2.153796  
     252A      2.171512   253A      2.247688   254A      2.295578  
     255A      2.430173   256A      2.444456   257A      2.484961  
     258A      2.486812   259A      2.499818   260A      2.524641  
     261A      2.530872   262A      2.534004   263A      2.550732  
     264A      2.559887   265A      2.565638   266A      2.581979  
     267A      2.601935   268A      2.611140   269A      2.623650  
     270A      2.628815   271A      2.633363   272A      2.649976  
     273A      2.658516   274A      2.662630   275A      2.687950  
     276A      2.700370   277A      2.706341   278A      2.713466  
     279A      2.737651   280A      2.750802   281A      2.769305  
     282A      2.789979   283A      2.805722   284A      2.828179  
     285A      2.853562   286A      2.858678   287A      2.867827  
     288A      2.892017   289A      2.900064   290A      2.933287  
     291A      2.934089   292A      2.948961   293A      2.971880  
     294A      2.983194   295A      3.013040   296A      3.030123  
     297A      3.056021   298A      3.079783   299A      3.097270  
     300A      3.116219   301A      3.155807   302A      3.197970  
     303A      3.220536   304A      3.236658   305A      3.245131  
     306A      3.255672   307A      3.263881   308A      3.300075  
     309A      3.311014   310A      3.317983   311A      3.329591  
     312A      3.341962   313A      3.347340   314A      3.360170  
     315A      3.369019   316A      3.373658   317A      3.396124  
     318A      3.403842   319A      3.427724   320A      3.445430  
     321A      3.465536   322A      3.496174   323A      3.524276  
     324A      3.620438   325A      3.638711   326A      3.722714  
     327A      3.758500   328A      3.766218   329A      3.776975  
     330A      3.788215   331A      3.850544   332A      3.951849  
     333A      4.136675   334A      4.159851   335A      4.338167  
     336A      4.346138   337A      4.369128   338A      4.411260  
     339A      4.422610   340A      4.446926   341A      4.476811  
     342A      4.484371   343A      4.509296   344A      4.534056  
     345A      4.536292   346A      4.542656   347A      4.545606  
     348A      4.565195   349A      4.576433   350A      4.584422  
     351A      4.607126   352A      4.626113   353A      4.644036  
     354A      4.667859   355A      4.679492   356A      4.694865  
     357A      4.712275   358A      4.729403   359A      4.745529  
     360A      4.754629   361A      4.774193   362A      4.791657  
     363A      4.803926   364A      4.838178   365A      4.860329  
     366A      4.869729   367A      4.895971   368A      4.965949  
     369A      4.982839   370A      4.989811   371A      5.026214  
     372A      5.041097   373A      5.048327   374A      5.056389  
     375A      5.062232   376A      5.096496   377A      5.117497  
     378A      5.139789   379A      5.164014   380A      5.216582  
     381A      5.231303   382A      5.259001   383A      5.280562  
     384A      5.286010   385A      5.319309   386A      5.375958  
     387A      5.446186   388A      5.462363   389A      5.491120  
     390A      5.511897   391A      5.536318   392A      5.561177  
     393A      5.575899   394A      5.586880   395A      5.623445  
     396A      5.637866   397A      5.666073   398A      5.672291  
     399A      5.688320   400A      5.778991   401A      5.821829  
     402A      5.862626   403A      5.892329   404A      5.930001  
     405A      5.952535   406A      5.988222   407A      6.183074  
     408A      6.215886   409A      6.225536   410A      6.241625  
     411A      6.277879   412A      6.337451   413A      6.361194  
     414A      6.410972   415A      6.467246   416A      6.485203  
     417A      6.580217   418A      6.618825   419A      6.675472  
     420A      6.728058   421A      6.769344   422A      6.819790  
     423A      6.907943   424A      6.986628   425A      7.018332  
     426A      7.089446   427A      7.167287   428A      7.271374  
     429A      7.384899   430A      7.410067   431A      7.413437  
     432A      7.443418   433A      7.505358   434A      7.517862  
     435A      7.565438   436A      7.715421   437A      7.738450  
     438A      7.745762   439A      7.760433   440A      7.821779  
     441A      7.853994   442A      7.900820   443A      7.924118  
     444A      7.986063   445A      8.014398   446A      8.076195  
     447A      8.093873   448A      8.104688   449A      8.128920  
     450A      8.146720   451A      8.167147   452A      8.194770  
     453A      8.215149   454A      8.227157   455A      8.236365  
     456A      8.265545   457A      8.294608   458A      8.380800  
     459A      8.406355   460A      8.638160   461A      8.678386  
     462A      8.736128   463A      8.740502   464A      8.806127  
     465A      8.838105   466A      8.898655   467A      8.935235  
     468A      8.957133   469A      9.880754   470A      9.905067  
     471A      9.950597   472A      9.999178   473A     10.002603  
     474A     10.009582   475A     10.030640   476A     10.033221  
     477A     10.045702   478A     10.048218   479A     10.089364  
     480A     10.161266   481A     10.233864   482A     10.248149  
     483A     10.255787   484A     10.315337   485A     11.055591  
     486A     11.099136   487A     11.223932   488A     11.323341  
     489A     11.708960   490A     11.815697   491A     11.941055  
     492A     11.997516   493A     12.025421   494A     12.099289  
     495A     12.396153   496A     12.468901   497A     13.465353  
     498A     13.497409   499A     13.627277   500A     13.726943  
     501A     13.890929   502A     13.925540   503A     13.955741  
     504A     13.977829   505A     17.212461   506A     63.912913  
     507A     64.277671   508A     65.100525   509A     66.168064  
     510A     66.524665  

    Final Occupation by Irrep:
              A 
    DOCC [     5 ]
    NA   [     5 ]
    NB   [     5 ]

  @DF-RHF Final Energy:   -76.05960355836342

   => Energetics <=

    Nuclear Repulsion Energy =              9.2329892427224749
    One-Electron Energy =                -123.1273348196791773
    Two-Electron Energy =                  37.8347420185932819
    Total Energy =                        -76.0596035583634205

Computation Completed


Properties will be evaluated at   0.000000,   0.000000,   0.000000 [a0]

Properties computed using the SCF density matrix


 Multipole Moments:

 ------------------------------------------------------------------------------------
     Multipole            Electronic (a.u.)      Nuclear  (a.u.)        Total (a.u.)
 ------------------------------------------------------------------------------------

 L = 1.  Multiply by 2.5417464519 to convert [e a0] to [Debye]
 Dipole X            :         31.2735135          -31.3252303           -0.0517168
 Dipole Y            :        -29.7060342           29.1116694           -0.5943649
 Dipole Z            :        -23.9451198           24.3662950            0.4211752
 Magnitude           :                                                    0.7302964

 ------------------------------------------------------------------------------------

*** tstop() called on ddmfs1 at Mon Jan 22 13:58:38 2024
Module time:
	user time   =      91.55 seconds =       1.53 minutes
	system time =       5.96 seconds =       0.10 minutes
	total time  =          7 seconds =       0.12 minutes
Total time:
	user time   =      91.55 seconds =       1.53 minutes
	system time =       5.96 seconds =       0.10 minutes
	total time  =          7 seconds =       0.12 minutes

*** tstart() called on ddmfs1
*** at Mon Jan 22 13:58:38 2024


  //>>>>>>>>>>>>>>>>>>>>>>>>>>>>>>>>>>>//
  //               DFMP2               //
  //<<<<<<<<<<<<<<<<<<<<<<<<<<<<<<<<<<<//

   => Loading Basis Set <=

    Name: (AUG-CC-PVTZ AUX)
    Role: RIFIT
    Keyword: DF_BASIS_MP2
    atoms 1                            entry NA         line   610 file /ddmfs1b/softs/psi4conda/share/psi4/basis/def2-qzvpp-ri.gbs 
    atoms 2, 5, 8, 11, 14              entry O          line   264 file /ddmfs1b/softs/psi4conda/share/psi4/basis/aug-cc-pvtz-ri.gbs 
    atoms 3-4, 6-7, 9-10, 12-13, 15-16 entry H          line    30 file /ddmfs1b/softs/psi4conda/share/psi4/basis/aug-cc-pvtz-ri.gbs 

	 --------------------------------------------------------
	                          DF-MP2                         
	      2nd-Order Density-Fitted Moller-Plesset Theory     
	              RMP2 Wavefunction,  20 Threads             
	                                                         
	        Rob Parrish, Justin Turney, Andy Simmonett,      
	           Ed Hohenstein, and C. David Sherrill          
	 --------------------------------------------------------

   => Auxiliary Basis Set <=

  Basis Set: (AUG-CC-PVTZ AUX)
    Blend: AUG-CC-PVTZ-RI + DEF2-QZVPP-RI
    Number of shells: 322
    Number of basis functions: 1156
    Number of Cartesian functions: 1444
    Spherical Harmonics?: true
    Max angular momentum: 4

	 --------------------------------------------------------
	                 NBF =   510, NAUX =  1156
	 --------------------------------------------------------
	   CLASS    FOCC     OCC    AOCC    AVIR     VIR    FVIR
	   PAIRS       0       5       5     505     505       0
	 --------------------------------------------------------

	-----------------------------------------------------------
	 ==================> DF-MP2 Energies <==================== 
	-----------------------------------------------------------
	 Reference Energy          =     -76.0596035583634205 [Eh]
	 Singles Energy            =      -0.0000000000000000 [Eh]
	 Same-Spin Energy          =      -0.0682625434700074 [Eh]
	 Opposite-Spin Energy      =      -0.2156048201778163 [Eh]
	 Correlation Energy        =      -0.2838673636478237 [Eh]
	 Total Energy              =     -76.3434709220112495 [Eh]
	-----------------------------------------------------------
	 ================> DF-SCS-MP2 Energies <================== 
	-----------------------------------------------------------
	 SCS Same-Spin Scale       =       0.3333333333333333 [-]
	 SCS Opposite-Spin Scale   =       1.2000000000000000 [-]
	 SCS Same-Spin Energy      =      -0.0227541811566691 [Eh]
	 SCS Opposite-Spin Energy  =      -0.2587257842133796 [Eh]
	 SCS Correlation Energy    =      -0.2814799653700487 [Eh]
	 SCS Total Energy          =     -76.3410835237334737 [Eh]
	-----------------------------------------------------------


*** tstop() called on ddmfs1 at Mon Jan 22 13:58:45 2024
Module time:
	user time   =      28.42 seconds =       0.47 minutes
	system time =       2.21 seconds =       0.04 minutes
	total time  =          7 seconds =       0.12 minutes
Total time:
	user time   =     119.99 seconds =       2.00 minutes
	system time =       8.17 seconds =       0.14 minutes
	total time  =         14 seconds =       0.23 minutes

    Psi4 stopped on: Monday, 22 January 2024 01:58PM
    Psi4 wall time for execution: 0:00:13.27

*** Psi4 exiting successfully. Buy a developer a beer!
