
    -----------------------------------------------------------------------
          Psi4: An Open-Source Ab Initio Electronic Structure Package
                               Psi4 1.8.2 release

                         Git: Rev {} zzzzzzz 


    D. G. A. Smith, L. A. Burns, A. C. Simmonett, R. M. Parrish,
    M. C. Schieber, R. Galvelis, P. Kraus, H. Kruse, R. Di Remigio,
    A. Alenaizan, A. M. James, S. Lehtola, J. P. Misiewicz, M. Scheurer,
    R. A. Shaw, J. B. Schriber, Y. Xie, Z. L. Glick, D. A. Sirianni,
    J. S. O'Brien, J. M. Waldrop, A. Kumar, E. G. Hohenstein,
    B. P. Pritchard, B. R. Brooks, H. F. Schaefer III, A. Yu. Sokolov,
    K. Patkowski, A. E. DePrince III, U. Bozkaya, R. A. King,
    F. A. Evangelista, J. M. Turney, T. D. Crawford, C. D. Sherrill,
    J. Chem. Phys. 152(18) 184108 (2020). https://doi.org/10.1063/5.0006002

                            Additional Code Authors
    E. T. Seidl, C. L. Janssen, E. F. Valeev, M. L. Leininger,
    J. F. Gonthier, R. M. Richard, H. R. McAlexander, M. Saitow, X. Wang,
    P. Verma, M. H. Lechner, A. Jiang, S. Behnle, A. G. Heide,
    M. F. Herbst, and D. L. Poole

             Previous Authors, Complete List of Code Contributors,
                       and Citations for Specific Modules
    https://github.com/psi4/psi4/blob/master/codemeta.json
    https://github.com/psi4/psi4/graphs/contributors
    http://psicode.org/psi4manual/master/introduction.html#citing-psifour

    -----------------------------------------------------------------------


    Psi4 started on: Monday, 22 January 2024 03:41PM

    Process ID: 73682
    Host:       ddmfs1
    PSIDATADIR: /ddmfs1b/softs/psi4conda/share/psi4
    Memory:     500.0 MiB
    Threads:    20
    
  ==> Input File <==

--------------------------------------------------------------------------
MEMORY 60 GB

molecule dimer {
1 1
Na         0.000000     0.000000     0.000000
Gh(O)     -1.476289     1.000580    -1.680201
Gh(H)     -1.347957     0.330310    -2.372440
Gh(H)     -2.429876     1.119469    -1.591365
Gh(O)      2.003211     0.161049    -1.174825
Gh(H)      2.679153     0.338854    -0.470757
Gh(H)      1.973185     0.976483    -1.680248
Gh(O)     -0.163112     1.557536     1.551695
Gh(H)      0.623683     2.047554     1.538014
Gh(H)     -0.465897     1.324097     2.431350
Gh(O)     -1.395492    -1.854519    -0.938929
Gh(H)     -1.529696    -2.656867    -0.415875
Gh(H)     -1.708751    -2.067533    -1.827479
Gh(O)      1.140018    -1.255107     1.603180
Gh(H)      2.012796    -1.642493     1.425109
Gh(H)      1.148354    -1.258433     2.534760

units ang
no_reorient
no_com
symmetry c1
}

set {
basis        aug-cc-pVTZ
scf_type     df
}

energy("mp2")
--------------------------------------------------------------------------

  Memory set to  55.879 GiB by Python driver.

Scratch directory: /ddmfs1a/scratch/
   => Libint2 <=

    Primary   basis highest AM E, G, H:  5, 4, 3
    Auxiliary basis highest AM E, G, H:  6, 5, 4
    Onebody   basis highest AM E, G, H:  6, 5, 4
    Solid Harmonics ordering:            gaussian

*** tstart() called on ddmfs1
*** at Mon Jan 22 15:41:57 2024

   => Loading Basis Set <=

    Name: AUG-CC-PVTZ
    Role: ORBITAL
    Keyword: BASIS
    atoms 1                            entry NA         line   469 file /ddmfs1b/softs/psi4conda/share/psi4/basis/aug-cc-pvtz.gbs 
    atoms 2, 5, 8, 11, 14              entry O          line   331 file /ddmfs1b/softs/psi4conda/share/psi4/basis/aug-cc-pvtz.gbs 
    atoms 3-4, 6-7, 9-10, 12-13, 15-16 entry H          line    40 file /ddmfs1b/softs/psi4conda/share/psi4/basis/aug-cc-pvtz.gbs 


         ---------------------------------------------------------
                                   SCF
               by Justin Turney, Rob Parrish, Andy Simmonett
                          and Daniel G. A. Smith
                              RHF Reference
                       20 Threads,  57220 MiB Core
         ---------------------------------------------------------

  ==> Geometry <==

    Molecular point group: c1
    Full point group: C1

    Geometry (in Angstrom), charge = 1, multiplicity = 1:

       Center              X                  Y                   Z               Mass       
    ------------   -----------------  -----------------  -----------------  -----------------
         NA           0.000000000000     0.000000000000     0.000000000000    22.989769282000
      Gh(O)          -1.476289000000     1.000580000000    -1.680201000000    15.994914619570
      Gh(H)          -1.347957000000     0.330310000000    -2.372440000000     1.007825032230
      Gh(H)          -2.429876000000     1.119469000000    -1.591365000000     1.007825032230
      Gh(O)           2.003211000000     0.161049000000    -1.174825000000    15.994914619570
      Gh(H)           2.679153000000     0.338854000000    -0.470757000000     1.007825032230
      Gh(H)           1.973185000000     0.976483000000    -1.680248000000     1.007825032230
      Gh(O)          -0.163112000000     1.557536000000     1.551695000000    15.994914619570
      Gh(H)           0.623683000000     2.047554000000     1.538014000000     1.007825032230
      Gh(H)          -0.465897000000     1.324097000000     2.431350000000     1.007825032230
      Gh(O)          -1.395492000000    -1.854519000000    -0.938929000000    15.994914619570
      Gh(H)          -1.529696000000    -2.656867000000    -0.415875000000     1.007825032230
      Gh(H)          -1.708751000000    -2.067533000000    -1.827479000000     1.007825032230
      Gh(O)           1.140018000000    -1.255107000000     1.603180000000    15.994914619570
      Gh(H)           2.012796000000    -1.642493000000     1.425109000000     1.007825032230
      Gh(H)           1.148354000000    -1.258433000000     2.534760000000     1.007825032230

  Running in c1 symmetry.

  Rotational constants: A =      0.05889  B =      0.04509  C =      0.04134 [cm^-1]
  Rotational constants: A =   1765.51019  B =   1351.74882  C =   1239.41701 [MHz]
  Nuclear repulsion =    0.000000000000000

  Charge       = 1
  Multiplicity = 1
  Electrons    = 10
  Nalpha       = 5
  Nbeta        = 5

  ==> Algorithm <==

  SCF Algorithm Type is DF.
  DIIS enabled.
  MOM disabled.
  Fractional occupation disabled.
  Guess Type is SAD.
  Energy threshold   = 1.00e-08
  Density threshold  = 1.00e-08
  Integral threshold = 1.00e-12

  ==> Primary Basis <==

  Basis Set: AUG-CC-PVTZ
    Blend: AUG-CC-PVTZ
    Number of shells: 176
    Number of basis functions: 510
    Number of Cartesian functions: 584
    Spherical Harmonics?: true
    Max angular momentum: 3

   => Loading Basis Set <=

    Name: (AUG-CC-PVTZ AUX)
    Role: JKFIT
    Keyword: DF_BASIS_SCF
    atoms 1                            entry NA         line   498 file /ddmfs1b/softs/psi4conda/share/psi4/basis/def2-universal-jkfit.gbs 
    atoms 2, 5, 8, 11, 14              entry O          line   286 file /ddmfs1b/softs/psi4conda/share/psi4/basis/aug-cc-pvtz-jkfit.gbs 
    atoms 3-4, 6-7, 9-10, 12-13, 15-16 entry H          line    70 file /ddmfs1b/softs/psi4conda/share/psi4/basis/aug-cc-pvtz-jkfit.gbs 

  ==> Integral Setup <==

  DFHelper Memory: AOs need 2.039 GiB; user supplied 41.910 GiB. 
  Using in-core AOs.

  ==> MemDFJK: Density-Fitted J/K Matrices <==

    J tasked:                   Yes
    K tasked:                   Yes
    wK tasked:                   No
    OpenMP threads:              20
    Memory [MiB]:             42915
    Algorithm:                 Core
    Schwarz Cutoff:           1E-12
    Mask sparsity (%):       8.3576
    Fitting Condition:        1E-10

   => Auxiliary Basis Set <=

  Basis Set: (AUG-CC-PVTZ AUX)
    Blend: AUG-CC-PVTZ-JKFIT + DEF2-UNIVERSAL-JKFIT
    Number of shells: 324
    Number of basis functions: 1092
    Number of Cartesian functions: 1342
    Spherical Harmonics?: true
    Max angular momentum: 4

  Minimum eigenvalue in the overlap matrix is 2.6930092275E-05.
  Reciprocal condition number of the overlap matrix is 1.9582410089E-06.
    Using symmetric orthogonalization.

  ==> Pre-Iterations <==

  SCF Guess: Superposition of Atomic Densities via on-the-fly atomic UHF (no occupation information).

   -------------------------
    Irrep   Nso     Nmo    
   -------------------------
     A        510     510 
   -------------------------
    Total     510     510
   -------------------------

  ==> Iterations <==

                           Total Energy        Delta E     RMS |[F,P]|

   @DF-RHF iter SAD:  -161.74574505804065   -1.61746e+02   0.00000e+00 
   @DF-RHF iter   1:  -161.67607369161911    6.96714e-02   1.25711e-05 DIIS
   @DF-RHF iter   2:  -161.67609218184214   -1.84902e-05   2.32603e-06 DIIS
   @DF-RHF iter   3:  -161.67609269033792   -5.08496e-07   1.15853e-07 DIIS
   @DF-RHF iter   4:  -161.67609269129230   -9.54373e-10   1.57335e-08 DIIS
   @DF-RHF iter   5:  -161.67609269130890   -1.65983e-11   6.08518e-10 DIIS
  Energy and wave function converged.


  ==> Post-Iterations <==

    Orbital Energies [Eh]
    ---------------------

    Doubly Occupied:                                                      

       1A    -40.760380     2A     -3.073780     3A     -1.797140  
       4A     -1.797123     5A     -1.797107  

    Virtual:                                                              

       6A     -0.181804     7A     -0.109437     8A     -0.109433  
       9A     -0.109432    10A     -0.070074    11A     -0.052379  
      12A     -0.051959    13A     -0.051753    14A     -0.051407  
      15A     -0.051259    16A     -0.049306    17A     -0.049231  
      18A     -0.049200    19A     -0.026510    20A     -0.014107  
      21A     -0.013035    22A     -0.011977    23A     -0.010764  
      24A     -0.007603    25A     -0.006604    26A     -0.006174  
      27A     -0.003392    28A      0.003979    29A      0.006891  
      30A      0.013406    31A      0.015757    32A      0.018254  
      33A      0.025841    34A      0.029264    35A      0.035281  
      36A      0.039515    37A      0.041224    38A      0.058582  
      39A      0.068980    40A      0.073051    41A      0.076290  
      42A      0.079761    43A      0.090383    44A      0.091599  
      45A      0.095838    46A      0.098969    47A      0.101069  
      48A      0.106427    49A      0.111040    50A      0.115295  
      51A      0.121509    52A      0.127585    53A      0.132648  
      54A      0.137133    55A      0.142295    56A      0.160843  
      57A      0.175926    58A      0.177558    59A      0.187212  
      60A      0.188739    61A      0.195413    62A      0.197579  
      63A      0.205874    64A      0.213467    65A      0.220168  
      66A      0.225981    67A      0.232510    68A      0.236759  
      69A      0.240676    70A      0.242500    71A      0.252875  
      72A      0.254872    73A      0.259247    74A      0.265007  
      75A      0.269365    76A      0.270623    77A      0.280714  
      78A      0.287119    79A      0.294665    80A      0.299482  
      81A      0.304537    82A      0.308564    83A      0.312467  
      84A      0.319952    85A      0.325139    86A      0.325955  
      87A      0.328719    88A      0.333054    89A      0.337140  
      90A      0.341012    91A      0.346282    92A      0.349026  
      93A      0.354757    94A      0.362617    95A      0.371698  
      96A      0.375259    97A      0.387212    98A      0.395509  
      99A      0.398073   100A      0.403928   101A      0.409571  
     102A      0.420576   103A      0.431405   104A      0.448671  
     105A      0.456066   106A      0.459722   107A      0.469907  
     108A      0.479002   109A      0.486965   110A      0.500143  
     111A      0.515952   112A      0.522640   113A      0.545644  
     114A      0.549311   115A      0.556101   116A      0.567930  
     117A      0.577401   118A      0.581377   119A      0.592222  
     120A      0.604478   121A      0.620540   122A      0.628085  
     123A      0.632001   124A      0.636804   125A      0.652430  
     126A      0.658310   127A      0.669839   128A      0.676379  
     129A      0.682042   130A      0.697223   131A      0.701450  
     132A      0.711674   133A      0.728854   134A      0.729872  
     135A      0.737410   136A      0.744877   137A      0.747235  
     138A      0.754341   139A      0.762391   140A      0.764848  
     141A      0.776523   142A      0.786803   143A      0.793702  
     144A      0.797917   145A      0.813787   146A      0.819673  
     147A      0.826927   148A      0.836231   149A      0.839816  
     150A      0.845000   151A      0.851146   152A      0.858975  
     153A      0.862921   154A      0.868631   155A      0.876845  
     156A      0.878144   157A      0.889019   158A      0.900120  
     159A      0.901006   160A      0.907945   161A      0.911429  
     162A      0.929588   163A      0.934375   164A      0.941384  
     165A      0.953068   166A      0.959849   167A      0.962705  
     168A      0.972002   169A      0.979991   170A      0.986531  
     171A      0.994454   172A      0.997977   173A      1.003157  
     174A      1.013834   175A      1.025061   176A      1.038492  
     177A      1.044991   178A      1.047627   179A      1.054311  
     180A      1.059618   181A      1.073782   182A      1.080499  
     183A      1.086028   184A      1.092425   185A      1.096165  
     186A      1.107821   187A      1.114655   188A      1.123746  
     189A      1.132950   190A      1.139253   191A      1.144346  
     192A      1.153670   193A      1.161988   194A      1.168606  
     195A      1.176415   196A      1.190527   197A      1.196121  
     198A      1.209043   199A      1.219868   200A      1.234826  
     201A      1.244430   202A      1.260952   203A      1.272636  
     204A      1.283262   205A      1.286111   206A      1.296325  
     207A      1.304194   208A      1.313606   209A      1.324952  
     210A      1.336648   211A      1.356223   212A      1.372368  
     213A      1.385094   214A      1.430021   215A      1.437282  
     216A      1.450197   217A      1.465984   218A      1.475993  
     219A      1.492596   220A      1.518070   221A      1.528408  
     222A      1.545635   223A      1.557428   224A      1.566738  
     225A      1.623894   226A      1.642706   227A      1.656418  
     228A      1.658715   229A      1.674681   230A      1.686608  
     231A      1.701835   232A      1.704505   233A      1.716887  
     234A      1.725972   235A      1.732862   236A      1.734516  
     237A      1.750160   238A      1.754365   239A      1.769028  
     240A      1.786098   241A      1.802342   242A      1.809655  
     243A      1.823112   244A      1.828595   245A      1.849462  
     246A      1.858543   247A      1.879316   248A      1.891974  
     249A      1.898767   250A      1.911263   251A      1.922586  
     252A      1.931830   253A      1.953024   254A      1.992092  
     255A      2.210408   256A      2.233226   257A      2.242629  
     258A      2.255586   259A      2.285003   260A      2.305896  
     261A      2.313996   262A      2.336159   263A      2.338131  
     264A      2.352825   265A      2.361987   266A      2.372435  
     267A      2.388111   268A      2.396866   269A      2.407699  
     270A      2.416952   271A      2.422945   272A      2.430284  
     273A      2.442361   274A      2.447097   275A      2.463231  
     276A      2.487727   277A      2.488398   278A      2.497392  
     279A      2.505650   280A      2.525240   281A      2.537142  
     282A      2.565521   283A      2.598418   284A      2.619669  
     285A      2.644356   286A      2.650217   287A      2.669197  
     288A      2.677453   289A      2.709104   290A      2.723623  
     291A      2.740005   292A      2.751337   293A      2.771131  
     294A      2.782985   295A      2.796837   296A      2.806537  
     297A      2.847198   298A      2.899717   299A      2.920569  
     300A      3.005867   301A      3.021730   302A      3.036342  
     303A      3.043823   304A      3.053377   305A      3.070761  
     306A      3.077305   307A      3.090211   308A      3.108167  
     309A      3.111191   310A      3.122387   311A      3.136091  
     312A      3.143645   313A      3.155345   314A      3.158987  
     315A      3.172558   316A      3.184003   317A      3.189583  
     318A      3.209938   319A      3.219968   320A      3.231965  
     321A      3.235496   322A      3.250832   323A      3.273947  
     324A      3.285082   325A      3.379537   326A      3.425420  
     327A      3.435070   328A      3.453903   329A      3.480321  
     330A      3.533496   331A      3.550719   332A      3.564427  
     333A      3.577253   334A      3.601342   335A      3.613933  
     336A      4.217891   337A      4.239234   338A      4.261449  
     339A      4.274183   340A      4.296458   341A      4.340410  
     342A      4.355899   343A      4.374976   344A      4.377259  
     345A      4.399379   346A      4.406888   347A      4.413156  
     348A      4.437549   349A      4.444863   350A      4.448019  
     351A      4.485856   352A      4.502384   353A      4.516131  
     354A      4.531926   355A      4.543074   356A      4.564280  
     357A      4.577628   358A      4.593181   359A      4.607566  
     360A      4.614571   361A      4.641268   362A      4.649745  
     363A      4.678912   364A      4.689352   365A      4.706515  
     366A      4.761960   367A      4.815204   368A      4.828364  
     369A      4.830659   370A      4.843877   371A      4.862551  
     372A      4.880219   373A      4.886646   374A      4.895546  
     375A      4.905167   376A      4.944111   377A      4.960077  
     378A      4.991054   379A      5.013419   380A      5.018727  
     381A      5.046881   382A      5.055962   383A      5.064807  
     384A      5.078239   385A      5.154814   386A      5.303931  
     387A      5.328134   388A      5.370366   389A      5.376800  
     390A      5.397157   391A      5.435195   392A      5.458939  
     393A      5.461767   394A      5.483634   395A      5.488294  
     396A      5.497159   397A      5.503569   398A      5.542255  
     399A      5.604238   400A      5.647215   401A      5.682277  
     402A      5.703000   403A      5.722343   404A      5.761352  
     405A      5.827052   406A      5.987550   407A      6.017788  
     408A      6.086380   409A      6.103000   410A      6.154332  
     411A      6.198209   412A      6.214876   413A      6.235706  
     414A      6.249295   415A      6.265761   416A      6.448173  
     417A      6.525738   418A      6.551156   419A      6.605589  
     420A      6.751889   421A      6.842140   422A      6.888002  
     423A      6.910536   424A      6.979540   425A      7.012452  
     426A      7.489137   427A      7.501963   428A      7.517177  
     429A      7.518606   430A      7.531902   431A      7.594386  
     432A      7.635898   433A      7.658593   434A      7.671627  
     435A      7.730787   436A      7.866067   437A      7.886724  
     438A      7.892639   439A      7.912937   440A      7.947506  
     441A      7.961247   442A      7.987484   443A      8.005997  
     444A      8.053244   445A      8.069892   446A      8.071471  
     447A      8.083336   448A      8.118988   449A      8.138859  
     450A      8.179550   451A      8.493941   452A      8.553419  
     453A      8.572772   454A      8.592821   455A      8.609782  
     456A      8.615228   457A      8.643189   458A      8.666299  
     459A      8.764640   460A      8.832773   461A      9.631182  
     462A      9.645564   463A      9.695014   464A      9.714047  
     465A      9.735119   466A      9.753563   467A      9.767938  
     468A      9.785833   469A      9.799425   470A      9.823012  
     471A      9.835126   472A      9.846312   473A      9.847202  
     474A      9.861831   475A      9.882648   476A      9.965803  
     477A     10.012308   478A     10.014462   479A     10.046715  
     480A     10.050200   481A     10.904590   482A     10.968342  
     483A     10.993756   484A     11.020849   485A     11.110995  
     486A     11.516369   487A     11.589730   488A     11.657213  
     489A     11.692643   490A     11.702885   491A     11.878950  
     492A     11.911809   493A     11.965065   494A     12.178467  
     495A     12.295201   496A     13.310854   497A     13.349565  
     498A     13.405565   499A     13.470408   500A     13.577190  
     501A     13.682040   502A     13.694513   503A     13.717619  
     504A     13.752359   505A     13.792594   506A     64.539247  
     507A     64.686205   508A     64.866702   509A     65.826124  
     510A     66.899035  

    Final Occupation by Irrep:
              A 
    DOCC [     5 ]
    NA   [     5 ]
    NB   [     5 ]

  @DF-RHF Final Energy:  -161.67609269130890

   => Energetics <=

    Nuclear Repulsion Energy =              0.0000000000000000
    One-Electron Energy =                -224.9011259266379170
    Two-Electron Energy =                  63.2250332353290219
    Total Energy =                       -161.6760926913088952

Computation Completed


Properties will be evaluated at   0.000000,   0.000000,   0.000000 [a0]

Properties computed using the SCF density matrix


 Multipole Moments:

 ------------------------------------------------------------------------------------
     Multipole            Electronic (a.u.)      Nuclear  (a.u.)        Total (a.u.)
 ------------------------------------------------------------------------------------

 L = 1.  Multiply by 2.5417464519 to convert [e a0] to [Debye]
 Dipole X            :         -0.0000411            0.0000000           -0.0000411
 Dipole Y            :         -0.0000026            0.0000000           -0.0000026
 Dipole Z            :          0.0000292            0.0000000            0.0000292
 Magnitude           :                                                    0.0000504

 ------------------------------------------------------------------------------------

*** tstop() called on ddmfs1 at Mon Jan 22 15:42:03 2024
Module time:
	user time   =      84.38 seconds =       1.41 minutes
	system time =       7.25 seconds =       0.12 minutes
	total time  =          6 seconds =       0.10 minutes
Total time:
	user time   =      84.38 seconds =       1.41 minutes
	system time =       7.25 seconds =       0.12 minutes
	total time  =          6 seconds =       0.10 minutes

*** tstart() called on ddmfs1
*** at Mon Jan 22 15:42:03 2024


  //>>>>>>>>>>>>>>>>>>>>>>>>>>>>>>>>>>>//
  //               DFMP2               //
  //<<<<<<<<<<<<<<<<<<<<<<<<<<<<<<<<<<<//

   => Loading Basis Set <=

    Name: (AUG-CC-PVTZ AUX)
    Role: RIFIT
    Keyword: DF_BASIS_MP2
    atoms 1                            entry NA         line   610 file /ddmfs1b/softs/psi4conda/share/psi4/basis/def2-qzvpp-ri.gbs 
    atoms 2, 5, 8, 11, 14              entry O          line   264 file /ddmfs1b/softs/psi4conda/share/psi4/basis/aug-cc-pvtz-ri.gbs 
    atoms 3-4, 6-7, 9-10, 12-13, 15-16 entry H          line    30 file /ddmfs1b/softs/psi4conda/share/psi4/basis/aug-cc-pvtz-ri.gbs 

	 --------------------------------------------------------
	                          DF-MP2                         
	      2nd-Order Density-Fitted Moller-Plesset Theory     
	              RMP2 Wavefunction,  20 Threads             
	                                                         
	        Rob Parrish, Justin Turney, Andy Simmonett,      
	           Ed Hohenstein, and C. David Sherrill          
	 --------------------------------------------------------

   => Auxiliary Basis Set <=

  Basis Set: (AUG-CC-PVTZ AUX)
    Blend: AUG-CC-PVTZ-RI + DEF2-QZVPP-RI
    Number of shells: 322
    Number of basis functions: 1156
    Number of Cartesian functions: 1444
    Spherical Harmonics?: true
    Max angular momentum: 4

	 --------------------------------------------------------
	                 NBF =   510, NAUX =  1156
	 --------------------------------------------------------
	   CLASS    FOCC     OCC    AOCC    AVIR     VIR    FVIR
	   PAIRS       0       5       5     505     505       0
	 --------------------------------------------------------

	-----------------------------------------------------------
	 ==================> DF-MP2 Energies <==================== 
	-----------------------------------------------------------
	 Reference Energy          =    -161.6760926913088952 [Eh]
	 Singles Energy            =      -0.0000000000000000 [Eh]
	 Same-Spin Energy          =      -0.0063279009469103 [Eh]
	 Opposite-Spin Energy      =      -0.0194018343818951 [Eh]
	 Correlation Energy        =      -0.0257297353288054 [Eh]
	 Total Energy              =    -161.7018224266377047 [Eh]
	-----------------------------------------------------------
	 ================> DF-SCS-MP2 Energies <================== 
	-----------------------------------------------------------
	 SCS Same-Spin Scale       =       0.3333333333333333 [-]
	 SCS Opposite-Spin Scale   =       1.2000000000000000 [-]
	 SCS Same-Spin Energy      =      -0.0021093003156368 [Eh]
	 SCS Opposite-Spin Energy  =      -0.0232822012582741 [Eh]
	 SCS Correlation Energy    =      -0.0253915015739108 [Eh]
	 SCS Total Energy          =    -161.7014841928828162 [Eh]
	-----------------------------------------------------------


*** tstop() called on ddmfs1 at Mon Jan 22 15:42:10 2024
Module time:
	user time   =      28.38 seconds =       0.47 minutes
	system time =       2.08 seconds =       0.03 minutes
	total time  =          7 seconds =       0.12 minutes
Total time:
	user time   =     112.78 seconds =       1.88 minutes
	system time =       9.33 seconds =       0.16 minutes
	total time  =         13 seconds =       0.22 minutes

    Psi4 stopped on: Monday, 22 January 2024 03:42PM
    Psi4 wall time for execution: 0:00:13.08

*** Psi4 exiting successfully. Buy a developer a beer!
