
    -----------------------------------------------------------------------
          Psi4: An Open-Source Ab Initio Electronic Structure Package
                               Psi4 1.8.2 release

                         Git: Rev {} zzzzzzz 


    D. G. A. Smith, L. A. Burns, A. C. Simmonett, R. M. Parrish,
    M. C. Schieber, R. Galvelis, P. Kraus, H. Kruse, R. Di Remigio,
    A. Alenaizan, A. M. James, S. Lehtola, J. P. Misiewicz, M. Scheurer,
    R. A. Shaw, J. B. Schriber, Y. Xie, Z. L. Glick, D. A. Sirianni,
    J. S. O'Brien, J. M. Waldrop, A. Kumar, E. G. Hohenstein,
    B. P. Pritchard, B. R. Brooks, H. F. Schaefer III, A. Yu. Sokolov,
    K. Patkowski, A. E. DePrince III, U. Bozkaya, R. A. King,
    F. A. Evangelista, J. M. Turney, T. D. Crawford, C. D. Sherrill,
    J. Chem. Phys. 152(18) 184108 (2020). https://doi.org/10.1063/5.0006002

                            Additional Code Authors
    E. T. Seidl, C. L. Janssen, E. F. Valeev, M. L. Leininger,
    J. F. Gonthier, R. M. Richard, H. R. McAlexander, M. Saitow, X. Wang,
    P. Verma, M. H. Lechner, A. Jiang, S. Behnle, A. G. Heide,
    M. F. Herbst, and D. L. Poole

             Previous Authors, Complete List of Code Contributors,
                       and Citations for Specific Modules
    https://github.com/psi4/psi4/blob/master/codemeta.json
    https://github.com/psi4/psi4/graphs/contributors
    http://psicode.org/psi4manual/master/introduction.html#citing-psifour

    -----------------------------------------------------------------------


    Psi4 started on: Monday, 22 January 2024 03:58PM

    Process ID: 75359
    Host:       ddmfs1
    PSIDATADIR: /ddmfs1b/softs/psi4conda/share/psi4
    Memory:     500.0 MiB
    Threads:    20
    
  ==> Input File <==

--------------------------------------------------------------------------
MEMORY 60 GB

molecule dimer {
0 1
Gh(Na)     0.000000     0.000000     0.000000
Gh(O)      1.840093    -0.013228     1.168474
Gh(H)      2.578854    -0.628590     1.402113
Gh(H)      1.971143     0.638358     1.806956
Gh(O)     -0.529791    -1.975169    -1.169996
Gh(H)     -0.194422    -2.273058    -1.972985
Gh(H)     -1.435025    -2.192187    -1.229504
O          0.234253     1.720156    -1.715639
H          0.688439     2.544420    -1.572514
H         -0.667981     1.888890    -2.029084
Gh(O)     -2.243886     0.693704     0.273219
Gh(H)     -3.037219     0.241933     0.599418
Gh(H)     -2.426716     1.627144     0.193199

units ang
no_reorient
no_com
symmetry c1
}

set {
basis        aug-cc-pVTZ
scf_type     df
}

energy("mp2")
--------------------------------------------------------------------------

  Memory set to  55.879 GiB by Python driver.

Scratch directory: /ddmfs1a/scratch/
   => Libint2 <=

    Primary   basis highest AM E, G, H:  5, 4, 3
    Auxiliary basis highest AM E, G, H:  6, 5, 4
    Onebody   basis highest AM E, G, H:  6, 5, 4
    Solid Harmonics ordering:            gaussian

*** tstart() called on ddmfs1
*** at Mon Jan 22 15:58:51 2024

   => Loading Basis Set <=

    Name: AUG-CC-PVTZ
    Role: ORBITAL
    Keyword: BASIS
    atoms 1                     entry NA         line   469 file /ddmfs1b/softs/psi4conda/share/psi4/basis/aug-cc-pvtz.gbs 
    atoms 2, 5, 8, 11           entry O          line   331 file /ddmfs1b/softs/psi4conda/share/psi4/basis/aug-cc-pvtz.gbs 
    atoms 3-4, 6-7, 9-10, 12-13 entry H          line    40 file /ddmfs1b/softs/psi4conda/share/psi4/basis/aug-cc-pvtz.gbs 


         ---------------------------------------------------------
                                   SCF
               by Justin Turney, Rob Parrish, Andy Simmonett
                          and Daniel G. A. Smith
                              RHF Reference
                       20 Threads,  57220 MiB Core
         ---------------------------------------------------------

  ==> Geometry <==

    Molecular point group: c1
    Full point group: C1

    Geometry (in Angstrom), charge = 0, multiplicity = 1:

       Center              X                  Y                   Z               Mass       
    ------------   -----------------  -----------------  -----------------  -----------------
      Gh(NA)          0.000000000000     0.000000000000     0.000000000000    22.989769282000
      Gh(O)           1.840093000000    -0.013228000000     1.168474000000    15.994914619570
      Gh(H)           2.578854000000    -0.628590000000     1.402113000000     1.007825032230
      Gh(H)           1.971143000000     0.638358000000     1.806956000000     1.007825032230
      Gh(O)          -0.529791000000    -1.975169000000    -1.169996000000    15.994914619570
      Gh(H)          -0.194422000000    -2.273058000000    -1.972985000000     1.007825032230
      Gh(H)          -1.435025000000    -2.192187000000    -1.229504000000     1.007825032230
         O            0.234253000000     1.720156000000    -1.715639000000    15.994914619570
         H            0.688439000000     2.544420000000    -1.572514000000     1.007825032230
         H           -0.667981000000     1.888890000000    -2.029084000000     1.007825032230
      Gh(O)          -2.243886000000     0.693704000000     0.273219000000    15.994914619570
      Gh(H)          -3.037219000000     0.241933000000     0.599418000000     1.007825032230
      Gh(H)          -2.426716000000     1.627144000000     0.193199000000     1.007825032230

  Running in c1 symmetry.

  Rotational constants: A =      0.07218  B =      0.06044  C =      0.05151 [cm^-1]
  Rotational constants: A =   2163.92733  B =   1812.05741  C =   1544.25851 [MHz]
  Nuclear repulsion =    9.148036879588444

  Charge       = 0
  Multiplicity = 1
  Electrons    = 10
  Nalpha       = 5
  Nbeta        = 5

  ==> Algorithm <==

  SCF Algorithm Type is DF.
  DIIS enabled.
  MOM disabled.
  Fractional occupation disabled.
  Guess Type is SAD.
  Energy threshold   = 1.00e-08
  Density threshold  = 1.00e-08
  Integral threshold = 1.00e-12

  ==> Primary Basis <==

  Basis Set: AUG-CC-PVTZ
    Blend: AUG-CC-PVTZ
    Number of shells: 144
    Number of basis functions: 418
    Number of Cartesian functions: 479
    Spherical Harmonics?: true
    Max angular momentum: 3

   => Loading Basis Set <=

    Name: (AUG-CC-PVTZ AUX)
    Role: JKFIT
    Keyword: DF_BASIS_SCF
    atoms 1                     entry NA         line   498 file /ddmfs1b/softs/psi4conda/share/psi4/basis/def2-universal-jkfit.gbs 
    atoms 2, 5, 8, 11           entry O          line   286 file /ddmfs1b/softs/psi4conda/share/psi4/basis/aug-cc-pvtz-jkfit.gbs 
    atoms 3-4, 6-7, 9-10, 12-13 entry H          line    70 file /ddmfs1b/softs/psi4conda/share/psi4/basis/aug-cc-pvtz-jkfit.gbs 

  ==> Integral Setup <==

  DFHelper Memory: AOs need 1.141 GiB; user supplied 41.910 GiB. 
  Using in-core AOs.

  ==> MemDFJK: Density-Fitted J/K Matrices <==

    J tasked:                   Yes
    K tasked:                   Yes
    wK tasked:                   No
    OpenMP threads:              20
    Memory [MiB]:             42915
    Algorithm:                 Core
    Schwarz Cutoff:           1E-12
    Mask sparsity (%):       7.9611
    Fitting Condition:        1E-10

   => Auxiliary Basis Set <=

  Basis Set: (AUG-CC-PVTZ AUX)
    Blend: AUG-CC-PVTZ-JKFIT + DEF2-UNIVERSAL-JKFIT
    Number of shells: 266
    Number of basis functions: 896
    Number of Cartesian functions: 1101
    Spherical Harmonics?: true
    Max angular momentum: 4

  Minimum eigenvalue in the overlap matrix is 3.6667226197E-05.
  Reciprocal condition number of the overlap matrix is 3.0503596809E-06.
    Using symmetric orthogonalization.

  ==> Pre-Iterations <==

  SCF Guess: Superposition of Atomic Densities via on-the-fly atomic UHF (no occupation information).

   -------------------------
    Irrep   Nso     Nmo    
   -------------------------
     A        418     418 
   -------------------------
    Total     418     418
   -------------------------

  ==> Iterations <==

                           Total Energy        Delta E     RMS |[F,P]|

   @DF-RHF iter SAD:   -75.46846438933417   -7.54685e+01   0.00000e+00 
   @DF-RHF iter   1:   -75.97594591342411   -5.07482e-01   1.12076e-03 ADIIS/DIIS
   @DF-RHF iter   2:   -76.02821660152755   -5.22707e-02   7.61412e-04 ADIIS/DIIS
   @DF-RHF iter   3:   -76.05940492709807   -3.11883e-02   5.17917e-05 DIIS
   @DF-RHF iter   4:   -76.05980218052723   -3.97253e-04   1.24765e-05 DIIS
   @DF-RHF iter   5:   -76.05982713188820   -2.49514e-05   2.82958e-06 DIIS
   @DF-RHF iter   6:   -76.05982920476724   -2.07288e-06   6.36211e-07 DIIS
   @DF-RHF iter   7:   -76.05982932136965   -1.16602e-07   1.21488e-07 DIIS
   @DF-RHF iter   8:   -76.05982932513390   -3.76426e-09   2.00633e-08 DIIS
   @DF-RHF iter   9:   -76.05982932521563   -8.17266e-11   5.04321e-09 DIIS
  Energy and wave function converged.


  ==> Post-Iterations <==

    Orbital Energies [Eh]
    ---------------------

    Doubly Occupied:                                                      

       1A    -20.565130     2A     -1.347850     3A     -0.725897  
       4A     -0.573510     5A     -0.508378  

    Virtual:                                                              

       6A      0.008130     7A      0.016459     8A      0.016983  
       9A      0.018561    10A      0.041637    11A      0.053689  
      12A      0.054208    13A      0.054795    14A      0.056920  
      15A      0.058784    16A      0.059578    17A      0.061878  
      18A      0.069191    19A      0.083089    20A      0.086060  
      21A      0.087743    22A      0.092264    23A      0.095156  
      24A      0.097213    25A      0.107173    26A      0.116497  
      27A      0.136911    28A      0.140684    29A      0.146540  
      30A      0.155727    31A      0.168221    32A      0.171567  
      33A      0.177662    34A      0.180179    35A      0.190856  
      36A      0.196404    37A      0.202959    38A      0.210489  
      39A      0.218588    40A      0.225927    41A      0.233091  
      42A      0.241164    43A      0.246163    44A      0.264872  
      45A      0.271547    46A      0.276012    47A      0.277753  
      48A      0.291208    49A      0.299515    50A      0.302867  
      51A      0.308848    52A      0.319537    53A      0.322965  
      54A      0.332787    55A      0.342111    56A      0.349166  
      57A      0.352174    58A      0.356736    59A      0.366359  
      60A      0.370505    61A      0.372232    62A      0.387914  
      63A      0.395075    64A      0.399214    65A      0.405365  
      66A      0.409818    67A      0.411928    68A      0.420969  
      69A      0.428134    70A      0.434949    71A      0.439757  
      72A      0.442630    73A      0.446906    74A      0.454307  
      75A      0.456663    76A      0.461573    77A      0.469545  
      78A      0.473831    79A      0.478131    80A      0.482684  
      81A      0.500572    82A      0.502013    83A      0.506175  
      84A      0.520175    85A      0.530149    86A      0.538496  
      87A      0.548767    88A      0.555464    89A      0.562361  
      90A      0.585845    91A      0.606986    92A      0.620524  
      93A      0.667968    94A      0.688419    95A      0.698098  
      96A      0.712140    97A      0.715144    98A      0.725139  
      99A      0.735874   100A      0.741476   101A      0.758213  
     102A      0.771629   103A      0.782781   104A      0.794743  
     105A      0.802486   106A      0.810062   107A      0.818832  
     108A      0.823358   109A      0.825581   110A      0.841077  
     111A      0.845267   112A      0.856652   113A      0.865835  
     114A      0.874106   115A      0.880844   116A      0.893330  
     117A      0.898054   118A      0.908357   119A      0.914288  
     120A      0.925081   121A      0.930383   122A      0.947581  
     123A      0.951018   124A      0.963980   125A      0.972145  
     126A      0.976133   127A      0.986433   128A      0.988771  
     129A      0.998664   130A      1.009075   131A      1.014500  
     132A      1.021428   133A      1.023652   134A      1.035468  
     135A      1.050633   136A      1.053281   137A      1.060563  
     138A      1.069761   139A      1.076764   140A      1.082072  
     141A      1.089464   142A      1.098105   143A      1.104034  
     144A      1.107806   145A      1.118586   146A      1.126493  
     147A      1.131812   148A      1.137891   149A      1.148035  
     150A      1.160861   151A      1.173146   152A      1.176208  
     153A      1.187240   154A      1.207098   155A      1.212282  
     156A      1.218005   157A      1.226644   158A      1.242361  
     159A      1.249313   160A      1.264629   161A      1.276943  
     162A      1.284769   163A      1.292807   164A      1.309357  
     165A      1.321644   166A      1.326542   167A      1.338675  
     168A      1.343662   169A      1.352594   170A      1.367770  
     171A      1.376641   172A      1.391451   173A      1.405714  
     174A      1.433538   175A      1.450646   176A      1.460720  
     177A      1.469684   178A      1.475121   179A      1.513241  
     180A      1.527516   181A      1.529632   182A      1.590068  
     183A      1.604005   184A      1.646563   185A      1.662846  
     186A      1.678619   187A      1.715728   188A      1.719963  
     189A      1.749410   190A      1.755430   191A      1.788132  
     192A      1.798868   193A      1.818859   194A      1.822737  
     195A      1.840263   196A      1.846576   197A      1.864233  
     198A      1.879589   199A      1.894236   200A      1.897227  
     201A      1.927474   202A      1.933428   203A      1.957093  
     204A      1.969166   205A      1.996673   206A      2.016831  
     207A      2.027355   208A      2.047749   209A      2.075359  
     210A      2.113863   211A      2.133161   212A      2.150260  
     213A      2.165790   214A      2.204574   215A      2.375802  
     216A      2.416951   217A      2.442436   218A      2.466826  
     219A      2.493617   220A      2.508684   221A      2.519930  
     222A      2.538716   223A      2.546156   224A      2.554948  
     225A      2.579814   226A      2.590318   227A      2.596462  
     228A      2.608708   229A      2.612807   230A      2.615062  
     231A      2.626166   232A      2.658777   233A      2.662366  
     234A      2.677651   235A      2.701399   236A      2.712274  
     237A      2.739042   238A      2.762972   239A      2.781106  
     240A      2.806406   241A      2.820904   242A      2.829229  
     243A      2.869991   244A      2.888911   245A      2.906148  
     246A      2.928503   247A      2.937183   248A      2.967603  
     249A      2.974817   250A      3.011230   251A      3.056449  
     252A      3.063317   253A      3.091868   254A      3.250602  
     255A      3.255570   256A      3.275989   257A      3.282612  
     258A      3.298800   259A      3.311432   260A      3.325898  
     261A      3.347889   262A      3.353991   263A      3.365556  
     264A      3.395976   265A      3.420357   266A      3.430405  
     267A      3.452030   268A      3.488101   269A      3.620320  
     270A      3.633489   271A      3.665079   272A      3.714302  
     273A      3.732396   274A      3.760815   275A      3.827547  
     276A      3.894946   277A      4.117933   278A      4.261933  
     279A      4.273801   280A      4.341074   281A      4.394930  
     282A      4.428827   283A      4.460089   284A      4.468910  
     285A      4.485309   286A      4.503160   287A      4.517294  
     288A      4.537763   289A      4.538663   290A      4.548780  
     291A      4.565838   292A      4.578699   293A      4.589543  
     294A      4.602588   295A      4.651990   296A      4.680727  
     297A      4.720806   298A      4.757126   299A      4.775831  
     300A      4.789461   301A      4.792220   302A      4.801881  
     303A      4.823828   304A      4.836159   305A      4.858770  
     306A      4.934341   307A      4.954968   308A      4.972860  
     309A      4.987581   310A      4.996187   311A      5.029886  
     312A      5.053432   313A      5.066559   314A      5.092000  
     315A      5.151550   316A      5.196169   317A      5.212631  
     318A      5.275891   319A      5.285110   320A      5.361217  
     321A      5.379016   322A      5.512961   323A      5.531396  
     324A      5.546158   325A      5.633185   326A      5.645043  
     327A      5.691841   328A      5.706987   329A      5.741542  
     330A      5.780786   331A      5.814469   332A      5.837975  
     333A      5.848699   334A      5.920377   335A      6.001262  
     336A      6.052060   337A      6.172212   338A      6.200427  
     339A      6.205717   340A      6.247914   341A      6.381285  
     342A      6.430916   343A      6.557471   344A      6.625152  
     345A      6.646761   346A      6.751261   347A      6.798248  
     348A      6.810472   349A      6.887484   350A      6.946268  
     351A      7.058231   352A      7.173246   353A      7.201470  
     354A      7.234818   355A      7.279591   356A      7.339116  
     357A      7.373042   358A      7.426975   359A      7.447081  
     360A      7.452715   361A      7.556537   362A      7.656733  
     363A      7.714003   364A      7.740501   365A      7.763019  
     366A      7.847951   367A      7.914401   368A      7.938126  
     369A      7.989575   370A      8.002787   371A      8.071913  
     372A      8.123329   373A      8.164283   374A      8.177523  
     375A      8.271677   376A      8.277838   377A      8.301202  
     378A      8.338205   379A      8.399381   380A      8.815542  
     381A      8.827409   382A      8.844311   383A      8.857749  
     384A      8.999152   385A      9.003462   386A      9.060051  
     387A      9.920550   388A      9.933823   389A      9.956942  
     390A      9.983095   391A     10.022079   392A     10.030634  
     393A     10.034642   394A     10.041434   395A     10.077964  
     396A     10.215638   397A     10.266305   398A     10.292348  
     399A     11.191944   400A     11.245790   401A     11.513403  
     402A     11.709155   403A     11.786678   404A     11.891649  
     405A     12.227178   406A     12.461193   407A     12.616073  
     408A     13.577696   409A     13.679016   410A     13.861583  
     411A     13.867799   412A     13.892710   413A     13.911009  
     414A     16.059328   415A     64.847905   416A     65.253831  
     417A     65.884327   418A     67.349605  

    Final Occupation by Irrep:
              A 
    DOCC [     5 ]
    NA   [     5 ]
    NB   [     5 ]

  @DF-RHF Final Energy:   -76.05982932521563

   => Energetics <=

    Nuclear Repulsion Energy =              9.1480368795884441
    One-Electron Energy =                -122.9741998835329326
    Two-Electron Energy =                  37.7663336787288486
    Total Energy =                        -76.0598293252156452

Computation Completed


Properties will be evaluated at   0.000000,   0.000000,   0.000000 [a0]

Properties computed using the SCF density matrix


 Multipole Moments:

 ------------------------------------------------------------------------------------
     Multipole            Electronic (a.u.)      Nuclear  (a.u.)        Total (a.u.)
 ------------------------------------------------------------------------------------

 L = 1.  Multiply by 2.5417464519 to convert [e a0] to [Debye]
 Dipole X            :         -3.8801049            3.5800521           -0.3000527
 Dipole Y            :        -33.7115353           34.3827316            0.6711963
 Dipole Z            :         32.6283291          -32.7427366           -0.1144075
 Magnitude           :                                                    0.7440599

 ------------------------------------------------------------------------------------

*** tstop() called on ddmfs1 at Mon Jan 22 15:58:56 2024
Module time:
	user time   =      62.20 seconds =       1.04 minutes
	system time =       4.53 seconds =       0.08 minutes
	total time  =          5 seconds =       0.08 minutes
Total time:
	user time   =      62.20 seconds =       1.04 minutes
	system time =       4.53 seconds =       0.08 minutes
	total time  =          5 seconds =       0.08 minutes

*** tstart() called on ddmfs1
*** at Mon Jan 22 15:58:56 2024


  //>>>>>>>>>>>>>>>>>>>>>>>>>>>>>>>>>>>//
  //               DFMP2               //
  //<<<<<<<<<<<<<<<<<<<<<<<<<<<<<<<<<<<//

   => Loading Basis Set <=

    Name: (AUG-CC-PVTZ AUX)
    Role: RIFIT
    Keyword: DF_BASIS_MP2
    atoms 1                     entry NA         line   610 file /ddmfs1b/softs/psi4conda/share/psi4/basis/def2-qzvpp-ri.gbs 
    atoms 2, 5, 8, 11           entry O          line   264 file /ddmfs1b/softs/psi4conda/share/psi4/basis/aug-cc-pvtz-ri.gbs 
    atoms 3-4, 6-7, 9-10, 12-13 entry H          line    30 file /ddmfs1b/softs/psi4conda/share/psi4/basis/aug-cc-pvtz-ri.gbs 

	 --------------------------------------------------------
	                          DF-MP2                         
	      2nd-Order Density-Fitted Moller-Plesset Theory     
	              RMP2 Wavefunction,  20 Threads             
	                                                         
	        Rob Parrish, Justin Turney, Andy Simmonett,      
	           Ed Hohenstein, and C. David Sherrill          
	 --------------------------------------------------------

   => Auxiliary Basis Set <=

  Basis Set: (AUG-CC-PVTZ AUX)
    Blend: AUG-CC-PVTZ-RI + DEF2-QZVPP-RI
    Number of shells: 266
    Number of basis functions: 958
    Number of Cartesian functions: 1198
    Spherical Harmonics?: true
    Max angular momentum: 4

	 --------------------------------------------------------
	                 NBF =   418, NAUX =   958
	 --------------------------------------------------------
	   CLASS    FOCC     OCC    AOCC    AVIR     VIR    FVIR
	   PAIRS       0       5       5     413     413       0
	 --------------------------------------------------------

	-----------------------------------------------------------
	 ==================> DF-MP2 Energies <==================== 
	-----------------------------------------------------------
	 Reference Energy          =     -76.0598293252156310 [Eh]
	 Singles Energy            =      -0.0000000000000000 [Eh]
	 Same-Spin Energy          =      -0.0683898508405772 [Eh]
	 Opposite-Spin Energy      =      -0.2156172363445845 [Eh]
	 Correlation Energy        =      -0.2840070871851617 [Eh]
	 Total Energy              =     -76.3438364124007904 [Eh]
	-----------------------------------------------------------
	 ================> DF-SCS-MP2 Energies <================== 
	-----------------------------------------------------------
	 SCS Same-Spin Scale       =       0.3333333333333333 [-]
	 SCS Opposite-Spin Scale   =       1.2000000000000000 [-]
	 SCS Same-Spin Energy      =      -0.0227966169468591 [Eh]
	 SCS Opposite-Spin Energy  =      -0.2587406836135014 [Eh]
	 SCS Correlation Energy    =      -0.2815373005603605 [Eh]
	 SCS Total Energy          =     -76.3413666257759900 [Eh]
	-----------------------------------------------------------


*** tstop() called on ddmfs1 at Mon Jan 22 15:59:01 2024
Module time:
	user time   =      21.32 seconds =       0.36 minutes
	system time =       1.54 seconds =       0.03 minutes
	total time  =          5 seconds =       0.08 minutes
Total time:
	user time   =      83.53 seconds =       1.39 minutes
	system time =       6.08 seconds =       0.10 minutes
	total time  =         10 seconds =       0.17 minutes

    Psi4 stopped on: Monday, 22 January 2024 03:59PM
    Psi4 wall time for execution: 0:00:09.76

*** Psi4 exiting successfully. Buy a developer a beer!
