
    -----------------------------------------------------------------------
          Psi4: An Open-Source Ab Initio Electronic Structure Package
                               Psi4 1.8.2 release

                         Git: Rev {} zzzzzzz 


    D. G. A. Smith, L. A. Burns, A. C. Simmonett, R. M. Parrish,
    M. C. Schieber, R. Galvelis, P. Kraus, H. Kruse, R. Di Remigio,
    A. Alenaizan, A. M. James, S. Lehtola, J. P. Misiewicz, M. Scheurer,
    R. A. Shaw, J. B. Schriber, Y. Xie, Z. L. Glick, D. A. Sirianni,
    J. S. O'Brien, J. M. Waldrop, A. Kumar, E. G. Hohenstein,
    B. P. Pritchard, B. R. Brooks, H. F. Schaefer III, A. Yu. Sokolov,
    K. Patkowski, A. E. DePrince III, U. Bozkaya, R. A. King,
    F. A. Evangelista, J. M. Turney, T. D. Crawford, C. D. Sherrill,
    J. Chem. Phys. 152(18) 184108 (2020). https://doi.org/10.1063/5.0006002

                            Additional Code Authors
    E. T. Seidl, C. L. Janssen, E. F. Valeev, M. L. Leininger,
    J. F. Gonthier, R. M. Richard, H. R. McAlexander, M. Saitow, X. Wang,
    P. Verma, M. H. Lechner, A. Jiang, S. Behnle, A. G. Heide,
    M. F. Herbst, and D. L. Poole

             Previous Authors, Complete List of Code Contributors,
                       and Citations for Specific Modules
    https://github.com/psi4/psi4/blob/master/codemeta.json
    https://github.com/psi4/psi4/graphs/contributors
    http://psicode.org/psi4manual/master/introduction.html#citing-psifour

    -----------------------------------------------------------------------


    Psi4 started on: Monday, 22 January 2024 04:25PM

    Process ID: 77816
    Host:       ddmfs1
    PSIDATADIR: /ddmfs1b/softs/psi4conda/share/psi4
    Memory:     500.0 MiB
    Threads:    20
    
  ==> Input File <==

--------------------------------------------------------------------------
MEMORY 60 GB

molecule dimer {
0 1
Gh(Na)     0.000000     0.000000     0.000000
Gh(O)      1.123334     2.081258    -0.572008
Gh(H)      1.216698     2.687495     0.190794
Gh(H)      1.959598     2.117506    -1.056213
Gh(O)      2.258056    -1.030970     0.237516
Gh(H)      2.691734    -0.383332     0.814519
Gh(H)      2.334528    -0.786860    -0.703473
Gh(O)     -0.907363    -1.944297     0.044354
Gh(H)     -1.273537    -2.411135    -0.753502
Gh(H)     -1.634033    -1.924246     0.641980
O         -2.039574     0.663792    -0.777922
H         -1.939320     1.285531    -1.453140
H         -2.627457    -0.060953    -1.090527

units ang
no_reorient
no_com
symmetry c1
}

set {
basis        aug-cc-pVTZ
scf_type     df
}

energy("mp2")
--------------------------------------------------------------------------

  Memory set to  55.879 GiB by Python driver.

Scratch directory: /ddmfs1a/scratch/
   => Libint2 <=

    Primary   basis highest AM E, G, H:  5, 4, 3
    Auxiliary basis highest AM E, G, H:  6, 5, 4
    Onebody   basis highest AM E, G, H:  6, 5, 4
    Solid Harmonics ordering:            gaussian

*** tstart() called on ddmfs1
*** at Mon Jan 22 16:25:22 2024

   => Loading Basis Set <=

    Name: AUG-CC-PVTZ
    Role: ORBITAL
    Keyword: BASIS
    atoms 1                     entry NA         line   469 file /ddmfs1b/softs/psi4conda/share/psi4/basis/aug-cc-pvtz.gbs 
    atoms 2, 5, 8, 11           entry O          line   331 file /ddmfs1b/softs/psi4conda/share/psi4/basis/aug-cc-pvtz.gbs 
    atoms 3-4, 6-7, 9-10, 12-13 entry H          line    40 file /ddmfs1b/softs/psi4conda/share/psi4/basis/aug-cc-pvtz.gbs 


         ---------------------------------------------------------
                                   SCF
               by Justin Turney, Rob Parrish, Andy Simmonett
                          and Daniel G. A. Smith
                              RHF Reference
                       20 Threads,  57220 MiB Core
         ---------------------------------------------------------

  ==> Geometry <==

    Molecular point group: c1
    Full point group: C1

    Geometry (in Angstrom), charge = 0, multiplicity = 1:

       Center              X                  Y                   Z               Mass       
    ------------   -----------------  -----------------  -----------------  -----------------
      Gh(NA)          0.000000000000     0.000000000000     0.000000000000    22.989769282000
      Gh(O)           1.123334000000     2.081258000000    -0.572008000000    15.994914619570
      Gh(H)           1.216698000000     2.687495000000     0.190794000000     1.007825032230
      Gh(H)           1.959598000000     2.117506000000    -1.056213000000     1.007825032230
      Gh(O)           2.258056000000    -1.030970000000     0.237516000000    15.994914619570
      Gh(H)           2.691734000000    -0.383332000000     0.814519000000     1.007825032230
      Gh(H)           2.334528000000    -0.786860000000    -0.703473000000     1.007825032230
      Gh(O)          -0.907363000000    -1.944297000000     0.044354000000    15.994914619570
      Gh(H)          -1.273537000000    -2.411135000000    -0.753502000000     1.007825032230
      Gh(H)          -1.634033000000    -1.924246000000     0.641980000000     1.007825032230
         O           -2.039574000000     0.663792000000    -0.777922000000    15.994914619570
         H           -1.939320000000     1.285531000000    -1.453140000000     1.007825032230
         H           -2.627457000000    -0.060953000000    -1.090527000000     1.007825032230

  Running in c1 symmetry.

  Rotational constants: A =      0.08713  B =      0.07275  C =      0.04169 [cm^-1]
  Rotational constants: A =   2612.03948  B =   2180.92109  C =   1249.77324 [MHz]
  Nuclear repulsion =    9.226800735511540

  Charge       = 0
  Multiplicity = 1
  Electrons    = 10
  Nalpha       = 5
  Nbeta        = 5

  ==> Algorithm <==

  SCF Algorithm Type is DF.
  DIIS enabled.
  MOM disabled.
  Fractional occupation disabled.
  Guess Type is SAD.
  Energy threshold   = 1.00e-08
  Density threshold  = 1.00e-08
  Integral threshold = 1.00e-12

  ==> Primary Basis <==

  Basis Set: AUG-CC-PVTZ
    Blend: AUG-CC-PVTZ
    Number of shells: 144
    Number of basis functions: 418
    Number of Cartesian functions: 479
    Spherical Harmonics?: true
    Max angular momentum: 3

   => Loading Basis Set <=

    Name: (AUG-CC-PVTZ AUX)
    Role: JKFIT
    Keyword: DF_BASIS_SCF
    atoms 1                     entry NA         line   498 file /ddmfs1b/softs/psi4conda/share/psi4/basis/def2-universal-jkfit.gbs 
    atoms 2, 5, 8, 11           entry O          line   286 file /ddmfs1b/softs/psi4conda/share/psi4/basis/aug-cc-pvtz-jkfit.gbs 
    atoms 3-4, 6-7, 9-10, 12-13 entry H          line    70 file /ddmfs1b/softs/psi4conda/share/psi4/basis/aug-cc-pvtz-jkfit.gbs 

  ==> Integral Setup <==

  DFHelper Memory: AOs need 1.147 GiB; user supplied 41.910 GiB. 
  Using in-core AOs.

  ==> MemDFJK: Density-Fitted J/K Matrices <==

    J tasked:                   Yes
    K tasked:                   Yes
    wK tasked:                   No
    OpenMP threads:              20
    Memory [MiB]:             42915
    Algorithm:                 Core
    Schwarz Cutoff:           1E-12
    Mask sparsity (%):       7.4323
    Fitting Condition:        1E-10

   => Auxiliary Basis Set <=

  Basis Set: (AUG-CC-PVTZ AUX)
    Blend: AUG-CC-PVTZ-JKFIT + DEF2-UNIVERSAL-JKFIT
    Number of shells: 266
    Number of basis functions: 896
    Number of Cartesian functions: 1101
    Spherical Harmonics?: true
    Max angular momentum: 4

  Minimum eigenvalue in the overlap matrix is 3.2202413417E-05.
  Reciprocal condition number of the overlap matrix is 2.5617205507E-06.
    Using symmetric orthogonalization.

  ==> Pre-Iterations <==

  SCF Guess: Superposition of Atomic Densities via on-the-fly atomic UHF (no occupation information).

   -------------------------
    Irrep   Nso     Nmo    
   -------------------------
     A        418     418 
   -------------------------
    Total     418     418
   -------------------------

  ==> Iterations <==

                           Total Energy        Delta E     RMS |[F,P]|

   @DF-RHF iter SAD:   -75.47637942068263   -7.54764e+01   0.00000e+00 
   @DF-RHF iter   1:   -75.97463257511868   -4.98253e-01   1.12499e-03 ADIIS/DIIS
   @DF-RHF iter   2:   -76.02742996950050   -5.27974e-02   7.59384e-04 ADIIS/DIIS
   @DF-RHF iter   3:   -76.05835081675885   -3.09208e-02   5.17167e-05 DIIS
   @DF-RHF iter   4:   -76.05874468151090   -3.93865e-04   1.23348e-05 DIIS
   @DF-RHF iter   5:   -76.05876895959898   -2.42781e-05   2.81861e-06 DIIS
   @DF-RHF iter   6:   -76.05877100069131   -2.04109e-06   6.37486e-07 DIIS
   @DF-RHF iter   7:   -76.05877111664898   -1.15958e-07   1.20330e-07 DIIS
   @DF-RHF iter   8:   -76.05877112030012   -3.65114e-09   1.98463e-08 DIIS
   @DF-RHF iter   9:   -76.05877112037905   -7.89271e-11   5.03635e-09 DIIS
  Energy and wave function converged.


  ==> Post-Iterations <==

    Orbital Energies [Eh]
    ---------------------

    Doubly Occupied:                                                      

       1A    -20.564069     2A     -1.352900     3A     -0.728726  
       4A     -0.576167     5A     -0.509304  

    Virtual:                                                              

       6A      0.007800     7A      0.016355     8A      0.016899  
       9A      0.018814    10A      0.039143    11A      0.052994  
      12A      0.054485    13A      0.055556    14A      0.058994  
      15A      0.060524    16A      0.061302    17A      0.066574  
      18A      0.069244    19A      0.078905    20A      0.083415  
      21A      0.084472    22A      0.090328    23A      0.097736  
      24A      0.101966    25A      0.117874    26A      0.119798  
      27A      0.134976    28A      0.141846    29A      0.150246  
      30A      0.163165    31A      0.171483    32A      0.174797  
      33A      0.180547    34A      0.185590    35A      0.187674  
      36A      0.191154    37A      0.200299    38A      0.202374  
      39A      0.209221    40A      0.218060    41A      0.219357  
      42A      0.224014    43A      0.247144    44A      0.249462  
      45A      0.263630    46A      0.277313    47A      0.283985  
      48A      0.289660    49A      0.304453    50A      0.315023  
      51A      0.317604    52A      0.327260    53A      0.333127  
      54A      0.334952    55A      0.339128    56A      0.350726  
      57A      0.356022    58A      0.363880    59A      0.369778  
      60A      0.371575    61A      0.383002    62A      0.392890  
      63A      0.397002    64A      0.402197    65A      0.408108  
      66A      0.413303    67A      0.419278    68A      0.423511  
      69A      0.426722    70A      0.434554    71A      0.439882  
      72A      0.450887    73A      0.456967    74A      0.458120  
      75A      0.459437    76A      0.467228    77A      0.475132  
      78A      0.476888    79A      0.486313    80A      0.494598  
      81A      0.501752    82A      0.508247    83A      0.513852  
      84A      0.519055    85A      0.523295    86A      0.539385  
      87A      0.559653    88A      0.563828    89A      0.569275  
      90A      0.582132    91A      0.605349    92A      0.618106  
      93A      0.642709    94A      0.676082    95A      0.695670  
      96A      0.708810    97A      0.720495    98A      0.727015  
      99A      0.732255   100A      0.746061   101A      0.757714  
     102A      0.773237   103A      0.781764   104A      0.801894  
     105A      0.803787   106A      0.806220   107A      0.813154  
     108A      0.829512   109A      0.836606   110A      0.843084  
     111A      0.860614   112A      0.868615   113A      0.870900  
     114A      0.886207   115A      0.889970   116A      0.904887  
     117A      0.911259   118A      0.917978   119A      0.922002  
     120A      0.926623   121A      0.934491   122A      0.945729  
     123A      0.947327   124A      0.963797   125A      0.967794  
     126A      0.981970   127A      0.993124   128A      0.995695  
     129A      0.998765   130A      1.009221   131A      1.013039  
     132A      1.019110   133A      1.021779   134A      1.043272  
     135A      1.053146   136A      1.062358   137A      1.065755  
     138A      1.077017   139A      1.082774   140A      1.090195  
     141A      1.095081   142A      1.099275   143A      1.116137  
     144A      1.120447   145A      1.129657   146A      1.136155  
     147A      1.150985   148A      1.160218   149A      1.168133  
     150A      1.187756   151A      1.189391   152A      1.196754  
     153A      1.204902   154A      1.224185   155A      1.229430  
     156A      1.235633   157A      1.249104   158A      1.254587  
     159A      1.257602   160A      1.275136   161A      1.283217  
     162A      1.290836   163A      1.299427   164A      1.307319  
     165A      1.330860   166A      1.339721   167A      1.359833  
     168A      1.368903   169A      1.384724   170A      1.395529  
     171A      1.426784   172A      1.439383   173A      1.452339  
     174A      1.458998   175A      1.461259   176A      1.473486  
     177A      1.485245   178A      1.495377   179A      1.527740  
     180A      1.536801   181A      1.550704   182A      1.576741  
     183A      1.617283   184A      1.629308   185A      1.635426  
     186A      1.665697   187A      1.674149   188A      1.688078  
     189A      1.714008   190A      1.731349   191A      1.768762  
     192A      1.807883   193A      1.828482   194A      1.834687  
     195A      1.843712   196A      1.852200   197A      1.870324  
     198A      1.891080   199A      1.914922   200A      1.925163  
     201A      1.933292   202A      1.954414   203A      1.978272  
     204A      1.988357   205A      2.005875   206A      2.016812  
     207A      2.035565   208A      2.045925   209A      2.067360  
     210A      2.072808   211A      2.105194   212A      2.134343  
     213A      2.174325   214A      2.272702   215A      2.384843  
     216A      2.398728   217A      2.450867   218A      2.483300  
     219A      2.496430   220A      2.514504   221A      2.536109  
     222A      2.543286   223A      2.551196   224A      2.580011  
     225A      2.587415   226A      2.613865   227A      2.624699  
     228A      2.632761   229A      2.642382   230A      2.650952  
     231A      2.667549   232A      2.682364   233A      2.696101  
     234A      2.701888   235A      2.721484   236A      2.730979  
     237A      2.750643   238A      2.765138   239A      2.793316  
     240A      2.823161   241A      2.827746   242A      2.848325  
     243A      2.890428   244A      2.913278   245A      2.920647  
     246A      2.938749   247A      2.950284   248A      2.976148  
     249A      3.005660   250A      3.041229   251A      3.058757  
     252A      3.091289   253A      3.195754   254A      3.219390  
     255A      3.226106   256A      3.245112   257A      3.248788  
     258A      3.259719   259A      3.278762   260A      3.287271  
     261A      3.304913   262A      3.342295   263A      3.361847  
     264A      3.374975   265A      3.380933   266A      3.395895  
     267A      3.436693   268A      3.441470   269A      3.593606  
     270A      3.644454   271A      3.700155   272A      3.730849  
     273A      3.753346   274A      3.765091   275A      3.820557  
     276A      3.924522   277A      4.168968   278A      4.258680  
     279A      4.313939   280A      4.373221   281A      4.393821  
     282A      4.417891   283A      4.435741   284A      4.466408  
     285A      4.499481   286A      4.515173   287A      4.527364  
     288A      4.557935   289A      4.574050   290A      4.581104  
     291A      4.598660   292A      4.606276   293A      4.640771  
     294A      4.657514   295A      4.682428   296A      4.684439  
     297A      4.693097   298A      4.717874   299A      4.735190  
     300A      4.758703   301A      4.765662   302A      4.799034  
     303A      4.812209   304A      4.841186   305A      4.887901  
     306A      4.969530   307A      5.016355   308A      5.030912  
     309A      5.065866   310A      5.071303   311A      5.103721  
     312A      5.137409   313A      5.153225   314A      5.180188  
     315A      5.188429   316A      5.205721   317A      5.240718  
     318A      5.255709   319A      5.302460   320A      5.389535  
     321A      5.467446   322A      5.475391   323A      5.487580  
     324A      5.530045   325A      5.552341   326A      5.565250  
     327A      5.589138   328A      5.624336   329A      5.644619  
     330A      5.678243   331A      5.689520   332A      5.764673  
     333A      5.807626   334A      5.856102   335A      5.889582  
     336A      5.990729   337A      6.202686   338A      6.229128  
     339A      6.239620   340A      6.252672   341A      6.298779  
     342A      6.379458   343A      6.459622   344A      6.627460  
     345A      6.647727   346A      6.709167   347A      6.770426  
     348A      6.819395   349A      6.825852   350A      6.907217  
     351A      7.027677   352A      7.052338   353A      7.103890  
     354A      7.117209   355A      7.249832   356A      7.364451  
     357A      7.383070   358A      7.465001   359A      7.484465  
     360A      7.558968   361A      7.613310   362A      7.720782  
     363A      7.733115   364A      7.769235   365A      7.801808  
     366A      7.837010   367A      7.848613   368A      7.904378  
     369A      7.962229   370A      8.064159   371A      8.103795  
     372A      8.147960   373A      8.183997   374A      8.187203  
     375A      8.218142   376A      8.277386   377A      8.288390  
     378A      8.296722   379A      8.324956   380A      8.720419  
     381A      8.740023   382A      8.771550   383A      8.794494  
     384A      8.804503   385A      8.865974   386A      8.883426  
     387A      9.808897   388A      9.907411   389A      9.971968  
     390A      9.997565   391A     10.010582   392A     10.048890  
     393A     10.059575   394A     10.067376   395A     10.088008  
     396A     10.166848   397A     10.232489   398A     10.268636  
     399A     11.082746   400A     11.142902   401A     11.154125  
     402A     11.811961   403A     11.907326   404A     11.930218  
     405A     12.094762   406A     12.104064   407A     12.329108  
     408A     13.490956   409A     13.551371   410A     13.642626  
     411A     13.918459   412A     13.939888   413A     13.956619  
     414A     16.465798   415A     64.529084   416A     64.816518  
     417A     64.986753   418A     65.860786  

    Final Occupation by Irrep:
              A 
    DOCC [     5 ]
    NA   [     5 ]
    NB   [     5 ]

  @DF-RHF Final Energy:   -76.05877112037905

   => Energetics <=

    Nuclear Repulsion Energy =              9.2268007355115405
    One-Electron Energy =                -123.1088061346762146
    Two-Electron Energy =                  37.8232342787856197
    Total Energy =                        -76.0587711203790491

Computation Completed


Properties will be evaluated at   0.000000,   0.000000,   0.000000 [a0]

Properties computed using the SCF density matrix


 Multipole Moments:

 ------------------------------------------------------------------------------------
     Multipole            Electronic (a.u.)      Nuclear  (a.u.)        Total (a.u.)
 ------------------------------------------------------------------------------------

 L = 1.  Multiply by 2.5417464519 to convert [e a0] to [Debye]
 Dipole X            :         39.1377840          -39.4638480           -0.3260640
 Dipole Y            :        -12.4108505           12.3491977           -0.0616528
 Dipole Z            :         15.8970908          -16.5673102           -0.6702194
 Magnitude           :                                                    0.7478722

 ------------------------------------------------------------------------------------

*** tstop() called on ddmfs1 at Mon Jan 22 16:25:26 2024
Module time:
	user time   =      62.01 seconds =       1.03 minutes
	system time =       4.48 seconds =       0.07 minutes
	total time  =          4 seconds =       0.07 minutes
Total time:
	user time   =      62.01 seconds =       1.03 minutes
	system time =       4.48 seconds =       0.07 minutes
	total time  =          4 seconds =       0.07 minutes

*** tstart() called on ddmfs1
*** at Mon Jan 22 16:25:26 2024


  //>>>>>>>>>>>>>>>>>>>>>>>>>>>>>>>>>>>//
  //               DFMP2               //
  //<<<<<<<<<<<<<<<<<<<<<<<<<<<<<<<<<<<//

   => Loading Basis Set <=

    Name: (AUG-CC-PVTZ AUX)
    Role: RIFIT
    Keyword: DF_BASIS_MP2
    atoms 1                     entry NA         line   610 file /ddmfs1b/softs/psi4conda/share/psi4/basis/def2-qzvpp-ri.gbs 
    atoms 2, 5, 8, 11           entry O          line   264 file /ddmfs1b/softs/psi4conda/share/psi4/basis/aug-cc-pvtz-ri.gbs 
    atoms 3-4, 6-7, 9-10, 12-13 entry H          line    30 file /ddmfs1b/softs/psi4conda/share/psi4/basis/aug-cc-pvtz-ri.gbs 

	 --------------------------------------------------------
	                          DF-MP2                         
	      2nd-Order Density-Fitted Moller-Plesset Theory     
	              RMP2 Wavefunction,  20 Threads             
	                                                         
	        Rob Parrish, Justin Turney, Andy Simmonett,      
	           Ed Hohenstein, and C. David Sherrill          
	 --------------------------------------------------------

   => Auxiliary Basis Set <=

  Basis Set: (AUG-CC-PVTZ AUX)
    Blend: AUG-CC-PVTZ-RI + DEF2-QZVPP-RI
    Number of shells: 266
    Number of basis functions: 958
    Number of Cartesian functions: 1198
    Spherical Harmonics?: true
    Max angular momentum: 4

	 --------------------------------------------------------
	                 NBF =   418, NAUX =   958
	 --------------------------------------------------------
	   CLASS    FOCC     OCC    AOCC    AVIR     VIR    FVIR
	   PAIRS       0       5       5     413     413       0
	 --------------------------------------------------------

	-----------------------------------------------------------
	 ==================> DF-MP2 Energies <==================== 
	-----------------------------------------------------------
	 Reference Energy          =     -76.0587711203790491 [Eh]
	 Singles Energy            =      -0.0000000000000000 [Eh]
	 Same-Spin Energy          =      -0.0682747932617695 [Eh]
	 Opposite-Spin Energy      =      -0.2154147218703674 [Eh]
	 Correlation Energy        =      -0.2836895151321368 [Eh]
	 Total Energy              =     -76.3424606355111877 [Eh]
	-----------------------------------------------------------
	 ================> DF-SCS-MP2 Energies <================== 
	-----------------------------------------------------------
	 SCS Same-Spin Scale       =       0.3333333333333333 [-]
	 SCS Opposite-Spin Scale   =       1.2000000000000000 [-]
	 SCS Same-Spin Energy      =      -0.0227582644205898 [Eh]
	 SCS Opposite-Spin Energy  =      -0.2584976662444408 [Eh]
	 SCS Correlation Energy    =      -0.2812559306650306 [Eh]
	 SCS Total Energy          =     -76.3400270510440748 [Eh]
	-----------------------------------------------------------


*** tstop() called on ddmfs1 at Mon Jan 22 16:25:31 2024
Module time:
	user time   =      21.39 seconds =       0.36 minutes
	system time =       1.53 seconds =       0.03 minutes
	total time  =          5 seconds =       0.08 minutes
Total time:
	user time   =      83.41 seconds =       1.39 minutes
	system time =       6.01 seconds =       0.10 minutes
	total time  =          9 seconds =       0.15 minutes

    Psi4 stopped on: Monday, 22 January 2024 04:25PM
    Psi4 wall time for execution: 0:00:09.65

*** Psi4 exiting successfully. Buy a developer a beer!
