
    -----------------------------------------------------------------------
          Psi4: An Open-Source Ab Initio Electronic Structure Package
                               Psi4 1.8.2 release

                         Git: Rev {} zzzzzzz 


    D. G. A. Smith, L. A. Burns, A. C. Simmonett, R. M. Parrish,
    M. C. Schieber, R. Galvelis, P. Kraus, H. Kruse, R. Di Remigio,
    A. Alenaizan, A. M. James, S. Lehtola, J. P. Misiewicz, M. Scheurer,
    R. A. Shaw, J. B. Schriber, Y. Xie, Z. L. Glick, D. A. Sirianni,
    J. S. O'Brien, J. M. Waldrop, A. Kumar, E. G. Hohenstein,
    B. P. Pritchard, B. R. Brooks, H. F. Schaefer III, A. Yu. Sokolov,
    K. Patkowski, A. E. DePrince III, U. Bozkaya, R. A. King,
    F. A. Evangelista, J. M. Turney, T. D. Crawford, C. D. Sherrill,
    J. Chem. Phys. 152(18) 184108 (2020). https://doi.org/10.1063/5.0006002

                            Additional Code Authors
    E. T. Seidl, C. L. Janssen, E. F. Valeev, M. L. Leininger,
    J. F. Gonthier, R. M. Richard, H. R. McAlexander, M. Saitow, X. Wang,
    P. Verma, M. H. Lechner, A. Jiang, S. Behnle, A. G. Heide,
    M. F. Herbst, and D. L. Poole

             Previous Authors, Complete List of Code Contributors,
                       and Citations for Specific Modules
    https://github.com/psi4/psi4/blob/master/codemeta.json
    https://github.com/psi4/psi4/graphs/contributors
    http://psicode.org/psi4manual/master/introduction.html#citing-psifour

    -----------------------------------------------------------------------


    Psi4 started on: Monday, 22 January 2024 03:07PM

    Process ID: 70563
    Host:       ddmfs1
    PSIDATADIR: /ddmfs1b/softs/psi4conda/share/psi4
    Memory:     500.0 MiB
    Threads:    20
    
  ==> Input File <==

--------------------------------------------------------------------------
MEMORY 60 GB

molecule dimer {
0 1
Gh(Na)     0.000000     0.000000     0.000000
Gh(O)      1.747514    -1.240286    -0.375824
Gh(H)      2.581703    -1.519130     0.078519
Gh(H)      1.479033    -2.093395    -0.704350
Gh(O)     -0.429820    -0.381650    -2.462831
Gh(H)     -1.131957     0.024596    -3.095869
Gh(H)     -0.303470    -1.200046    -3.002034
Gh(O)     -0.228330     2.599785     0.309304
Gh(H)     -1.092556     2.758248     0.746061
Gh(H)     -0.374367     2.681910    -0.695767
Gh(O)      0.084550    -0.396548     2.467479
Gh(H)      0.621263     0.054807     3.131341
Gh(H)      0.404248    -1.312537     2.361715
O         -1.925565    -1.536386     0.102860
H         -2.658248    -1.897907    -0.433939
H         -1.979879    -1.934402     0.955160

units ang
no_reorient
no_com
symmetry c1
}

set {
basis        aug-cc-pVTZ
scf_type     df
}

energy("mp2")
--------------------------------------------------------------------------

  Memory set to  55.879 GiB by Python driver.

Scratch directory: /ddmfs1a/scratch/
   => Libint2 <=

    Primary   basis highest AM E, G, H:  5, 4, 3
    Auxiliary basis highest AM E, G, H:  6, 5, 4
    Onebody   basis highest AM E, G, H:  6, 5, 4
    Solid Harmonics ordering:            gaussian

*** tstart() called on ddmfs1
*** at Mon Jan 22 15:07:09 2024

   => Loading Basis Set <=

    Name: AUG-CC-PVTZ
    Role: ORBITAL
    Keyword: BASIS
    atoms 1                            entry NA         line   469 file /ddmfs1b/softs/psi4conda/share/psi4/basis/aug-cc-pvtz.gbs 
    atoms 2, 5, 8, 11, 14              entry O          line   331 file /ddmfs1b/softs/psi4conda/share/psi4/basis/aug-cc-pvtz.gbs 
    atoms 3-4, 6-7, 9-10, 12-13, 15-16 entry H          line    40 file /ddmfs1b/softs/psi4conda/share/psi4/basis/aug-cc-pvtz.gbs 


         ---------------------------------------------------------
                                   SCF
               by Justin Turney, Rob Parrish, Andy Simmonett
                          and Daniel G. A. Smith
                              RHF Reference
                       20 Threads,  57220 MiB Core
         ---------------------------------------------------------

  ==> Geometry <==

    Molecular point group: c1
    Full point group: C1

    Geometry (in Angstrom), charge = 0, multiplicity = 1:

       Center              X                  Y                   Z               Mass       
    ------------   -----------------  -----------------  -----------------  -----------------
      Gh(NA)          0.000000000000     0.000000000000     0.000000000000    22.989769282000
      Gh(O)           1.747514000000    -1.240286000000    -0.375824000000    15.994914619570
      Gh(H)           2.581703000000    -1.519130000000     0.078519000000     1.007825032230
      Gh(H)           1.479033000000    -2.093395000000    -0.704350000000     1.007825032230
      Gh(O)          -0.429820000000    -0.381650000000    -2.462831000000    15.994914619570
      Gh(H)          -1.131957000000     0.024596000000    -3.095869000000     1.007825032230
      Gh(H)          -0.303470000000    -1.200046000000    -3.002034000000     1.007825032230
      Gh(O)          -0.228330000000     2.599785000000     0.309304000000    15.994914619570
      Gh(H)          -1.092556000000     2.758248000000     0.746061000000     1.007825032230
      Gh(H)          -0.374367000000     2.681910000000    -0.695767000000     1.007825032230
      Gh(O)           0.084550000000    -0.396548000000     2.467479000000    15.994914619570
      Gh(H)           0.621263000000     0.054807000000     3.131341000000     1.007825032230
      Gh(H)           0.404248000000    -1.312537000000     2.361715000000     1.007825032230
         O           -1.925565000000    -1.536386000000     0.102860000000    15.994914619570
         H           -2.658248000000    -1.897907000000    -0.433939000000     1.007825032230
         H           -1.979879000000    -1.934402000000     0.955160000000     1.007825032230

  Running in c1 symmetry.

  Rotational constants: A =      0.05067  B =      0.04441  C =      0.03797 [cm^-1]
  Rotational constants: A =   1518.92912  B =   1331.23288  C =   1138.29322 [MHz]
  Nuclear repulsion =    9.165712170991011

  Charge       = 0
  Multiplicity = 1
  Electrons    = 10
  Nalpha       = 5
  Nbeta        = 5

  ==> Algorithm <==

  SCF Algorithm Type is DF.
  DIIS enabled.
  MOM disabled.
  Fractional occupation disabled.
  Guess Type is SAD.
  Energy threshold   = 1.00e-08
  Density threshold  = 1.00e-08
  Integral threshold = 1.00e-12

  ==> Primary Basis <==

  Basis Set: AUG-CC-PVTZ
    Blend: AUG-CC-PVTZ
    Number of shells: 176
    Number of basis functions: 510
    Number of Cartesian functions: 584
    Spherical Harmonics?: true
    Max angular momentum: 3

   => Loading Basis Set <=

    Name: (AUG-CC-PVTZ AUX)
    Role: JKFIT
    Keyword: DF_BASIS_SCF
    atoms 1                            entry NA         line   498 file /ddmfs1b/softs/psi4conda/share/psi4/basis/def2-universal-jkfit.gbs 
    atoms 2, 5, 8, 11, 14              entry O          line   286 file /ddmfs1b/softs/psi4conda/share/psi4/basis/aug-cc-pvtz-jkfit.gbs 
    atoms 3-4, 6-7, 9-10, 12-13, 15-16 entry H          line    70 file /ddmfs1b/softs/psi4conda/share/psi4/basis/aug-cc-pvtz-jkfit.gbs 

  ==> Integral Setup <==

  DFHelper Memory: AOs need 2.014 GiB; user supplied 41.910 GiB. 
  Using in-core AOs.

  ==> MemDFJK: Density-Fitted J/K Matrices <==

    J tasked:                   Yes
    K tasked:                   Yes
    wK tasked:                   No
    OpenMP threads:              20
    Memory [MiB]:             42915
    Algorithm:                 Core
    Schwarz Cutoff:           1E-12
    Mask sparsity (%):       9.5309
    Fitting Condition:        1E-10

   => Auxiliary Basis Set <=

  Basis Set: (AUG-CC-PVTZ AUX)
    Blend: AUG-CC-PVTZ-JKFIT + DEF2-UNIVERSAL-JKFIT
    Number of shells: 324
    Number of basis functions: 1092
    Number of Cartesian functions: 1342
    Spherical Harmonics?: true
    Max angular momentum: 4

  Minimum eigenvalue in the overlap matrix is 3.1085382964E-05.
  Reciprocal condition number of the overlap matrix is 2.3206742500E-06.
    Using symmetric orthogonalization.

  ==> Pre-Iterations <==

  SCF Guess: Superposition of Atomic Densities via on-the-fly atomic UHF (no occupation information).

   -------------------------
    Irrep   Nso     Nmo    
   -------------------------
     A        510     510 
   -------------------------
    Total     510     510
   -------------------------

  ==> Iterations <==

                           Total Energy        Delta E     RMS |[F,P]|

   @DF-RHF iter SAD:   -75.47188200777870   -7.54719e+01   0.00000e+00 
   @DF-RHF iter   1:   -75.97563016000012   -5.03748e-01   9.19285e-04 DIIS/ADIIS
   @DF-RHF iter   2:   -76.02811233655532   -5.24822e-02   6.25417e-04 DIIS/ADIIS
   @DF-RHF iter   3:   -76.05944731525911   -3.13350e-02   4.25691e-05 DIIS
   @DF-RHF iter   4:   -76.05984275179095   -3.95437e-04   1.02274e-05 DIIS
   @DF-RHF iter   5:   -76.05986754424741   -2.47925e-05   2.32621e-06 DIIS
   @DF-RHF iter   6:   -76.05986959791612   -2.05367e-06   5.18287e-07 DIIS
   @DF-RHF iter   7:   -76.05986971079759   -1.12881e-07   9.65976e-08 DIIS
   @DF-RHF iter   8:   -76.05986971425989   -3.46230e-09   1.61313e-08 DIIS
   @DF-RHF iter   9:   -76.05986971433698   -7.70939e-11   4.06630e-09 DIIS
  Energy and wave function converged.


  ==> Post-Iterations <==

    Orbital Energies [Eh]
    ---------------------

    Doubly Occupied:                                                      

       1A    -20.566179     2A     -1.350451     3A     -0.721648  
       4A     -0.578846     5A     -0.509271  

    Virtual:                                                              

       6A      0.008216     7A      0.016393     8A      0.017175  
       9A      0.018197    10A      0.040713    11A      0.050860  
      12A      0.054318    13A      0.054496    14A      0.056714  
      15A      0.057564    16A      0.058038    17A      0.061066  
      18A      0.062914    19A      0.076607    20A      0.082597  
      21A      0.084015    22A      0.089546    23A      0.091558  
      24A      0.096871    25A      0.101226    26A      0.107821  
      27A      0.112077    28A      0.121544    29A      0.136709  
      30A      0.141501    31A      0.142284    32A      0.156411  
      33A      0.162980    34A      0.170199    35A      0.174709  
      36A      0.179756    37A      0.182367    38A      0.190624  
      39A      0.199573    40A      0.200976    41A      0.209745  
      42A      0.214854    43A      0.216001    44A      0.221898  
      45A      0.227990    46A      0.237300    47A      0.241315  
      48A      0.254551    49A      0.266415    50A      0.270782  
      51A      0.278177    52A      0.280809    53A      0.284079  
      54A      0.291456    55A      0.300600    56A      0.308174  
      57A      0.321040    58A      0.328732    59A      0.333175  
      60A      0.338336    61A      0.342942    62A      0.353814  
      63A      0.356138    64A      0.361222    65A      0.363616  
      66A      0.369782    67A      0.371946    68A      0.383035  
      69A      0.395192    70A      0.400339    71A      0.403608  
      72A      0.410003    73A      0.416162    74A      0.419791  
      75A      0.424729    76A      0.429145    77A      0.435259  
      78A      0.438858    79A      0.442815    80A      0.448920  
      81A      0.452288    82A      0.457079    83A      0.460609  
      84A      0.464714    85A      0.465164    86A      0.471028  
      87A      0.481407    88A      0.483271    89A      0.488225  
      90A      0.490527    91A      0.494263    92A      0.499356  
      93A      0.506735    94A      0.514466    95A      0.526689  
      96A      0.532682    97A      0.536687    98A      0.545249  
      99A      0.551268   100A      0.559924   101A      0.571193  
     102A      0.584375   103A      0.594728   104A      0.603527  
     105A      0.610776   106A      0.656103   107A      0.661370  
     108A      0.702475   109A      0.708994   110A      0.720375  
     111A      0.726880   112A      0.738906   113A      0.745987  
     114A      0.755472   115A      0.758797   116A      0.775501  
     117A      0.779602   118A      0.786898   119A      0.799606  
     120A      0.804586   121A      0.819154   122A      0.822734  
     123A      0.829825   124A      0.833171   125A      0.839082  
     126A      0.849429   127A      0.858433   128A      0.864479  
     129A      0.872050   130A      0.876973   131A      0.879413  
     132A      0.883558   133A      0.894131   134A      0.902808  
     135A      0.914254   136A      0.919497   137A      0.924487  
     138A      0.941064   139A      0.941502   140A      0.952777  
     141A      0.954171   142A      0.958916   143A      0.959613  
     144A      0.969576   145A      0.978115   146A      0.983245  
     147A      0.988230   148A      0.992343   149A      0.998501  
     150A      1.001603   151A      1.010298   152A      1.021222  
     153A      1.030732   154A      1.033622   155A      1.045588  
     156A      1.051370   157A      1.054823   158A      1.067659  
     159A      1.071781   160A      1.077729   161A      1.082952  
     162A      1.088454   163A      1.095826   164A      1.096834  
     165A      1.101319   166A      1.118965   167A      1.121145  
     168A      1.124530   169A      1.133207   170A      1.141473  
     171A      1.147206   172A      1.153309   173A      1.166558  
     174A      1.170075   175A      1.181146   176A      1.187810  
     177A      1.190820   178A      1.200267   179A      1.218338  
     180A      1.222728   181A      1.225772   182A      1.236958  
     183A      1.239540   184A      1.248031   185A      1.258768  
     186A      1.267140   187A      1.270250   188A      1.279462  
     189A      1.282612   190A      1.293843   191A      1.302291  
     192A      1.311209   193A      1.328477   194A      1.347668  
     195A      1.350879   196A      1.360132   197A      1.370660  
     198A      1.376876   199A      1.395907   200A      1.411714  
     201A      1.414328   202A      1.429215   203A      1.431084  
     204A      1.440152   205A      1.455513   206A      1.467865  
     207A      1.479604   208A      1.487051   209A      1.507693  
     210A      1.518083   211A      1.533100   212A      1.557491  
     213A      1.559898   214A      1.569470   215A      1.587513  
     216A      1.601007   217A      1.619380   218A      1.634172  
     219A      1.661411   220A      1.676434   221A      1.680669  
     222A      1.698085   223A      1.730551   224A      1.745363  
     225A      1.764577   226A      1.786344   227A      1.812169  
     228A      1.828530   229A      1.842124   230A      1.845795  
     231A      1.861416   232A      1.866609   233A      1.884788  
     234A      1.892145   235A      1.893066   236A      1.918591  
     237A      1.921747   238A      1.934840   239A      1.944257  
     240A      1.946330   241A      1.954482   242A      1.963983  
     243A      1.969347   244A      1.985161   245A      2.018760  
     246A      2.024773   247A      2.043837   248A      2.052157  
     249A      2.069207   250A      2.096205   251A      2.109769  
     252A      2.143888   253A      2.155561   254A      2.191707  
     255A      2.270195   256A      2.358335   257A      2.381290  
     258A      2.446134   259A      2.477127   260A      2.491364  
     261A      2.499758   262A      2.504592   263A      2.543324  
     264A      2.546843   265A      2.550300   266A      2.552182  
     267A      2.584023   268A      2.591899   269A      2.605767  
     270A      2.611571   271A      2.619947   272A      2.626393  
     273A      2.638401   274A      2.647579   275A      2.658273  
     276A      2.661230   277A      2.672336   278A      2.681531  
     279A      2.696005   280A      2.707509   281A      2.738853  
     282A      2.771329   283A      2.781503   284A      2.792927  
     285A      2.813020   286A      2.823472   287A      2.844416  
     288A      2.853296   289A      2.854246   290A      2.882746  
     291A      2.899077   292A      2.906297   293A      2.910359  
     294A      2.924033   295A      2.937898   296A      2.957070  
     297A      2.981202   298A      3.008680   299A      3.016863  
     300A      3.034998   301A      3.071846   302A      3.106797  
     303A      3.142792   304A      3.182913   305A      3.186593  
     306A      3.207380   307A      3.239525   308A      3.248590  
     309A      3.265619   310A      3.274212   311A      3.282764  
     312A      3.297397   313A      3.301543   314A      3.307737  
     315A      3.343358   316A      3.365593   317A      3.391627  
     318A      3.405943   319A      3.424164   320A      3.438712  
     321A      3.446963   322A      3.474078   323A      3.487469  
     324A      3.615136   325A      3.633545   326A      3.679864  
     327A      3.714738   328A      3.752150   329A      3.762291  
     330A      3.783137   331A      3.799142   332A      3.855582  
     333A      3.960636   334A      4.082683   335A      4.273245  
     336A      4.287392   337A      4.318008   338A      4.377073  
     339A      4.383310   340A      4.409396   341A      4.422779  
     342A      4.431914   343A      4.464027   344A      4.473645  
     345A      4.491110   346A      4.516446   347A      4.540420  
     348A      4.544451   349A      4.552576   350A      4.561108  
     351A      4.565202   352A      4.580275   353A      4.596636  
     354A      4.605242   355A      4.611936   356A      4.643045  
     357A      4.664275   358A      4.683732   359A      4.712953  
     360A      4.717640   361A      4.726599   362A      4.754046  
     363A      4.768086   364A      4.795818   365A      4.823446  
     366A      4.851788   367A      4.872804   368A      4.886125  
     369A      4.955526   370A      4.971753   371A      5.009886  
     372A      5.017721   373A      5.031052   374A      5.038949  
     375A      5.052305   376A      5.069531   377A      5.074440  
     378A      5.102757   379A      5.137950   380A      5.152217  
     381A      5.166320   382A      5.177861   383A      5.206999  
     384A      5.226665   385A      5.284698   386A      5.321258  
     387A      5.345901   388A      5.383524   389A      5.417242  
     390A      5.470651   391A      5.483947   392A      5.503740  
     393A      5.528976   394A      5.543891   395A      5.588383  
     396A      5.589954   397A      5.608059   398A      5.617116  
     399A      5.637433   400A      5.708955   401A      5.717909  
     402A      5.787656   403A      5.815793   404A      5.851701  
     405A      5.916301   406A      5.928056   407A      6.061054  
     408A      6.189812   409A      6.199238   410A      6.221101  
     411A      6.268889   412A      6.285649   413A      6.288503  
     414A      6.318130   415A      6.344713   416A      6.409911  
     417A      6.512852   418A      6.599704   419A      6.615707  
     420A      6.636225   421A      6.792791   422A      6.819103  
     423A      6.923010   424A      6.933021   425A      6.951972  
     426A      7.073612   427A      7.076087   428A      7.152928  
     429A      7.186598   430A      7.248088   431A      7.327207  
     432A      7.404066   433A      7.408750   434A      7.425110  
     435A      7.457066   436A      7.503472   437A      7.698672  
     438A      7.709828   439A      7.716193   440A      7.762761  
     441A      7.785974   442A      7.801799   443A      7.827535  
     444A      7.940945   445A      7.945002   446A      7.979024  
     447A      7.993113   448A      8.001442   449A      8.047529  
     450A      8.088596   451A      8.108437   452A      8.118262  
     453A      8.146565   454A      8.178308   455A      8.221549  
     456A      8.245436   457A      8.271245   458A      8.294845  
     459A      8.327900   460A      8.477259   461A      8.571209  
     462A      8.662477   463A      8.724876   464A      8.771721  
     465A      8.784824   466A      8.806968   467A      8.833657  
     468A      8.916456   469A      9.792396   470A      9.851737  
     471A      9.884318   472A      9.972559   473A      9.975793  
     474A      9.990276   475A     10.005183   476A     10.025203  
     477A     10.030192   478A     10.054234   479A     10.061735  
     480A     10.082407   481A     10.186969   482A     10.205692  
     483A     10.291027   484A     10.301625   485A     10.944506  
     486A     11.007718   487A     11.132512   488A     11.221371  
     489A     11.683362   490A     11.706716   491A     11.785301  
     492A     11.806637   493A     11.838881   494A     11.886373  
     495A     12.123495   496A     12.225607   497A     13.358675  
     498A     13.473216   499A     13.524459   500A     13.624631  
     501A     13.861209   502A     13.946172   503A     13.975826  
     504A     13.980679   505A     16.175018   506A     63.079920  
     507A     63.178234   508A     64.677673   509A     64.908740  
     510A     65.373905  

    Final Occupation by Irrep:
              A 
    DOCC [     5 ]
    NA   [     5 ]
    NB   [     5 ]

  @DF-RHF Final Energy:   -76.05986971433698

   => Energetics <=

    Nuclear Repulsion Energy =              9.1657121709910108
    One-Electron Energy =                -122.9983701848947106
    Two-Electron Energy =                  37.7727882995667130
    Total Energy =                        -76.0598697143369833

Computation Completed


Properties will be evaluated at   0.000000,   0.000000,   0.000000 [a0]

Properties computed using the SCF density matrix


 Multipole Moments:

 ------------------------------------------------------------------------------------
     Multipole            Electronic (a.u.)      Nuclear  (a.u.)        Total (a.u.)
 ------------------------------------------------------------------------------------

 L = 1.  Multiply by 2.5417464519 to convert [e a0] to [Debye]
 Dipole X            :         37.3506833          -37.8751137           -0.5244303
 Dipole Y            :         29.9601306          -30.4688045           -0.5086740
 Dipole Z            :         -2.3237166            2.5399828            0.2162661
 Magnitude           :                                                    0.7619366

 ------------------------------------------------------------------------------------

*** tstop() called on ddmfs1 at Mon Jan 22 15:07:15 2024
Module time:
	user time   =      91.32 seconds =       1.52 minutes
	system time =       5.68 seconds =       0.09 minutes
	total time  =          6 seconds =       0.10 minutes
Total time:
	user time   =      91.32 seconds =       1.52 minutes
	system time =       5.68 seconds =       0.09 minutes
	total time  =          6 seconds =       0.10 minutes

*** tstart() called on ddmfs1
*** at Mon Jan 22 15:07:15 2024


  //>>>>>>>>>>>>>>>>>>>>>>>>>>>>>>>>>>>//
  //               DFMP2               //
  //<<<<<<<<<<<<<<<<<<<<<<<<<<<<<<<<<<<//

   => Loading Basis Set <=

    Name: (AUG-CC-PVTZ AUX)
    Role: RIFIT
    Keyword: DF_BASIS_MP2
    atoms 1                            entry NA         line   610 file /ddmfs1b/softs/psi4conda/share/psi4/basis/def2-qzvpp-ri.gbs 
    atoms 2, 5, 8, 11, 14              entry O          line   264 file /ddmfs1b/softs/psi4conda/share/psi4/basis/aug-cc-pvtz-ri.gbs 
    atoms 3-4, 6-7, 9-10, 12-13, 15-16 entry H          line    30 file /ddmfs1b/softs/psi4conda/share/psi4/basis/aug-cc-pvtz-ri.gbs 

	 --------------------------------------------------------
	                          DF-MP2                         
	      2nd-Order Density-Fitted Moller-Plesset Theory     
	              RMP2 Wavefunction,  20 Threads             
	                                                         
	        Rob Parrish, Justin Turney, Andy Simmonett,      
	           Ed Hohenstein, and C. David Sherrill          
	 --------------------------------------------------------

   => Auxiliary Basis Set <=

  Basis Set: (AUG-CC-PVTZ AUX)
    Blend: AUG-CC-PVTZ-RI + DEF2-QZVPP-RI
    Number of shells: 322
    Number of basis functions: 1156
    Number of Cartesian functions: 1444
    Spherical Harmonics?: true
    Max angular momentum: 4

	 --------------------------------------------------------
	                 NBF =   510, NAUX =  1156
	 --------------------------------------------------------
	   CLASS    FOCC     OCC    AOCC    AVIR     VIR    FVIR
	   PAIRS       0       5       5     505     505       0
	 --------------------------------------------------------

	-----------------------------------------------------------
	 ==================> DF-MP2 Energies <==================== 
	-----------------------------------------------------------
	 Reference Energy          =     -76.0598697143369833 [Eh]
	 Singles Energy            =      -0.0000000000000000 [Eh]
	 Same-Spin Energy          =      -0.0683961459385600 [Eh]
	 Opposite-Spin Energy      =      -0.2157478474275675 [Eh]
	 Correlation Energy        =      -0.2841439933661276 [Eh]
	 Total Energy              =     -76.3440137077031125 [Eh]
	-----------------------------------------------------------
	 ================> DF-SCS-MP2 Energies <================== 
	-----------------------------------------------------------
	 SCS Same-Spin Scale       =       0.3333333333333333 [-]
	 SCS Opposite-Spin Scale   =       1.2000000000000000 [-]
	 SCS Same-Spin Energy      =      -0.0227987153128533 [Eh]
	 SCS Opposite-Spin Energy  =      -0.2588974169130810 [Eh]
	 SCS Correlation Energy    =      -0.2816961322259344 [Eh]
	 SCS Total Energy          =     -76.3415658465629150 [Eh]
	-----------------------------------------------------------


*** tstop() called on ddmfs1 at Mon Jan 22 15:07:22 2024
Module time:
	user time   =      28.23 seconds =       0.47 minutes
	system time =       2.03 seconds =       0.03 minutes
	total time  =          7 seconds =       0.12 minutes
Total time:
	user time   =     119.57 seconds =       1.99 minutes
	system time =       7.72 seconds =       0.13 minutes
	total time  =         13 seconds =       0.22 minutes

    Psi4 stopped on: Monday, 22 January 2024 03:07PM
    Psi4 wall time for execution: 0:00:13.24

*** Psi4 exiting successfully. Buy a developer a beer!
