
    -----------------------------------------------------------------------
          Psi4: An Open-Source Ab Initio Electronic Structure Package
                               Psi4 1.9 release

                         Git: Rev {} zzzzzzz 


    D. G. A. Smith, L. A. Burns, A. C. Simmonett, R. M. Parrish,
    M. C. Schieber, R. Galvelis, P. Kraus, H. Kruse, R. Di Remigio,
    A. Alenaizan, A. M. James, S. Lehtola, J. P. Misiewicz, M. Scheurer,
    R. A. Shaw, J. B. Schriber, Y. Xie, Z. L. Glick, D. A. Sirianni,
    J. S. O'Brien, J. M. Waldrop, A. Kumar, E. G. Hohenstein,
    B. P. Pritchard, B. R. Brooks, H. F. Schaefer III, A. Yu. Sokolov,
    K. Patkowski, A. E. DePrince III, U. Bozkaya, R. A. King,
    F. A. Evangelista, J. M. Turney, T. D. Crawford, C. D. Sherrill,
    J. Chem. Phys. 152(18) 184108 (2020). https://doi.org/10.1063/5.0006002

                            Additional Code Authors
    E. T. Seidl, C. L. Janssen, E. F. Valeev, M. L. Leininger,
    J. F. Gonthier, R. M. Richard, H. R. McAlexander, M. Saitow, X. Wang,
    P. Verma, M. H. Lechner, A. Jiang, S. Behnle, A. G. Heide,
    M. F. Herbst, and D. L. Poole

             Previous Authors, Complete List of Code Contributors,
                       and Citations for Specific Modules
    https://github.com/psi4/psi4/blob/master/codemeta.json
    https://github.com/psi4/psi4/graphs/contributors
    http://psicode.org/psi4manual/master/introduction.html#citing-psifour

    -----------------------------------------------------------------------


    Psi4 started on: Wednesday, 24 January 2024 07:40PM

    Process ID: 1249373
    Host:       moses-razer
    PSIDATADIR: /home/kchung25/anaconda3/envs/psi4_19/share/psi4
    Memory:     500.0 MiB
    Threads:    6
    
  ==> Input File <==

--------------------------------------------------------------------------
MEMORY 60 GB

molecule dimer {
1 1
K          0.000000     0.000000     0.000000
Gh(O)      0.612876    -1.115935    -2.349051
Gh(H)      0.426290    -1.552454    -3.196404
Gh(H)      1.249709    -1.726035    -1.997265
Gh(O)      0.226950    -1.309350     2.562510
Gh(H)      0.264022    -0.641943     3.257966
Gh(H)      1.068749    -1.730800     2.570162
Gh(O)     -2.056105     0.919747    -1.186773
Gh(H)     -2.198049     0.297455    -1.925318
Gh(H)     -2.809767     1.060828    -0.585807
Gh(O)     -1.976233    -2.079701    -0.110673
Gh(H)     -1.733104    -3.050987    -0.116702
Gh(H)     -2.703697    -1.948167    -0.750612
Gh(O)      1.852186     1.592652     1.468527
Gh(H)      2.464721     2.245763     1.040167
Gh(H)      1.990939     1.633926     2.445297
Gh(O)      2.746451    -1.160995     0.084226
Gh(H)      3.055897    -0.685917    -0.671043
Gh(H)      3.443294    -1.731569     0.452839

units ang
no_reorient
no_com
symmetry c1
}

set {
basis        aug-cc-pVTZ
scf_type     df
}

energy("mp2")
--------------------------------------------------------------------------

  Memory set to  55.879 GiB by Python driver.

Scratch directory: /scratch/
   => Libint2 <=

    Primary   basis highest AM E, G, H:  5, 4, 3
    Auxiliary basis highest AM E, G, H:  6, 5, 4
    Onebody   basis highest AM E, G, H:  6, 5, 4
    Solid Harmonics ordering:            gaussian

*** tstart() called on moses-razer
*** at Wed Jan 24 19:40:17 2024

   => Loading Basis Set <=

    Name: AUG-CC-PVTZ
    Role: ORBITAL
    Keyword: BASIS
    atoms 1                                   entry K          line  1152 file /home/kchung25/anaconda3/envs/p415env/share/psi4/basis/aug-cc-pvtz.gbs 
    atoms 2, 5, 8, 11, 14, 17                 entry O          line   331 file /home/kchung25/anaconda3/envs/p415env/share/psi4/basis/aug-cc-pvtz.gbs 
    atoms 3-4, 6-7, 9-10, 12-13, 15-16, 18-19 entry H          line    40 file /home/kchung25/anaconda3/envs/p415env/share/psi4/basis/aug-cc-pvtz.gbs 


         ---------------------------------------------------------
                                   SCF
               by Justin Turney, Rob Parrish, Andy Simmonett
                          and Daniel G. A. Smith
                              RHF Reference
                        6 Threads,  57220 MiB Core
         ---------------------------------------------------------

  ==> Geometry <==

    Molecular point group: c1
    Full point group: C1

    Geometry (in Angstrom), charge = 1, multiplicity = 1:

       Center              X                  Y                   Z               Mass       
    ------------   -----------------  -----------------  -----------------  -----------------
         K            0.000000000000     0.000000000000     0.000000000000    38.963706486400
      Gh(O)           0.612876000000    -1.115935000000    -2.349051000000    15.994914619570
      Gh(H)           0.426290000000    -1.552454000000    -3.196404000000     1.007825032230
      Gh(H)           1.249709000000    -1.726035000000    -1.997265000000     1.007825032230
      Gh(O)           0.226950000000    -1.309350000000     2.562510000000    15.994914619570
      Gh(H)           0.264022000000    -0.641943000000     3.257966000000     1.007825032230
      Gh(H)           1.068749000000    -1.730800000000     2.570162000000     1.007825032230
      Gh(O)          -2.056105000000     0.919747000000    -1.186773000000    15.994914619570
      Gh(H)          -2.198049000000     0.297455000000    -1.925318000000     1.007825032230
      Gh(H)          -2.809767000000     1.060828000000    -0.585807000000     1.007825032230
      Gh(O)          -1.976233000000    -2.079701000000    -0.110673000000    15.994914619570
      Gh(H)          -1.733104000000    -3.050987000000    -0.116702000000     1.007825032230
      Gh(H)          -2.703697000000    -1.948167000000    -0.750612000000     1.007825032230
      Gh(O)           1.852186000000     1.592652000000     1.468527000000    15.994914619570
      Gh(H)           2.464721000000     2.245763000000     1.040167000000     1.007825032230
      Gh(H)           1.990939000000     1.633926000000     2.445297000000     1.007825032230
      Gh(O)           2.746451000000    -1.160995000000     0.084226000000    15.994914619570
      Gh(H)           3.055897000000    -0.685917000000    -0.671043000000     1.007825032230
      Gh(H)           3.443294000000    -1.731569000000     0.452839000000     1.007825032230

  Running in c1 symmetry.

  Rotational constants: A =      0.03685  B =      0.02572  C =      0.02515 [cm^-1]
  Rotational constants: A =   1104.77263  B =    771.03811  C =    753.96350 [MHz]
  Nuclear repulsion =    0.000000000000000

  Charge       = 1
  Multiplicity = 1
  Electrons    = 18
  Nalpha       = 9
  Nbeta        = 9

  ==> Algorithm <==

  SCF Algorithm Type is DF.
  DIIS enabled.
  MOM disabled.
  Fractional occupation disabled.
  Guess Type is SAD.
  Energy threshold   = 1.00e-08
  Density threshold  = 1.00e-08
  Integral threshold = 1.00e-12

  ==> Primary Basis <==

  Basis Set: AUG-CC-PVTZ
    Blend: AUG-CC-PVTZ
    Number of shells: 211
    Number of basis functions: 611
    Number of Cartesian functions: 699
    Spherical Harmonics?: true
    Max angular momentum: 3

   => Loading Basis Set <=

    Name: (AUG-CC-PVTZ AUX)
    Role: JKFIT
    Keyword: DF_BASIS_SCF
    atoms 1                                   entry K          line  1152 file /home/kchung25/anaconda3/envs/p415env/share/psi4/basis/def2-universal-jkfit.gbs 
    atoms 2, 5, 8, 11, 14, 17                 entry O          line   286 file /home/kchung25/anaconda3/envs/p415env/share/psi4/basis/aug-cc-pvtz-jkfit.gbs 
    atoms 3-4, 6-7, 9-10, 12-13, 15-16, 18-19 entry H          line    70 file /home/kchung25/anaconda3/envs/p415env/share/psi4/basis/aug-cc-pvtz-jkfit.gbs 

  ==> Integral Setup <==

  DFHelper Memory: AOs need 3.336 GiB; user supplied 41.910 GiB. 
  Using in-core AOs.

  ==> MemDFJK: Density-Fitted J/K Matrices <==

    J tasked:                   Yes
    K tasked:                   Yes
    wK tasked:                   No
    OpenMP threads:               6
    Memory [MiB]:             42915
    Algorithm:                 Core
    Schwarz Cutoff:           1E-12
    Mask sparsity (%):      13.0531
    Fitting Condition:        1E-10

   => Auxiliary Basis Set <=

  Basis Set: (AUG-CC-PVTZ AUX)
    Blend: AUG-CC-PVTZ-JKFIT + DEF2-UNIVERSAL-JKFIT
    Number of shells: 392
    Number of basis functions: 1336
    Number of Cartesian functions: 1649
    Spherical Harmonics?: true
    Max angular momentum: 4

  Minimum eigenvalue in the overlap matrix is 3.3965581110E-05.
  Reciprocal condition number of the overlap matrix is 2.3103294294E-06.
    Using symmetric orthogonalization.

  ==> Pre-Iterations <==

  SCF Guess: Superposition of Atomic Densities via on-the-fly atomic UHF (no occupation information).

   -------------------------
    Irrep   Nso     Nmo    
   -------------------------
     A        611     611 
   -------------------------
    Total     611     611
   -------------------------

  ==> Iterations <==

                           Total Energy        Delta E     RMS |[F,P]|

   @DF-RHF iter SAD:  -599.05174977758270   -5.99052e+02   0.00000e+00 
   @DF-RHF iter   1:  -599.01745357137850    3.42962e-02   1.94525e-05 DIIS
   @DF-RHF iter   2:  -599.01751550845540   -6.19371e-05   2.20247e-06 DIIS
   @DF-RHF iter   3:  -599.01751691196353   -1.40351e-06   4.04707e-07 DIIS
   @DF-RHF iter   4:  -599.01751694871143   -3.67479e-08   2.09093e-08 DIIS
   @DF-RHF iter   5:  -599.01751694882000   -1.08571e-10   3.04836e-09 DIIS
  Energy and wave function converged.


  ==> Post-Iterations <==

    Orbital Energies [Eh]
    ---------------------

    Doubly Occupied:                                                      

       1A   -133.752454     2A    -14.708165     3A    -11.738225  
       4A    -11.738224     5A    -11.738223     6A     -1.963872  
       7A     -1.170593     8A     -1.170575     9A     -1.170561  

    Virtual:                                                              

      10A     -0.146958    11A     -0.095556    12A     -0.095552  
      13A     -0.095550    14A     -0.060669    15A     -0.057992  
      16A     -0.057984    17A     -0.057973    18A     -0.057948  
      19A     -0.057900    20A     -0.045542    21A     -0.045540  
      22A     -0.045538    23A     -0.031386    24A     -0.031370  
      25A     -0.031352    26A     -0.031303    27A     -0.031267  
      28A     -0.019495    29A     -0.018984    30A     -0.018713  
      31A     -0.017365    32A     -0.016562    33A     -0.014707  
      34A     -0.013532    35A     -0.012300    36A     -0.010496  
      37A     -0.008088    38A     -0.004951    39A      0.002782  
      40A      0.004447    41A      0.006577    42A      0.009466  
      43A      0.010879    44A      0.019222    45A      0.021091  
      46A      0.028086    47A      0.029472    48A      0.040290  
      49A      0.044300    50A      0.046129    51A      0.051432  
      52A      0.053694    53A      0.055671    54A      0.057871  
      55A      0.059395    56A      0.073099    57A      0.078789  
      58A      0.080463    59A      0.082549    60A      0.084999  
      61A      0.087272    62A      0.092905    63A      0.096480  
      64A      0.098030    65A      0.098997    66A      0.104227  
      67A      0.110614    68A      0.115169    69A      0.118104  
      70A      0.127606    71A      0.133197    72A      0.136240  
      73A      0.138991    74A      0.145091    75A      0.152337  
      76A      0.167297    77A      0.169354    78A      0.177700  
      79A      0.179955    80A      0.189332    81A      0.191169  
      82A      0.200158    83A      0.203600    84A      0.209268  
      85A      0.210855    86A      0.214129    87A      0.218245  
      88A      0.226923    89A      0.232795    90A      0.233108  
      91A      0.240394    92A      0.248458    93A      0.249277  
      94A      0.256307    95A      0.261172    96A      0.265402  
      97A      0.268294    98A      0.275895    99A      0.283487  
     100A      0.286191   101A      0.286997   102A      0.289941  
     103A      0.291981   104A      0.292637   105A      0.301150  
     106A      0.305791   107A      0.308370   108A      0.311250  
     109A      0.315127   110A      0.316978   111A      0.320259  
     112A      0.321574   113A      0.330100   114A      0.332876  
     115A      0.340169   116A      0.344895   117A      0.349937  
     118A      0.352211   119A      0.354602   120A      0.365219  
     121A      0.369781   122A      0.376279   123A      0.379954  
     124A      0.384315   125A      0.386316   126A      0.390679  
     127A      0.393183   128A      0.399347   129A      0.401180  
     130A      0.412780   131A      0.414947   132A      0.424331  
     133A      0.433691   134A      0.441184   135A      0.445492  
     136A      0.447804   137A      0.456736   138A      0.465095  
     139A      0.474459   140A      0.480548   141A      0.489002  
     142A      0.512048   143A      0.556981   144A      0.562802  
     145A      0.572817   146A      0.579746   147A      0.592040  
     148A      0.596091   149A      0.603551   150A      0.625957  
     151A      0.631594   152A      0.642252   153A      0.647129  
     154A      0.652490   155A      0.658838   156A      0.669322  
     157A      0.670350   158A      0.681016   159A      0.689969  
     160A      0.693168   161A      0.696459   162A      0.706701  
     163A      0.711880   164A      0.715911   165A      0.719799  
     166A      0.729005   167A      0.734556   168A      0.740038  
     169A      0.750708   170A      0.756682   171A      0.759896  
     172A      0.765212   173A      0.769286   174A      0.773305  
     175A      0.775776   176A      0.778922   177A      0.785250  
     178A      0.792891   179A      0.802698   180A      0.807582  
     181A      0.809914   182A      0.817809   183A      0.819040  
     184A      0.825309   185A      0.831589   186A      0.837986  
     187A      0.846188   188A      0.849020   189A      0.856912  
     190A      0.863090   191A      0.869266   192A      0.876697  
     193A      0.882096   194A      0.892988   195A      0.900729  
     196A      0.904206   197A      0.907725   198A      0.919055  
     199A      0.924109   200A      0.926237   201A      0.932014  
     202A      0.941688   203A      0.944184   204A      0.955404  
     205A      0.962021   206A      0.964812   207A      0.969918  
     208A      0.973327   209A      0.985625   210A      0.991646  
     211A      0.999183   212A      1.001079   213A      1.006303  
     214A      1.011197   215A      1.022142   216A      1.022627  
     217A      1.032554   218A      1.041483   219A      1.046507  
     220A      1.053393   221A      1.056345   222A      1.059653  
     223A      1.067509   224A      1.076567   225A      1.081719  
     226A      1.082346   227A      1.096064   228A      1.102327  
     229A      1.105796   230A      1.111643   231A      1.121888  
     232A      1.133508   233A      1.136813   234A      1.144735  
     235A      1.159073   236A      1.164914   237A      1.167876  
     238A      1.173577   239A      1.178937   240A      1.185861  
     241A      1.189569   242A      1.198962   243A      1.203048  
     244A      1.213948   245A      1.224199   246A      1.228167  
     247A      1.235563   248A      1.249033   249A      1.261442  
     250A      1.270383   251A      1.284405   252A      1.288630  
     253A      1.298858   254A      1.317636   255A      1.363142  
     256A      1.377067   257A      1.381992   258A      1.386193  
     259A      1.394066   260A      1.411240   261A      1.418520  
     262A      1.442915   263A      1.458030   264A      1.464168  
     265A      1.483627   266A      1.508672   267A      1.518342  
     268A      1.545661   269A      1.607514   270A      1.611979  
     271A      1.623011   272A      1.635948   273A      1.646423  
     274A      1.648085   275A      1.658827   276A      1.661426  
     277A      1.672701   278A      1.681655   279A      1.691144  
     280A      1.699606   281A      1.706814   282A      1.716059  
     283A      1.718088   284A      1.732175   285A      1.746204  
     286A      1.746970   287A      1.748615   288A      1.761955  
     289A      1.767500   290A      1.767647   291A      1.778110  
     292A      1.787821   293A      1.811849   294A      1.821979  
     295A      1.833277   296A      1.840535   297A      1.860989  
     298A      1.875321   299A      1.887112   300A      1.894757  
     301A      1.903004   302A      1.915508   303A      1.945464  
     304A      1.956182   305A      2.106075   306A      2.216770  
     307A      2.226110   308A      2.245631   309A      2.257125  
     310A      2.265564   311A      2.282690   312A      2.286286  
     313A      2.293529   314A      2.298896   315A      2.333575  
     316A      2.345385   317A      2.349650   318A      2.355016  
     319A      2.372106   320A      2.375140   321A      2.385326  
     322A      2.391420   323A      2.397478   324A      2.406177  
     325A      2.413082   326A      2.418872   327A      2.432489  
     328A      2.434740   329A      2.438220   330A      2.445960  
     331A      2.452625   332A      2.478303   333A      2.483607  
     334A      2.495839   335A      2.498151   336A      2.510698  
     337A      2.523995   338A      2.528644   339A      2.540615  
     340A      2.546047   341A      2.554078   342A      2.560126  
     343A      2.589513   344A      2.601465   345A      2.632124  
     346A      2.644178   347A      2.663965   348A      2.688954  
     349A      2.706882   350A      2.721118   351A      2.734023  
     352A      2.745761   353A      2.768174   354A      2.775727  
     355A      2.792557   356A      2.801462   357A      2.812193  
     358A      2.832756   359A      2.836182   360A      2.996359  
     361A      3.019930   362A      3.032278   363A      3.032682  
     364A      3.044439   365A      3.051408   366A      3.057733  
     367A      3.074348   368A      3.084929   369A      3.094288  
     370A      3.099815   371A      3.113417   372A      3.117428  
     373A      3.123444   374A      3.132168   375A      3.142035  
     376A      3.151371   377A      3.157190   378A      3.163064  
     379A      3.168736   380A      3.179497   381A      3.188278  
     382A      3.193440   383A      3.201650   384A      3.217265  
     385A      3.235963   386A      3.242241   387A      3.252635  
     388A      3.267075   389A      3.352890   390A      3.418081  
     391A      3.441001   392A      3.449038   393A      3.471527  
     394A      3.479580   395A      3.516567   396A      3.547806  
     397A      3.555524   398A      3.571023   399A      3.586005  
     400A      3.609387   401A      3.638119   402A      4.185268  
     403A      4.217660   404A      4.219072   405A      4.246509  
     406A      4.266388   407A      4.314923   408A      4.332407  
     409A      4.340405   410A      4.344205   411A      4.350099  
     412A      4.369295   413A      4.383580   414A      4.390361  
     415A      4.397216   416A      4.409112   417A      4.416363  
     418A      4.433920   419A      4.448326   420A      4.463799  
     421A      4.472630   422A      4.478992   423A      4.497163  
     424A      4.504242   425A      4.516373   426A      4.531332  
     427A      4.535821   428A      4.554303   429A      4.559301  
     430A      4.573871   431A      4.599804   432A      4.601737  
     433A      4.607853   434A      4.623286   435A      4.633698  
     436A      4.646309   437A      4.694652   438A      4.764041  
     439A      4.777037   440A      4.782350   441A      4.799735  
     442A      4.809136   443A      4.820754   444A      4.833277  
     445A      4.841691   446A      4.849624   447A      4.866673  
     448A      4.884807   449A      4.888745   450A      4.907283  
     451A      4.913994   452A      4.934678   453A      4.940796  
     454A      4.949450   455A      4.992990   456A      5.013235  
     457A      5.028162   458A      5.043893   459A      5.063681  
     460A      5.102806   461A      5.204643   462A      5.264611  
     463A      5.272185   464A      5.320578   465A      5.335266  
     466A      5.349124   467A      5.367441   468A      5.384634  
     469A      5.405360   470A      5.426472   471A      5.435018  
     472A      5.460079   473A      5.465155   474A      5.475723  
     475A      5.483644   476A      5.500319   477A      5.517956  
     478A      5.550489   479A      5.554505   480A      5.574626  
     481A      5.604911   482A      5.622947   483A      5.685754  
     484A      5.729670   485A      5.780897   486A      5.966432  
     487A      5.976731   488A      5.991591   489A      5.994990  
     490A      6.013211   491A      6.039434   492A      6.106157  
     493A      6.109994   494A      6.133558   495A      6.193968  
     496A      6.248423   497A      6.287419   498A      6.502187  
     499A      6.518517   500A      6.528689   501A      6.563501  
     502A      6.699762   503A      6.717444   504A      6.794019  
     505A      6.810251   506A      6.858490   507A      6.935127  
     508A      6.968975   509A      7.002801   510A      7.473064  
     511A      7.484803   512A      7.509315   513A      7.527219  
     514A      7.533163   515A      7.539914   516A      7.544024  
     517A      7.585122   518A      7.595178   519A      7.621754  
     520A      7.690891   521A      7.725027   522A      7.879154  
     523A      7.894828   524A      7.899314   525A      7.927532  
     526A      7.945961   527A      7.983105   528A      7.991315  
     529A      8.006406   530A      8.017556   531A      8.025922  
     532A      8.028541   533A      8.052341   534A      8.059639  
     535A      8.114903   536A      8.133169   537A      8.141397  
     538A      8.155988   539A      8.164853   540A      8.440491  
     541A      8.454066   542A      8.499713   543A      8.520264  
     544A      8.530300   545A      8.597566   546A      8.611341  
     547A      8.640127   548A      8.656039   549A      8.707192  
     550A      8.711883   551A      8.733845   552A      9.531086  
     553A      9.591628   554A      9.618173   555A      9.654880  
     556A      9.676533   557A      9.705860   558A      9.720652  
     559A      9.758003   560A      9.765566   561A      9.782699  
     562A      9.792274   563A      9.810890   564A      9.828839  
     565A      9.838455   566A      9.852031   567A      9.859237  
     568A      9.874005   569A      9.884305   570A      9.912291  
     571A     10.004926   572A     10.015220   573A     10.016766  
     574A     10.057604   575A     10.099750   576A     10.795946  
     577A     10.832578   578A     10.836940   579A     10.990716  
     580A     11.083476   581A     11.086270   582A     11.439146  
     583A     11.456116   584A     11.511722   585A     11.569084  
     586A     11.597803   587A     11.616093   588A     11.709572  
     589A     11.742427   590A     11.917047   591A     12.040599  
     592A     12.112176   593A     12.130258   594A     13.204915  
     595A     13.220888   596A     13.304475   597A     13.425245  
     598A     13.473880   599A     13.480231   600A     13.679770  
     601A     13.697134   602A     13.725313   603A     13.732567  
     604A     13.793982   605A     13.831232   606A     63.296963  
     607A     63.502119   608A     64.686353   609A     65.195899  
     610A     65.313916   611A     65.501696  

    Final Occupation by Irrep:
              A 
    DOCC [     9 ]
    NA   [     9 ]
    NB   [     9 ]

  @DF-RHF Final Energy:  -599.01751694882000

   => Energetics <=

    Nuclear Repulsion Energy =              0.0000000000000000
    One-Electron Energy =                -819.7332520143121428
    Two-Electron Energy =                 220.7157350654921686
    Total Energy =                       -599.0175169488200027

Computation Completed


Properties will be evaluated at   0.000000,   0.000000,   0.000000 [a0]

Properties computed using the SCF density matrix


 Multipole Moments:

 ------------------------------------------------------------------------------------
     Multipole            Electronic (a.u.)      Nuclear  (a.u.)        Total (a.u.)
 ------------------------------------------------------------------------------------

 L = 1.  Multiply by 2.5417464519 to convert [e a0] to [Debye]
 Dipole X            :          0.0000238            0.0000000            0.0000238
 Dipole Y            :         -0.0001368            0.0000000           -0.0001368
 Dipole Z            :         -0.0000254            0.0000000           -0.0000254
 Magnitude           :                                                    0.0001411

 ------------------------------------------------------------------------------------

*** tstop() called on moses-razer at Wed Jan 24 19:40:34 2024
Module time:
	user time   =      61.14 seconds =       1.02 minutes
	system time =       4.36 seconds =       0.07 minutes
	total time  =         17 seconds =       0.28 minutes
Total time:
	user time   =      61.14 seconds =       1.02 minutes
	system time =       4.36 seconds =       0.07 minutes
	total time  =         17 seconds =       0.28 minutes

*** tstart() called on moses-razer
*** at Wed Jan 24 19:40:34 2024


  //>>>>>>>>>>>>>>>>>>>>>>>>>>>>>>>>>>>//
  //               DFMP2               //
  //<<<<<<<<<<<<<<<<<<<<<<<<<<<<<<<<<<<//

   => Loading Basis Set <=

    Name: (AUG-CC-PVTZ AUX)
    Role: RIFIT
    Keyword: DF_BASIS_MP2
    atoms 1                                   entry K          line  1282 file /home/kchung25/anaconda3/envs/p415env/share/psi4/basis/def2-qzvpp-ri.gbs 
    atoms 2, 5, 8, 11, 14, 17                 entry O          line   264 file /home/kchung25/anaconda3/envs/p415env/share/psi4/basis/aug-cc-pvtz-ri.gbs 
    atoms 3-4, 6-7, 9-10, 12-13, 15-16, 18-19 entry H          line    30 file /home/kchung25/anaconda3/envs/p415env/share/psi4/basis/aug-cc-pvtz-ri.gbs 

	 --------------------------------------------------------
	                          DF-MP2                         
	      2nd-Order Density-Fitted Moller-Plesset Theory     
	              RMP2 Wavefunction,   6 Threads             
	                                                         
	        Rob Parrish, Justin Turney, Andy Simmonett,      
	           Ed Hohenstein, and C. David Sherrill          
	 --------------------------------------------------------

   => Auxiliary Basis Set <=

  Basis Set: (AUG-CC-PVTZ AUX)
    Blend: AUG-CC-PVTZ-RI + DEF2-QZVPP-RI
    Number of shells: 385
    Number of basis functions: 1387
    Number of Cartesian functions: 1738
    Spherical Harmonics?: true
    Max angular momentum: 4

	 --------------------------------------------------------
	                 NBF =   611, NAUX =  1387
	 --------------------------------------------------------
	   CLASS    FOCC     OCC    AOCC    AVIR     VIR    FVIR
	   PAIRS       0       9       9     602     602       0
	 --------------------------------------------------------

	-----------------------------------------------------------
	 ==================> DF-MP2 Energies <==================== 
	-----------------------------------------------------------
	 Reference Energy          =    -599.0175169488200027 [Eh]
	 Singles Energy            =      -0.0000000000000000 [Eh]
	 Same-Spin Energy          =      -0.0385424827829295 [Eh]
	 Opposite-Spin Energy      =      -0.0945328338586482 [Eh]
	 Correlation Energy        =      -0.1330753166415777 [Eh]
	 Total Energy              =    -599.1505922654615688 [Eh]
	-----------------------------------------------------------
	 ================> DF-SCS-MP2 Energies <================== 
	-----------------------------------------------------------
	 SCS Same-Spin Scale       =       0.3333333333333333 [-]
	 SCS Opposite-Spin Scale   =       1.2000000000000000 [-]
	 SCS Same-Spin Energy      =      -0.0128474942609765 [Eh]
	 SCS Opposite-Spin Energy  =      -0.1134394006303778 [Eh]
	 SCS Correlation Energy    =      -0.1262868948913543 [Eh]
	 SCS Total Energy          =    -599.1438038437113391 [Eh]
	-----------------------------------------------------------


*** tstop() called on moses-razer at Wed Jan 24 19:40:45 2024
Module time:
	user time   =      25.47 seconds =       0.42 minutes
	system time =       1.88 seconds =       0.03 minutes
	total time  =         11 seconds =       0.18 minutes
Total time:
	user time   =      86.61 seconds =       1.44 minutes
	system time =       6.24 seconds =       0.10 minutes
	total time  =         28 seconds =       0.47 minutes

    Psi4 stopped on: Wednesday, 24 January 2024 07:40PM
    Psi4 wall time for execution: 0:00:28.12

*** Psi4 exiting successfully. Buy a developer a beer!
