
    -----------------------------------------------------------------------
          Psi4: An Open-Source Ab Initio Electronic Structure Package
                               Psi4 1.9 release

                         Git: Rev {} zzzzzzz 


    D. G. A. Smith, L. A. Burns, A. C. Simmonett, R. M. Parrish,
    M. C. Schieber, R. Galvelis, P. Kraus, H. Kruse, R. Di Remigio,
    A. Alenaizan, A. M. James, S. Lehtola, J. P. Misiewicz, M. Scheurer,
    R. A. Shaw, J. B. Schriber, Y. Xie, Z. L. Glick, D. A. Sirianni,
    J. S. O'Brien, J. M. Waldrop, A. Kumar, E. G. Hohenstein,
    B. P. Pritchard, B. R. Brooks, H. F. Schaefer III, A. Yu. Sokolov,
    K. Patkowski, A. E. DePrince III, U. Bozkaya, R. A. King,
    F. A. Evangelista, J. M. Turney, T. D. Crawford, C. D. Sherrill,
    J. Chem. Phys. 152(18) 184108 (2020). https://doi.org/10.1063/5.0006002

                            Additional Code Authors
    E. T. Seidl, C. L. Janssen, E. F. Valeev, M. L. Leininger,
    J. F. Gonthier, R. M. Richard, H. R. McAlexander, M. Saitow, X. Wang,
    P. Verma, M. H. Lechner, A. Jiang, S. Behnle, A. G. Heide,
    M. F. Herbst, and D. L. Poole

             Previous Authors, Complete List of Code Contributors,
                       and Citations for Specific Modules
    https://github.com/psi4/psi4/blob/master/codemeta.json
    https://github.com/psi4/psi4/graphs/contributors
    http://psicode.org/psi4manual/master/introduction.html#citing-psifour

    -----------------------------------------------------------------------


    Psi4 started on: Wednesday, 24 January 2024 07:37PM

    Process ID: 1249284
    Host:       moses-razer
    PSIDATADIR: /home/kchung25/anaconda3/envs/psi4_19/share/psi4
    Memory:     500.0 MiB
    Threads:    6
    
  ==> Input File <==

--------------------------------------------------------------------------
MEMORY 60 GB

molecule dimer {
0 1
Gh(K)      0.000000     0.000000     0.000000
Gh(O)      0.614161    -2.662596    -1.000568
Gh(H)     -0.113826    -3.251565    -1.198118
Gh(H)      1.186112    -2.667876    -1.734079
Gh(O)      0.729810     2.373837    -1.025151
Gh(H)      1.167478     2.701220    -1.857432
Gh(H)     -0.147525     2.842033    -0.995735
Gh(O)     -1.008658     0.423253     2.460831
Gh(H)     -0.735495    -0.358124     2.948601
Gh(H)     -1.939879     0.354150     2.274018
Gh(O)      2.850153    -0.237363     0.329338
Gh(H)      3.197928    -1.122902     0.376841
Gh(H)      3.494571     0.227443    -0.233883
O         -2.469746    -0.508728    -1.426203
H         -3.370408    -0.248234    -1.430514
H         -2.421727    -0.991925    -2.274776

units ang
no_reorient
no_com
symmetry c1
}

set {
basis        aug-cc-pVTZ
scf_type     df
}

energy("mp2")
--------------------------------------------------------------------------

  Memory set to  55.879 GiB by Python driver.

Scratch directory: /scratch/
   => Libint2 <=

    Primary   basis highest AM E, G, H:  5, 4, 3
    Auxiliary basis highest AM E, G, H:  6, 5, 4
    Onebody   basis highest AM E, G, H:  6, 5, 4
    Solid Harmonics ordering:            gaussian

*** tstart() called on moses-razer
*** at Wed Jan 24 19:37:47 2024

   => Loading Basis Set <=

    Name: AUG-CC-PVTZ
    Role: ORBITAL
    Keyword: BASIS
    atoms 1                            entry K          line  1152 file /home/kchung25/anaconda3/envs/p415env/share/psi4/basis/aug-cc-pvtz.gbs 
    atoms 2, 5, 8, 11, 14              entry O          line   331 file /home/kchung25/anaconda3/envs/p415env/share/psi4/basis/aug-cc-pvtz.gbs 
    atoms 3-4, 6-7, 9-10, 12-13, 15-16 entry H          line    40 file /home/kchung25/anaconda3/envs/p415env/share/psi4/basis/aug-cc-pvtz.gbs 


         ---------------------------------------------------------
                                   SCF
               by Justin Turney, Rob Parrish, Andy Simmonett
                          and Daniel G. A. Smith
                              RHF Reference
                        6 Threads,  57220 MiB Core
         ---------------------------------------------------------

  ==> Geometry <==

    Molecular point group: c1
    Full point group: C1

    Geometry (in Angstrom), charge = 0, multiplicity = 1:

       Center              X                  Y                   Z               Mass       
    ------------   -----------------  -----------------  -----------------  -----------------
      Gh(K)           0.000000000000     0.000000000000     0.000000000000    38.963706486400
      Gh(O)           0.614161000000    -2.662596000000    -1.000568000000    15.994914619570
      Gh(H)          -0.113826000000    -3.251565000000    -1.198118000000     1.007825032230
      Gh(H)           1.186112000000    -2.667876000000    -1.734079000000     1.007825032230
      Gh(O)           0.729810000000     2.373837000000    -1.025151000000    15.994914619570
      Gh(H)           1.167478000000     2.701220000000    -1.857432000000     1.007825032230
      Gh(H)          -0.147525000000     2.842033000000    -0.995735000000     1.007825032230
      Gh(O)          -1.008658000000     0.423253000000     2.460831000000    15.994914619570
      Gh(H)          -0.735495000000    -0.358124000000     2.948601000000     1.007825032230
      Gh(H)          -1.939879000000     0.354150000000     2.274018000000     1.007825032230
      Gh(O)           2.850153000000    -0.237363000000     0.329338000000    15.994914619570
      Gh(H)           3.197928000000    -1.122902000000     0.376841000000     1.007825032230
      Gh(H)           3.494571000000     0.227443000000    -0.233883000000     1.007825032230
         O           -2.469746000000    -0.508728000000    -1.426203000000    15.994914619570
         H           -3.370408000000    -0.248234000000    -1.430514000000     1.007825032230
         H           -2.421727000000    -0.991925000000    -2.274776000000     1.007825032230

  Running in c1 symmetry.

  Rotational constants: A =      0.03832  B =      0.03474  C =      0.02961 [cm^-1]
  Rotational constants: A =   1148.86774  B =   1041.57923  C =    887.70536 [MHz]
  Nuclear repulsion =    9.204861255219113

  Charge       = 0
  Multiplicity = 1
  Electrons    = 10
  Nalpha       = 5
  Nbeta        = 5

  ==> Algorithm <==

  SCF Algorithm Type is DF.
  DIIS enabled.
  MOM disabled.
  Fractional occupation disabled.
  Guess Type is SAD.
  Energy threshold   = 1.00e-08
  Density threshold  = 1.00e-08
  Integral threshold = 1.00e-12

  ==> Primary Basis <==

  Basis Set: AUG-CC-PVTZ
    Blend: AUG-CC-PVTZ
    Number of shells: 179
    Number of basis functions: 519
    Number of Cartesian functions: 594
    Spherical Harmonics?: true
    Max angular momentum: 3

   => Loading Basis Set <=

    Name: (AUG-CC-PVTZ AUX)
    Role: JKFIT
    Keyword: DF_BASIS_SCF
    atoms 1                            entry K          line  1152 file /home/kchung25/anaconda3/envs/p415env/share/psi4/basis/def2-universal-jkfit.gbs 
    atoms 2, 5, 8, 11, 14              entry O          line   286 file /home/kchung25/anaconda3/envs/p415env/share/psi4/basis/aug-cc-pvtz-jkfit.gbs 
    atoms 3-4, 6-7, 9-10, 12-13, 15-16 entry H          line    70 file /home/kchung25/anaconda3/envs/p415env/share/psi4/basis/aug-cc-pvtz-jkfit.gbs 

  ==> Integral Setup <==

  DFHelper Memory: AOs need 2.056 GiB; user supplied 41.910 GiB. 
  Using in-core AOs.

  ==> MemDFJK: Density-Fitted J/K Matrices <==

    J tasked:                   Yes
    K tasked:                   Yes
    wK tasked:                   No
    OpenMP threads:               6
    Memory [MiB]:             42915
    Algorithm:                 Core
    Schwarz Cutoff:           1E-12
    Mask sparsity (%):      13.4682
    Fitting Condition:        1E-10

   => Auxiliary Basis Set <=

  Basis Set: (AUG-CC-PVTZ AUX)
    Blend: AUG-CC-PVTZ-JKFIT + DEF2-UNIVERSAL-JKFIT
    Number of shells: 334
    Number of basis functions: 1140
    Number of Cartesian functions: 1408
    Spherical Harmonics?: true
    Max angular momentum: 4

  Minimum eigenvalue in the overlap matrix is 7.0230657335E-05.
  Reciprocal condition number of the overlap matrix is 5.6028470154E-06.
    Using symmetric orthogonalization.

  ==> Pre-Iterations <==

  SCF Guess: Superposition of Atomic Densities via on-the-fly atomic UHF (no occupation information).

   -------------------------
    Irrep   Nso     Nmo    
   -------------------------
     A        519     519 
   -------------------------
    Total     519     519
   -------------------------

  ==> Iterations <==

                           Total Energy        Delta E     RMS |[F,P]|

   @DF-RHF iter SAD:   -75.48154907558535   -7.54815e+01   0.00000e+00 
   @DF-RHF iter   1:   -75.97414617302958   -4.92597e-01   9.04410e-04 DIIS/ADIIS
   @DF-RHF iter   2:   -76.02694961228750   -5.28034e-02   6.18040e-04 DIIS/ADIIS
   @DF-RHF iter   3:   -76.05868512780280   -3.17355e-02   4.19094e-05 DIIS
   @DF-RHF iter   4:   -76.05907148891217   -3.86361e-04   1.00417e-05 DIIS
   @DF-RHF iter   5:   -76.05909597831130   -2.44894e-05   2.32159e-06 DIIS
   @DF-RHF iter   6:   -76.05909802696473   -2.04865e-06   5.03883e-07 DIIS
   @DF-RHF iter   7:   -76.05909813194558   -1.04981e-07   8.68377e-08 DIIS
   @DF-RHF iter   8:   -76.05909813466089   -2.71531e-09   1.44764e-08 DIIS
   @DF-RHF iter   9:   -76.05909813471894   -5.80513e-11   3.45909e-09 DIIS
  Energy and wave function converged.


  ==> Post-Iterations <==

    Orbital Energies [Eh]
    ---------------------

    Doubly Occupied:                                                      

       1A    -20.568853     2A     -1.356783     3A     -0.709527  
       4A     -0.592791     5A     -0.511521  

    Virtual:                                                              

       6A      0.006907     7A      0.009582     8A      0.010097  
       9A      0.010849    10A      0.017928    11A      0.018181  
      12A      0.018728    13A      0.018819    14A      0.019037  
      15A      0.032760    16A      0.034206    17A      0.035553  
      18A      0.040697    19A      0.056938    20A      0.058066  
      21A      0.058833    22A      0.061036    23A      0.062350  
      24A      0.070163    25A      0.072376    26A      0.076440  
      27A      0.078754    28A      0.079515    29A      0.083049  
      30A      0.083169    31A      0.087048    32A      0.092862  
      33A      0.095680    34A      0.100473    35A      0.129973  
      36A      0.136079    37A      0.138331    38A      0.143327  
      39A      0.148931    40A      0.155813    41A      0.160281  
      42A      0.161820    43A      0.166451    44A      0.170570  
      45A      0.174855    46A      0.181411    47A      0.187783  
      48A      0.189603    49A      0.192585    50A      0.194528  
      51A      0.204412    52A      0.211445    53A      0.212753  
      54A      0.216587    55A      0.220269    56A      0.224753  
      57A      0.232201    58A      0.243803    59A      0.249138  
      60A      0.261374    61A      0.266152    62A      0.270301  
      63A      0.274378    64A      0.280508    65A      0.287780  
      66A      0.293577    67A      0.305853    68A      0.310809  
      69A      0.318367    70A      0.325792    71A      0.333608  
      72A      0.342168    73A      0.345079    74A      0.353917  
      75A      0.357477    76A      0.363328    77A      0.364275  
      78A      0.371545    79A      0.374646    80A      0.377915  
      81A      0.379285    82A      0.388267    83A      0.394816  
      84A      0.400635    85A      0.406893    86A      0.411567  
      87A      0.417573    88A      0.418481    89A      0.425250  
      90A      0.431291    91A      0.432074    92A      0.439126  
      93A      0.439822    94A      0.447600    95A      0.448965  
      96A      0.451668    97A      0.461020    98A      0.468225  
      99A      0.470257   100A      0.476840   101A      0.478333  
     102A      0.483258   103A      0.487695   104A      0.494576  
     105A      0.500295   106A      0.504490   107A      0.508166  
     108A      0.515316   109A      0.518820   110A      0.522414  
     111A      0.543552   112A      0.553136   113A      0.566422  
     114A      0.571139   115A      0.589767   116A      0.617611  
     117A      0.634173   118A      0.639386   119A      0.669681  
     120A      0.685237   121A      0.716267   122A      0.720592  
     123A      0.730774   124A      0.740054   125A      0.745856  
     126A      0.768082   127A      0.770967   128A      0.783623  
     129A      0.788255   130A      0.796126   131A      0.810582  
     132A      0.822237   133A      0.826408   134A      0.830655  
     135A      0.834143   136A      0.844652   137A      0.846463  
     138A      0.851928   139A      0.856241   140A      0.863384  
     141A      0.870137   142A      0.880799   143A      0.886003  
     144A      0.887774   145A      0.892745   146A      0.901474  
     147A      0.907819   148A      0.910790   149A      0.921730  
     150A      0.925814   151A      0.934088   152A      0.940602  
     153A      0.945184   154A      0.950461   155A      0.952347  
     156A      0.965226   157A      0.970307   158A      0.973682  
     159A      0.979690   160A      0.995201   161A      1.000550  
     162A      1.004274   163A      1.016154   164A      1.017357  
     165A      1.026705   166A      1.030723   167A      1.043797  
     168A      1.047222   169A      1.050551   170A      1.055638  
     171A      1.068282   172A      1.076235   173A      1.081015  
     174A      1.085715   175A      1.088576   176A      1.094081  
     177A      1.095896   178A      1.105424   179A      1.107591  
     180A      1.111262   181A      1.126578   182A      1.132205  
     183A      1.143561   184A      1.151809   185A      1.158118  
     186A      1.169127   187A      1.175734   188A      1.183443  
     189A      1.189258   190A      1.193403   191A      1.200854  
     192A      1.203956   193A      1.211288   194A      1.215571  
     195A      1.217765   196A      1.229012   197A      1.237110  
     198A      1.244237   199A      1.253050   200A      1.263493  
     201A      1.267987   202A      1.271585   203A      1.277009  
     204A      1.294746   205A      1.302615   206A      1.306053  
     207A      1.319582   208A      1.322599   209A      1.342342  
     210A      1.355754   211A      1.368371   212A      1.372835  
     213A      1.386191   214A      1.411235   215A      1.424861  
     216A      1.432570   217A      1.496847   218A      1.523887  
     219A      1.526573   220A      1.540027   221A      1.565475  
     222A      1.570166   223A      1.578695   224A      1.593099  
     225A      1.601776   226A      1.644938   227A      1.651352  
     228A      1.743266   229A      1.762066   230A      1.768414  
     231A      1.786066   232A      1.792494   233A      1.803396  
     234A      1.808230   235A      1.827332   236A      1.828724  
     237A      1.837708   238A      1.853489   239A      1.865143  
     240A      1.868546   241A      1.877583   242A      1.898159  
     243A      1.901333   244A      1.909558   245A      1.917309  
     246A      1.928288   247A      1.931232   248A      1.957772  
     249A      1.971486   250A      2.001844   251A      2.045336  
     252A      2.055404   253A      2.078493   254A      2.101197  
     255A      2.169279   256A      2.243747   257A      2.248634  
     258A      2.271585   259A      2.328035   260A      2.336492  
     261A      2.371409   262A      2.387125   263A      2.399217  
     264A      2.407242   265A      2.411238   266A      2.423785  
     267A      2.434655   268A      2.441809   269A      2.455229  
     270A      2.482720   271A      2.497494   272A      2.505762  
     273A      2.517626   274A      2.530136   275A      2.540934  
     276A      2.557343   277A      2.572916   278A      2.577532  
     279A      2.579122   280A      2.590701   281A      2.596489  
     282A      2.598134   283A      2.606473   284A      2.612620  
     285A      2.614771   286A      2.634768   287A      2.639043  
     288A      2.647732   289A      2.654460   290A      2.680303  
     291A      2.696806   292A      2.711995   293A      2.715945  
     294A      2.743050   295A      2.751619   296A      2.786218  
     297A      2.794210   298A      2.820135   299A      2.831956  
     300A      2.852271   301A      2.877782   302A      2.881926  
     303A      2.897965   304A      2.908774   305A      2.919165  
     306A      2.944074   307A      2.946822   308A      2.955034  
     309A      2.973241   310A      2.994584   311A      3.058349  
     312A      3.128464   313A      3.202366   314A      3.215074  
     315A      3.220425   316A      3.237366   317A      3.251772  
     318A      3.256761   319A      3.260011   320A      3.291491  
     321A      3.300440   322A      3.316748   323A      3.325159  
     324A      3.351492   325A      3.357713   326A      3.363609  
     327A      3.372921   328A      3.387685   329A      3.402684  
     330A      3.407725   331A      3.423432   332A      3.447458  
     333A      3.590845   334A      3.605325   335A      3.628677  
     336A      3.654918   337A      3.714534   338A      3.719041  
     339A      3.737985   340A      3.746482   341A      3.760483  
     342A      3.833875   343A      4.071968   344A      4.164015  
     345A      4.185102   346A      4.267528   347A      4.303337  
     348A      4.355423   349A      4.396878   350A      4.398994  
     351A      4.413398   352A      4.435484   353A      4.443096  
     354A      4.471402   355A      4.486033   356A      4.499044  
     357A      4.514719   358A      4.526644   359A      4.561464  
     360A      4.563395   361A      4.566393   362A      4.580366  
     363A      4.589071   364A      4.602483   365A      4.631218  
     366A      4.648715   367A      4.675858   368A      4.683463  
     369A      4.688151   370A      4.695804   371A      4.709630  
     372A      4.727599   373A      4.736006   374A      4.755681  
     375A      4.775936   376A      4.826739   377A      4.896136  
     378A      4.923013   379A      4.944784   380A      4.948551  
     381A      4.954399   382A      4.963461   383A      4.965526  
     384A      4.982804   385A      4.989618   386A      5.010579  
     387A      5.022031   388A      5.025444   389A      5.041153  
     390A      5.150528   391A      5.171402   392A      5.184765  
     393A      5.202862   394A      5.214797   395A      5.234371  
     396A      5.251251   397A      5.388355   398A      5.421309  
     399A      5.512642   400A      5.533703   401A      5.555470  
     402A      5.562952   403A      5.564067   404A      5.602673  
     405A      5.611556   406A      5.632781   407A      5.661676  
     408A      5.683174   409A      5.705142   410A      5.728322  
     411A      5.760462   412A      5.779064   413A      5.838704  
     414A      5.870976   415A      5.899491   416A      6.131886  
     417A      6.155298   418A      6.166378   419A      6.177503  
     420A      6.269707   421A      6.322519   422A      6.396197  
     423A      6.400996   424A      6.464263   425A      6.584234  
     426A      6.591712   427A      6.664792   428A      6.733229  
     429A      6.776655   430A      6.828154   431A      6.937693  
     432A      6.983590   433A      7.090406   434A      7.117871  
     435A      7.157257   436A      7.203799   437A      7.271192  
     438A      7.328745   439A      7.357792   440A      7.404029  
     441A      7.473812   442A      7.597849   443A      7.677853  
     444A      7.695408   445A      7.698357   446A      7.702258  
     447A      7.788900   448A      7.810606   449A      7.829315  
     450A      7.845079   451A      7.861633   452A      8.001799  
     453A      8.043461   454A      8.078664   455A      8.128372  
     456A      8.136228   457A      8.140437   458A      8.170511  
     459A      8.228114   460A      8.272111   461A      8.292772  
     462A      8.308915   463A      8.318557   464A      8.337157  
     465A      8.547534   466A      8.698388   467A      8.728948  
     468A      8.829926   469A      8.842059   470A      8.848031  
     471A      8.870257   472A      8.899648   473A      8.941123  
     474A      9.729459   475A      9.767302   476A      9.816615  
     477A      9.830935   478A      9.920997   479A      9.937784  
     480A      9.949669   481A      9.950415   482A     10.014851  
     483A     10.033832   484A     10.046823   485A     10.061336  
     486A     10.211900   487A     10.223240   488A     10.230343  
     489A     10.247517   490A     10.427497   491A     11.019660  
     492A     11.221529   493A     11.224188   494A     11.306916  
     495A     11.632225   496A     11.696800   497A     11.726356  
     498A     11.755340   499A     11.762264   500A     12.154249  
     501A     12.230536   502A     12.379584   503A     13.376275  
     504A     13.552754   505A     13.583212   506A     13.695174  
     507A     13.846607   508A     13.856626   509A     13.902489  
     510A     13.915023   511A     16.012155   512A     30.844084  
     513A     30.904239   514A     31.011769   515A     63.021759  
     516A     64.802332   517A     65.365619   518A     65.953141  
     519A    198.145259  

    Final Occupation by Irrep:
              A 
    DOCC [     5 ]
    NA   [     5 ]
    NB   [     5 ]

  @DF-RHF Final Energy:   -76.05909813471894

   => Energetics <=

    Nuclear Repulsion Energy =              9.2048612552191127
    One-Electron Energy =                -123.0489652896594066
    Two-Electron Energy =                  37.7850058997213551
    Total Energy =                        -76.0590981347189370

Computation Completed


Properties will be evaluated at   0.000000,   0.000000,   0.000000 [a0]

Properties computed using the SCF density matrix


 Multipole Moments:

 ------------------------------------------------------------------------------------
     Multipole            Electronic (a.u.)      Nuclear  (a.u.)        Total (a.u.)
 ------------------------------------------------------------------------------------

 L = 1.  Multiply by 2.5417464519 to convert [e a0] to [Debye]
 Dipole X            :         47.7169083          -48.2826971           -0.5657889
 Dipole Y            :          9.8917188          -10.0344136           -0.1426948
 Dipole Z            :         28.0067746          -28.5630479           -0.5562733
 Magnitude           :                                                    0.8061754

 ------------------------------------------------------------------------------------

*** tstop() called on moses-razer at Wed Jan 24 19:37:59 2024
Module time:
	user time   =      41.75 seconds =       0.70 minutes
	system time =       2.38 seconds =       0.04 minutes
	total time  =         12 seconds =       0.20 minutes
Total time:
	user time   =      41.75 seconds =       0.70 minutes
	system time =       2.38 seconds =       0.04 minutes
	total time  =         12 seconds =       0.20 minutes

*** tstart() called on moses-razer
*** at Wed Jan 24 19:37:59 2024


  //>>>>>>>>>>>>>>>>>>>>>>>>>>>>>>>>>>>//
  //               DFMP2               //
  //<<<<<<<<<<<<<<<<<<<<<<<<<<<<<<<<<<<//

   => Loading Basis Set <=

    Name: (AUG-CC-PVTZ AUX)
    Role: RIFIT
    Keyword: DF_BASIS_MP2
    atoms 1                            entry K          line  1282 file /home/kchung25/anaconda3/envs/p415env/share/psi4/basis/def2-qzvpp-ri.gbs 
    atoms 2, 5, 8, 11, 14              entry O          line   264 file /home/kchung25/anaconda3/envs/p415env/share/psi4/basis/aug-cc-pvtz-ri.gbs 
    atoms 3-4, 6-7, 9-10, 12-13, 15-16 entry H          line    30 file /home/kchung25/anaconda3/envs/p415env/share/psi4/basis/aug-cc-pvtz-ri.gbs 

	 --------------------------------------------------------
	                          DF-MP2                         
	      2nd-Order Density-Fitted Moller-Plesset Theory     
	              RMP2 Wavefunction,   6 Threads             
	                                                         
	        Rob Parrish, Justin Turney, Andy Simmonett,      
	           Ed Hohenstein, and C. David Sherrill          
	 --------------------------------------------------------

   => Auxiliary Basis Set <=

  Basis Set: (AUG-CC-PVTZ AUX)
    Blend: AUG-CC-PVTZ-RI + DEF2-QZVPP-RI
    Number of shells: 329
    Number of basis functions: 1189
    Number of Cartesian functions: 1492
    Spherical Harmonics?: true
    Max angular momentum: 4

	 --------------------------------------------------------
	                 NBF =   519, NAUX =  1189
	 --------------------------------------------------------
	   CLASS    FOCC     OCC    AOCC    AVIR     VIR    FVIR
	   PAIRS       0       5       5     514     514       0
	 --------------------------------------------------------

	-----------------------------------------------------------
	 ==================> DF-MP2 Energies <==================== 
	-----------------------------------------------------------
	 Reference Energy          =     -76.0590981347189370 [Eh]
	 Singles Energy            =      -0.0000000000000000 [Eh]
	 Same-Spin Energy          =      -0.0684709916447732 [Eh]
	 Opposite-Spin Energy      =      -0.2157174292204253 [Eh]
	 Correlation Energy        =      -0.2841884208651985 [Eh]
	 Total Energy              =     -76.3432865555841289 [Eh]
	-----------------------------------------------------------
	 ================> DF-SCS-MP2 Energies <================== 
	-----------------------------------------------------------
	 SCS Same-Spin Scale       =       0.3333333333333333 [-]
	 SCS Opposite-Spin Scale   =       1.2000000000000000 [-]
	 SCS Same-Spin Energy      =      -0.0228236638815911 [Eh]
	 SCS Opposite-Spin Energy  =      -0.2588609150645104 [Eh]
	 SCS Correlation Energy    =      -0.2816845789461014 [Eh]
	 SCS Total Energy          =     -76.3407827136650354 [Eh]
	-----------------------------------------------------------


*** tstop() called on moses-razer at Wed Jan 24 19:38:07 2024
Module time:
	user time   =      17.57 seconds =       0.29 minutes
	system time =       1.41 seconds =       0.02 minutes
	total time  =          8 seconds =       0.13 minutes
Total time:
	user time   =      59.33 seconds =       0.99 minutes
	system time =       3.79 seconds =       0.06 minutes
	total time  =         20 seconds =       0.33 minutes

    Psi4 stopped on: Wednesday, 24 January 2024 07:38PM
    Psi4 wall time for execution: 0:00:19.98

*** Psi4 exiting successfully. Buy a developer a beer!
