
    -----------------------------------------------------------------------
          Psi4: An Open-Source Ab Initio Electronic Structure Package
                               Psi4 1.9 release

                         Git: Rev {} zzzzzzz 


    D. G. A. Smith, L. A. Burns, A. C. Simmonett, R. M. Parrish,
    M. C. Schieber, R. Galvelis, P. Kraus, H. Kruse, R. Di Remigio,
    A. Alenaizan, A. M. James, S. Lehtola, J. P. Misiewicz, M. Scheurer,
    R. A. Shaw, J. B. Schriber, Y. Xie, Z. L. Glick, D. A. Sirianni,
    J. S. O'Brien, J. M. Waldrop, A. Kumar, E. G. Hohenstein,
    B. P. Pritchard, B. R. Brooks, H. F. Schaefer III, A. Yu. Sokolov,
    K. Patkowski, A. E. DePrince III, U. Bozkaya, R. A. King,
    F. A. Evangelista, J. M. Turney, T. D. Crawford, C. D. Sherrill,
    J. Chem. Phys. 152(18) 184108 (2020). https://doi.org/10.1063/5.0006002

                            Additional Code Authors
    E. T. Seidl, C. L. Janssen, E. F. Valeev, M. L. Leininger,
    J. F. Gonthier, R. M. Richard, H. R. McAlexander, M. Saitow, X. Wang,
    P. Verma, M. H. Lechner, A. Jiang, S. Behnle, A. G. Heide,
    M. F. Herbst, and D. L. Poole

             Previous Authors, Complete List of Code Contributors,
                       and Citations for Specific Modules
    https://github.com/psi4/psi4/blob/master/codemeta.json
    https://github.com/psi4/psi4/graphs/contributors
    http://psicode.org/psi4manual/master/introduction.html#citing-psifour

    -----------------------------------------------------------------------


    Psi4 started on: Wednesday, 24 January 2024 03:55PM

    Process ID: 1229004
    Host:       moses-razer
    PSIDATADIR: /home/kchung25/anaconda3/envs/psi4_19/share/psi4
    Memory:     500.0 MiB
    Threads:    6
    
  ==> Input File <==

--------------------------------------------------------------------------
MEMORY 60 GB

molecule dimer {
1 1
K          0.000000     0.000000     0.000000
Gh(O)      2.272527     0.834421     1.230172
Gh(H)      3.156809     0.859433     1.570041
Gh(H)      1.902975     1.732978     1.301596
Gh(O)      0.185748     2.476480    -0.876487
Gh(H)      0.842743     2.672524    -1.589365
Gh(H)     -0.626338     3.014926    -1.032709
Gh(O)     -2.131224    -1.837640     0.690354
Gh(H)     -1.873645    -2.481649     0.070656
Gh(H)     -3.071086    -1.700625     0.593753
Gh(O)     -0.751067    -0.447311    -2.432427
Gh(H)     -0.567099     0.174959    -3.128552
Gh(H)     -1.309564    -1.096906    -2.897071
Gh(O)     -0.308389    -1.371161     2.595177
Gh(H)     -1.066393    -1.718449     2.157600
Gh(H)     -0.406916    -1.685150     3.506362

units ang
no_reorient
no_com
symmetry c1
}

set {
basis        aug-cc-pVTZ
scf_type     df
}

energy("mp2")
--------------------------------------------------------------------------

  Memory set to  55.879 GiB by Python driver.

Scratch directory: /scratch/
   => Libint2 <=

    Primary   basis highest AM E, G, H:  5, 4, 3
    Auxiliary basis highest AM E, G, H:  6, 5, 4
    Onebody   basis highest AM E, G, H:  6, 5, 4
    Solid Harmonics ordering:            gaussian

*** tstart() called on moses-razer
*** at Wed Jan 24 15:55:27 2024

   => Loading Basis Set <=

    Name: AUG-CC-PVTZ
    Role: ORBITAL
    Keyword: BASIS
    atoms 1                            entry K          line  1152 file /home/kchung25/anaconda3/envs/p415env/share/psi4/basis/aug-cc-pvtz.gbs 
    atoms 2, 5, 8, 11, 14              entry O          line   331 file /home/kchung25/anaconda3/envs/p415env/share/psi4/basis/aug-cc-pvtz.gbs 
    atoms 3-4, 6-7, 9-10, 12-13, 15-16 entry H          line    40 file /home/kchung25/anaconda3/envs/p415env/share/psi4/basis/aug-cc-pvtz.gbs 


         ---------------------------------------------------------
                                   SCF
               by Justin Turney, Rob Parrish, Andy Simmonett
                          and Daniel G. A. Smith
                              RHF Reference
                        6 Threads,  57220 MiB Core
         ---------------------------------------------------------

  ==> Geometry <==

    Molecular point group: c1
    Full point group: C1

    Geometry (in Angstrom), charge = 1, multiplicity = 1:

       Center              X                  Y                   Z               Mass       
    ------------   -----------------  -----------------  -----------------  -----------------
         K            0.000000000000     0.000000000000     0.000000000000    38.963706486400
      Gh(O)           2.272527000000     0.834421000000     1.230172000000    15.994914619570
      Gh(H)           3.156809000000     0.859433000000     1.570041000000     1.007825032230
      Gh(H)           1.902975000000     1.732978000000     1.301596000000     1.007825032230
      Gh(O)           0.185748000000     2.476480000000    -0.876487000000    15.994914619570
      Gh(H)           0.842743000000     2.672524000000    -1.589365000000     1.007825032230
      Gh(H)          -0.626338000000     3.014926000000    -1.032709000000     1.007825032230
      Gh(O)          -2.131224000000    -1.837640000000     0.690354000000    15.994914619570
      Gh(H)          -1.873645000000    -2.481649000000     0.070656000000     1.007825032230
      Gh(H)          -3.071086000000    -1.700625000000     0.593753000000     1.007825032230
      Gh(O)          -0.751067000000    -0.447311000000    -2.432427000000    15.994914619570
      Gh(H)          -0.567099000000     0.174959000000    -3.128552000000     1.007825032230
      Gh(H)          -1.309564000000    -1.096906000000    -2.897071000000     1.007825032230
      Gh(O)          -0.308389000000    -1.371161000000     2.595177000000    15.994914619570
      Gh(H)          -1.066393000000    -1.718449000000     2.157600000000     1.007825032230
      Gh(H)          -0.406916000000    -1.685150000000     3.506362000000     1.007825032230

  Running in c1 symmetry.

  Rotational constants: A =      0.04905  B =      0.03981  C =      0.02502 [cm^-1]
  Rotational constants: A =   1470.35123  B =   1193.40814  C =    750.09327 [MHz]
  Nuclear repulsion =    0.000000000000000

  Charge       = 1
  Multiplicity = 1
  Electrons    = 18
  Nalpha       = 9
  Nbeta        = 9

  ==> Algorithm <==

  SCF Algorithm Type is DF.
  DIIS enabled.
  MOM disabled.
  Fractional occupation disabled.
  Guess Type is SAD.
  Energy threshold   = 1.00e-08
  Density threshold  = 1.00e-08
  Integral threshold = 1.00e-12

  ==> Primary Basis <==

  Basis Set: AUG-CC-PVTZ
    Blend: AUG-CC-PVTZ
    Number of shells: 179
    Number of basis functions: 519
    Number of Cartesian functions: 594
    Spherical Harmonics?: true
    Max angular momentum: 3

   => Loading Basis Set <=

    Name: (AUG-CC-PVTZ AUX)
    Role: JKFIT
    Keyword: DF_BASIS_SCF
    atoms 1                            entry K          line  1152 file /home/kchung25/anaconda3/envs/p415env/share/psi4/basis/def2-universal-jkfit.gbs 
    atoms 2, 5, 8, 11, 14              entry O          line   286 file /home/kchung25/anaconda3/envs/p415env/share/psi4/basis/aug-cc-pvtz-jkfit.gbs 
    atoms 3-4, 6-7, 9-10, 12-13, 15-16 entry H          line    70 file /home/kchung25/anaconda3/envs/p415env/share/psi4/basis/aug-cc-pvtz-jkfit.gbs 

  ==> Integral Setup <==

  DFHelper Memory: AOs need 2.064 GiB; user supplied 41.910 GiB. 
  Using in-core AOs.

  ==> MemDFJK: Density-Fitted J/K Matrices <==

    J tasked:                   Yes
    K tasked:                   Yes
    wK tasked:                   No
    OpenMP threads:               6
    Memory [MiB]:             42915
    Algorithm:                 Core
    Schwarz Cutoff:           1E-12
    Mask sparsity (%):      13.1073
    Fitting Condition:        1E-10

   => Auxiliary Basis Set <=

  Basis Set: (AUG-CC-PVTZ AUX)
    Blend: AUG-CC-PVTZ-JKFIT + DEF2-UNIVERSAL-JKFIT
    Number of shells: 334
    Number of basis functions: 1140
    Number of Cartesian functions: 1408
    Spherical Harmonics?: true
    Max angular momentum: 4

  Minimum eigenvalue in the overlap matrix is 3.5735482479E-05.
  Reciprocal condition number of the overlap matrix is 2.6927658501E-06.
    Using symmetric orthogonalization.

  ==> Pre-Iterations <==

  SCF Guess: Superposition of Atomic Densities via on-the-fly atomic UHF (no occupation information).

   -------------------------
    Irrep   Nso     Nmo    
   -------------------------
     A        519     519 
   -------------------------
    Total     519     519
   -------------------------

  ==> Iterations <==

                           Total Energy        Delta E     RMS |[F,P]|

   @DF-RHF iter SAD:  -599.05177113193781   -5.99052e+02   0.00000e+00 
   @DF-RHF iter   1:  -599.01746083522062    3.43103e-02   2.08572e-05 DIIS
   @DF-RHF iter   2:  -599.01751449043650   -5.36552e-05   2.37890e-06 DIIS
   @DF-RHF iter   3:  -599.01751572547300   -1.23504e-06   4.02069e-07 DIIS
   @DF-RHF iter   4:  -599.01751575209346   -2.66205e-08   2.26301e-08 DIIS
   @DF-RHF iter   5:  -599.01751575219089   -9.74296e-11   3.41685e-09 DIIS
  Energy and wave function converged.


  ==> Post-Iterations <==

    Orbital Energies [Eh]
    ---------------------

    Doubly Occupied:                                                      

       1A   -133.752626     2A    -14.708302     3A    -11.738364  
       4A    -11.738363     5A    -11.738361     6A     -1.963933  
       7A     -1.170648     8A     -1.170643     9A     -1.170586  

    Virtual:                                                              

      10A     -0.146960    11A     -0.095557    12A     -0.095556  
      13A     -0.095547    14A     -0.060675    15A     -0.057978  
      16A     -0.057967    17A     -0.057918    18A     -0.057890  
      19A     -0.057880    20A     -0.045542    21A     -0.045541  
      22A     -0.045535    23A     -0.031384    24A     -0.031346  
      25A     -0.031299    26A     -0.031283    27A     -0.031259  
      28A     -0.019299    29A     -0.018744    30A     -0.017897  
      31A     -0.017378    32A     -0.015686    33A     -0.014286  
      34A     -0.012739    35A     -0.010373    36A     -0.007393  
      37A     -0.003270    38A      0.000706    39A      0.003110  
      40A      0.008269    41A      0.009369    42A      0.011012  
      43A      0.012896    44A      0.021877    45A      0.031566  
      46A      0.036779    47A      0.041203    48A      0.047075  
      49A      0.048903    50A      0.051703    51A      0.054923  
      52A      0.059231    53A      0.060887    54A      0.072307  
      55A      0.079864    56A      0.084503    57A      0.086784  
      58A      0.089721    59A      0.093678    60A      0.097457  
      61A      0.101890    62A      0.104940    63A      0.107782  
      64A      0.110655    65A      0.119317    66A      0.125753  
      67A      0.129458    68A      0.135349    69A      0.144333  
      70A      0.145636    71A      0.151601    72A      0.158853  
      73A      0.171070    74A      0.183777    75A      0.192001  
      76A      0.200087    77A      0.202270    78A      0.208678  
      79A      0.211983    80A      0.214850    81A      0.216215  
      82A      0.220978    83A      0.229358    84A      0.232403  
      85A      0.238088    86A      0.241036    87A      0.246468  
      88A      0.252982    89A      0.262008    90A      0.263167  
      91A      0.266627    92A      0.273773    93A      0.275016  
      94A      0.282729    95A      0.289016    96A      0.291271  
      97A      0.297248    98A      0.304769    99A      0.306213  
     100A      0.309508   101A      0.315247   102A      0.321129  
     103A      0.321796   104A      0.326366   105A      0.331942  
     106A      0.337312   107A      0.340612   108A      0.343960  
     109A      0.350070   110A      0.361415   111A      0.365144  
     112A      0.368247   113A      0.370971   114A      0.374517  
     115A      0.380760   116A      0.383082   117A      0.388886  
     118A      0.391733   119A      0.412257   120A      0.414492  
     121A      0.421966   122A      0.428734   123A      0.437126  
     124A      0.449455   125A      0.462948   126A      0.485790  
     127A      0.501194   128A      0.506836   129A      0.539579  
     130A      0.558362   131A      0.574491   132A      0.592567  
     133A      0.599197   134A      0.616727   135A      0.619040  
     136A      0.628768   137A      0.640247   138A      0.644781  
     139A      0.665263   140A      0.668165   141A      0.675375  
     142A      0.675781   143A      0.683545   144A      0.692988  
     145A      0.701950   146A      0.707490   147A      0.713901  
     148A      0.723816   149A      0.730260   150A      0.733789  
     151A      0.741718   152A      0.746839   153A      0.749862  
     154A      0.758738   155A      0.764417   156A      0.771042  
     157A      0.777082   158A      0.788609   159A      0.792182  
     160A      0.796712   161A      0.810558   162A      0.814229  
     163A      0.825840   164A      0.829270   165A      0.834215  
     166A      0.840397   167A      0.844268   168A      0.845601  
     169A      0.854748   170A      0.857849   171A      0.862010  
     172A      0.871002   173A      0.881396   174A      0.885908  
     175A      0.897853   176A      0.898967   177A      0.906914  
     178A      0.910942   179A      0.918287   180A      0.930812  
     181A      0.938220   182A      0.947330   183A      0.948819  
     184A      0.967204   185A      0.972054   186A      0.982661  
     187A      0.987787   188A      0.993228   189A      1.000129  
     190A      1.011089   191A      1.022822   192A      1.025877  
     193A      1.035104   194A      1.043197   195A      1.057513  
     196A      1.061761   197A      1.068631   198A      1.076591  
     199A      1.084744   200A      1.088527   201A      1.092437  
     202A      1.102119   203A      1.112129   204A      1.122452  
     205A      1.126497   206A      1.130572   207A      1.136519  
     208A      1.143927   209A      1.148860   210A      1.162356  
     211A      1.164581   212A      1.178065   213A      1.188849  
     214A      1.204211   215A      1.212524   216A      1.229197  
     217A      1.234158   218A      1.265515   219A      1.279826  
     220A      1.298509   221A      1.335168   222A      1.346119  
     223A      1.375833   224A      1.380932   225A      1.395089  
     226A      1.412758   227A      1.419639   228A      1.442541  
     229A      1.465266   230A      1.489859   231A      1.503326  
     232A      1.534195   233A      1.564027   234A      1.575240  
     235A      1.594727   236A      1.596594   237A      1.605154  
     238A      1.635016   239A      1.646110   240A      1.655530  
     241A      1.661249   242A      1.671150   243A      1.689703  
     244A      1.695751   245A      1.700663   246A      1.707725  
     247A      1.716518   248A      1.721250   249A      1.732875  
     250A      1.741236   251A      1.754905   252A      1.767288  
     253A      1.800239   254A      1.806922   255A      1.831726  
     256A      1.847189   257A      1.862694   258A      1.866312  
     259A      1.892987   260A      1.933803   261A      1.939548  
     262A      1.972798   263A      1.996407   264A      2.092078  
     265A      2.198178   266A      2.218178   267A      2.243401  
     268A      2.251101   269A      2.269257   270A      2.289963  
     271A      2.296182   272A      2.316197   273A      2.329231  
     274A      2.339873   275A      2.349120   276A      2.354525  
     277A      2.366068   278A      2.370856   279A      2.377713  
     280A      2.391141   281A      2.406899   282A      2.417579  
     283A      2.418052   284A      2.420293   285A      2.425938  
     286A      2.437352   287A      2.461041   288A      2.467230  
     289A      2.470435   290A      2.481176   291A      2.492943  
     292A      2.508691   293A      2.536628   294A      2.557828  
     295A      2.581128   296A      2.591887   297A      2.610260  
     298A      2.629610   299A      2.663437   300A      2.667751  
     301A      2.673849   302A      2.691742   303A      2.714119  
     304A      2.729543   305A      2.746047   306A      2.764071  
     307A      2.816512   308A      2.885689   309A      2.930772  
     310A      3.000049   311A      3.033584   312A      3.041894  
     313A      3.043441   314A      3.052872   315A      3.063531  
     316A      3.074040   317A      3.079311   318A      3.092779  
     319A      3.098958   320A      3.110689   321A      3.132513  
     322A      3.138875   323A      3.147363   324A      3.156631  
     325A      3.171705   326A      3.194894   327A      3.198339  
     328A      3.206832   329A      3.226285   330A      3.241913  
     331A      3.251267   332A      3.322133   333A      3.362392  
     334A      3.405567   335A      3.426446   336A      3.449908  
     337A      3.481390   338A      3.526427   339A      3.534809  
     340A      3.546832   341A      3.550017   342A      3.568122  
     343A      3.573111   344A      3.818968   345A      4.174539  
     346A      4.235559   347A      4.244184   348A      4.270726  
     349A      4.275986   350A      4.310851   351A      4.322433  
     352A      4.326884   353A      4.360715   354A      4.371406  
     355A      4.381160   356A      4.394036   357A      4.403317  
     358A      4.419429   359A      4.440382   360A      4.473879  
     361A      4.480445   362A      4.493122   363A      4.518842  
     364A      4.528292   365A      4.539824   366A      4.563655  
     367A      4.582008   368A      4.597243   369A      4.614969  
     370A      4.618624   371A      4.627704   372A      4.668774  
     373A      4.726780   374A      4.752613   375A      4.758263  
     376A      4.761615   377A      4.786838   378A      4.790697  
     379A      4.810200   380A      4.817377   381A      4.832567  
     382A      4.844050   383A      4.851358   384A      4.879624  
     385A      4.908369   386A      4.926789   387A      4.946368  
     388A      4.974661   389A      4.990502   390A      5.028316  
     391A      5.044676   392A      5.092582   393A      5.133124  
     394A      5.242126   395A      5.246542   396A      5.329078  
     397A      5.353912   398A      5.405425   399A      5.406714  
     400A      5.420245   401A      5.433128   402A      5.441228  
     403A      5.473137   404A      5.499376   405A      5.524130  
     406A      5.534623   407A      5.539203   408A      5.560679  
     409A      5.583469   410A      5.668000   411A      5.701486  
     412A      5.732611   413A      5.792378   414A      5.833858  
     415A      5.948487   416A      5.957062   417A      5.980213  
     418A      6.020227   419A      6.087660   420A      6.120428  
     421A      6.209726   422A      6.218666   423A      6.333732  
     424A      6.464527   425A      6.489713   426A      6.526137  
     427A      6.555390   428A      6.614683   429A      6.792395  
     430A      6.811401   431A      6.909776   432A      6.933140  
     433A      6.973125   434A      7.086138   435A      7.467219  
     436A      7.477206   437A      7.522581   438A      7.565677  
     439A      7.573935   440A      7.608820   441A      7.663302  
     442A      7.667166   443A      7.708939   444A      7.815404  
     445A      7.853546   446A      7.884670   447A      7.914057  
     448A      7.918173   449A      7.962118   450A      8.000232  
     451A      8.004269   452A      8.022495   453A      8.045588  
     454A      8.048722   455A      8.096685   456A      8.103251  
     457A      8.119167   458A      8.140519   459A      8.243806  
     460A      8.425418   461A      8.495775   462A      8.524135  
     463A      8.627703   464A      8.651645   465A      8.688329  
     466A      8.699119   467A      8.749751   468A      8.860213  
     469A      8.960345   470A      9.559521   471A      9.572784  
     472A      9.601431   473A      9.609961   474A      9.713765  
     475A      9.736114   476A      9.746957   477A      9.759748  
     478A      9.763504   479A      9.806062   480A      9.830003  
     481A      9.846584   482A      9.857821   483A      9.872928  
     484A      9.912339   485A      9.985726   486A     10.031497  
     487A     10.053046   488A     10.158664   489A     10.230839  
     490A     10.823189   491A     10.994477   492A     11.041043  
     493A     11.124170   494A     11.161674   495A     11.439958  
     496A     11.464157   497A     11.499423   498A     11.600165  
     499A     11.641720   500A     11.714641   501A     11.934142  
     502A     11.984590   503A     12.195696   504A     12.605150  
     505A     13.202004   506A     13.375176   507A     13.390230  
     508A     13.601516   509A     13.625958   510A     13.660300  
     511A     13.679559   512A     13.708423   513A     13.720291  
     514A     13.868983   515A     63.354743   516A     64.564018  
     517A     64.813120   518A     66.716958   519A     67.554008  

    Final Occupation by Irrep:
              A 
    DOCC [     9 ]
    NA   [     9 ]
    NB   [     9 ]

  @DF-RHF Final Energy:  -599.01751575219089

   => Energetics <=

    Nuclear Repulsion Energy =              0.0000000000000000
    One-Electron Energy =                -819.7313819793025687
    Two-Electron Energy =                 220.7138662271116232
    Total Energy =                       -599.0175157521910023

Computation Completed


Properties will be evaluated at   0.000000,   0.000000,   0.000000 [a0]

Properties computed using the SCF density matrix


 Multipole Moments:

 ------------------------------------------------------------------------------------
     Multipole            Electronic (a.u.)      Nuclear  (a.u.)        Total (a.u.)
 ------------------------------------------------------------------------------------

 L = 1.  Multiply by 2.5417464519 to convert [e a0] to [Debye]
 Dipole X            :         -0.0000634            0.0000000           -0.0000634
 Dipole Y            :          0.0000865            0.0000000            0.0000865
 Dipole Z            :         -0.0000330            0.0000000           -0.0000330
 Magnitude           :                                                    0.0001123

 ------------------------------------------------------------------------------------

*** tstop() called on moses-razer at Wed Jan 24 15:55:40 2024
Module time:
	user time   =      41.47 seconds =       0.69 minutes
	system time =       3.77 seconds =       0.06 minutes
	total time  =         13 seconds =       0.22 minutes
Total time:
	user time   =      41.47 seconds =       0.69 minutes
	system time =       3.77 seconds =       0.06 minutes
	total time  =         13 seconds =       0.22 minutes

*** tstart() called on moses-razer
*** at Wed Jan 24 15:55:40 2024


  //>>>>>>>>>>>>>>>>>>>>>>>>>>>>>>>>>>>//
  //               DFMP2               //
  //<<<<<<<<<<<<<<<<<<<<<<<<<<<<<<<<<<<//

   => Loading Basis Set <=

    Name: (AUG-CC-PVTZ AUX)
    Role: RIFIT
    Keyword: DF_BASIS_MP2
    atoms 1                            entry K          line  1282 file /home/kchung25/anaconda3/envs/p415env/share/psi4/basis/def2-qzvpp-ri.gbs 
    atoms 2, 5, 8, 11, 14              entry O          line   264 file /home/kchung25/anaconda3/envs/p415env/share/psi4/basis/aug-cc-pvtz-ri.gbs 
    atoms 3-4, 6-7, 9-10, 12-13, 15-16 entry H          line    30 file /home/kchung25/anaconda3/envs/p415env/share/psi4/basis/aug-cc-pvtz-ri.gbs 

	 --------------------------------------------------------
	                          DF-MP2                         
	      2nd-Order Density-Fitted Moller-Plesset Theory     
	              RMP2 Wavefunction,   6 Threads             
	                                                         
	        Rob Parrish, Justin Turney, Andy Simmonett,      
	           Ed Hohenstein, and C. David Sherrill          
	 --------------------------------------------------------

   => Auxiliary Basis Set <=

  Basis Set: (AUG-CC-PVTZ AUX)
    Blend: AUG-CC-PVTZ-RI + DEF2-QZVPP-RI
    Number of shells: 329
    Number of basis functions: 1189
    Number of Cartesian functions: 1492
    Spherical Harmonics?: true
    Max angular momentum: 4

	 --------------------------------------------------------
	                 NBF =   519, NAUX =  1189
	 --------------------------------------------------------
	   CLASS    FOCC     OCC    AOCC    AVIR     VIR    FVIR
	   PAIRS       0       9       9     510     510       0
	 --------------------------------------------------------

	-----------------------------------------------------------
	 ==================> DF-MP2 Energies <==================== 
	-----------------------------------------------------------
	 Reference Energy          =    -599.0175157521908886 [Eh]
	 Singles Energy            =      -0.0000000000000000 [Eh]
	 Same-Spin Energy          =      -0.0372740256729320 [Eh]
	 Opposite-Spin Energy      =      -0.0909801724692944 [Eh]
	 Correlation Energy        =      -0.1282541981422264 [Eh]
	 Total Energy              =    -599.1457699503331469 [Eh]
	-----------------------------------------------------------
	 ================> DF-SCS-MP2 Energies <================== 
	-----------------------------------------------------------
	 SCS Same-Spin Scale       =       0.3333333333333333 [-]
	 SCS Opposite-Spin Scale   =       1.2000000000000000 [-]
	 SCS Same-Spin Energy      =      -0.0124246752243107 [Eh]
	 SCS Opposite-Spin Energy  =      -0.1091762069631533 [Eh]
	 SCS Correlation Energy    =      -0.1216008821874640 [Eh]
	 SCS Total Energy          =    -599.1391166343782970 [Eh]
	-----------------------------------------------------------


*** tstop() called on moses-razer at Wed Jan 24 15:55:48 2024
Module time:
	user time   =      18.38 seconds =       0.31 minutes
	system time =       1.52 seconds =       0.03 minutes
	total time  =          8 seconds =       0.13 minutes
Total time:
	user time   =      59.86 seconds =       1.00 minutes
	system time =       5.29 seconds =       0.09 minutes
	total time  =         21 seconds =       0.35 minutes

    Psi4 stopped on: Wednesday, 24 January 2024 03:55PM
    Psi4 wall time for execution: 0:00:21.70

*** Psi4 exiting successfully. Buy a developer a beer!
