
    -----------------------------------------------------------------------
          Psi4: An Open-Source Ab Initio Electronic Structure Package
                               Psi4 1.9 release

                         Git: Rev {} zzzzzzz 


    D. G. A. Smith, L. A. Burns, A. C. Simmonett, R. M. Parrish,
    M. C. Schieber, R. Galvelis, P. Kraus, H. Kruse, R. Di Remigio,
    A. Alenaizan, A. M. James, S. Lehtola, J. P. Misiewicz, M. Scheurer,
    R. A. Shaw, J. B. Schriber, Y. Xie, Z. L. Glick, D. A. Sirianni,
    J. S. O'Brien, J. M. Waldrop, A. Kumar, E. G. Hohenstein,
    B. P. Pritchard, B. R. Brooks, H. F. Schaefer III, A. Yu. Sokolov,
    K. Patkowski, A. E. DePrince III, U. Bozkaya, R. A. King,
    F. A. Evangelista, J. M. Turney, T. D. Crawford, C. D. Sherrill,
    J. Chem. Phys. 152(18) 184108 (2020). https://doi.org/10.1063/5.0006002

                            Additional Code Authors
    E. T. Seidl, C. L. Janssen, E. F. Valeev, M. L. Leininger,
    J. F. Gonthier, R. M. Richard, H. R. McAlexander, M. Saitow, X. Wang,
    P. Verma, M. H. Lechner, A. Jiang, S. Behnle, A. G. Heide,
    M. F. Herbst, and D. L. Poole

             Previous Authors, Complete List of Code Contributors,
                       and Citations for Specific Modules
    https://github.com/psi4/psi4/blob/master/codemeta.json
    https://github.com/psi4/psi4/graphs/contributors
    http://psicode.org/psi4manual/master/introduction.html#citing-psifour

    -----------------------------------------------------------------------


    Psi4 started on: Wednesday, 24 January 2024 03:21PM

    Process ID: 1223691
    Host:       moses-razer
    PSIDATADIR: /home/kchung25/anaconda3/envs/psi4_19/share/psi4
    Memory:     500.0 MiB
    Threads:    6
    
  ==> Input File <==

--------------------------------------------------------------------------
MEMORY 60 GB

molecule dimer {
1 1
K          0.000000     0.000000     0.000000
Gh(O)     -1.997620    -2.162061    -0.813178
Gh(H)     -2.773802    -1.606737    -0.549995
Gh(H)     -1.592061    -2.558739    -0.032556
Gh(O)      0.414858    -0.225799    -2.631086
Gh(H)      1.352700    -0.013745    -2.767381
Gh(H)      0.050193    -0.688976    -3.401864
Gh(O)     -2.631714     0.983286    -0.637732
Gh(H)     -3.404075     1.007670    -0.141584
Gh(H)     -2.832941     1.458279    -1.450706
Gh(O)      1.202232    -0.677975     2.440207
Gh(H)      2.075392    -1.063868     2.278000
Gh(H)      0.927402    -1.109896     3.256085
Gh(O)     -0.234521    -2.746344     1.303637
Gh(H)     -0.487511    -2.096140     1.982125
Gh(H)      0.699833    -2.781795     1.295536
Gh(O)      0.306745     2.542586     1.554188
Gh(H)      0.463644     2.471048     2.452764
Gh(H)     -0.325900     3.267043     1.361577

units ang
no_reorient
no_com
symmetry c1
}

set {
basis        aug-cc-pVTZ
scf_type     df
}

energy("mp2")
--------------------------------------------------------------------------

  Memory set to  55.879 GiB by Python driver.

Scratch directory: /scratch/
   => Libint2 <=

    Primary   basis highest AM E, G, H:  5, 4, 3
    Auxiliary basis highest AM E, G, H:  6, 5, 4
    Onebody   basis highest AM E, G, H:  6, 5, 4
    Solid Harmonics ordering:            gaussian

*** tstart() called on moses-razer
*** at Wed Jan 24 15:21:47 2024

   => Loading Basis Set <=

    Name: AUG-CC-PVTZ
    Role: ORBITAL
    Keyword: BASIS
    atoms 1                                   entry K          line  1152 file /home/kchung25/anaconda3/envs/p415env/share/psi4/basis/aug-cc-pvtz.gbs 
    atoms 2, 5, 8, 11, 14, 17                 entry O          line   331 file /home/kchung25/anaconda3/envs/p415env/share/psi4/basis/aug-cc-pvtz.gbs 
    atoms 3-4, 6-7, 9-10, 12-13, 15-16, 18-19 entry H          line    40 file /home/kchung25/anaconda3/envs/p415env/share/psi4/basis/aug-cc-pvtz.gbs 


         ---------------------------------------------------------
                                   SCF
               by Justin Turney, Rob Parrish, Andy Simmonett
                          and Daniel G. A. Smith
                              RHF Reference
                        6 Threads,  57220 MiB Core
         ---------------------------------------------------------

  ==> Geometry <==

    Molecular point group: c1
    Full point group: C1

    Geometry (in Angstrom), charge = 1, multiplicity = 1:

       Center              X                  Y                   Z               Mass       
    ------------   -----------------  -----------------  -----------------  -----------------
         K            0.000000000000     0.000000000000     0.000000000000    38.963706486400
      Gh(O)          -1.997620000000    -2.162061000000    -0.813178000000    15.994914619570
      Gh(H)          -2.773802000000    -1.606737000000    -0.549995000000     1.007825032230
      Gh(H)          -1.592061000000    -2.558739000000    -0.032556000000     1.007825032230
      Gh(O)           0.414858000000    -0.225799000000    -2.631086000000    15.994914619570
      Gh(H)           1.352700000000    -0.013745000000    -2.767381000000     1.007825032230
      Gh(H)           0.050193000000    -0.688976000000    -3.401864000000     1.007825032230
      Gh(O)          -2.631714000000     0.983286000000    -0.637732000000    15.994914619570
      Gh(H)          -3.404075000000     1.007670000000    -0.141584000000     1.007825032230
      Gh(H)          -2.832941000000     1.458279000000    -1.450706000000     1.007825032230
      Gh(O)           1.202232000000    -0.677975000000     2.440207000000    15.994914619570
      Gh(H)           2.075392000000    -1.063868000000     2.278000000000     1.007825032230
      Gh(H)           0.927402000000    -1.109896000000     3.256085000000     1.007825032230
      Gh(O)          -0.234521000000    -2.746344000000     1.303637000000    15.994914619570
      Gh(H)          -0.487511000000    -2.096140000000     1.982125000000     1.007825032230
      Gh(H)           0.699833000000    -2.781795000000     1.295536000000     1.007825032230
      Gh(O)           0.306745000000     2.542586000000     1.554188000000    15.994914619570
      Gh(H)           0.463644000000     2.471048000000     2.452764000000     1.007825032230
      Gh(H)          -0.325900000000     3.267043000000     1.361577000000     1.007825032230

  Running in c1 symmetry.

  Rotational constants: A =      0.03131  B =      0.02862  C =      0.02193 [cm^-1]
  Rotational constants: A =    938.65702  B =    858.08546  C =    657.40859 [MHz]
  Nuclear repulsion =    0.000000000000000

  Charge       = 1
  Multiplicity = 1
  Electrons    = 18
  Nalpha       = 9
  Nbeta        = 9

  ==> Algorithm <==

  SCF Algorithm Type is DF.
  DIIS enabled.
  MOM disabled.
  Fractional occupation disabled.
  Guess Type is SAD.
  Energy threshold   = 1.00e-08
  Density threshold  = 1.00e-08
  Integral threshold = 1.00e-12

  ==> Primary Basis <==

  Basis Set: AUG-CC-PVTZ
    Blend: AUG-CC-PVTZ
    Number of shells: 211
    Number of basis functions: 611
    Number of Cartesian functions: 699
    Spherical Harmonics?: true
    Max angular momentum: 3

   => Loading Basis Set <=

    Name: (AUG-CC-PVTZ AUX)
    Role: JKFIT
    Keyword: DF_BASIS_SCF
    atoms 1                                   entry K          line  1152 file /home/kchung25/anaconda3/envs/p415env/share/psi4/basis/def2-universal-jkfit.gbs 
    atoms 2, 5, 8, 11, 14, 17                 entry O          line   286 file /home/kchung25/anaconda3/envs/p415env/share/psi4/basis/aug-cc-pvtz-jkfit.gbs 
    atoms 3-4, 6-7, 9-10, 12-13, 15-16, 18-19 entry H          line    70 file /home/kchung25/anaconda3/envs/p415env/share/psi4/basis/aug-cc-pvtz-jkfit.gbs 

  ==> Integral Setup <==

  DFHelper Memory: AOs need 3.314 GiB; user supplied 41.910 GiB. 
  Using in-core AOs.

  ==> MemDFJK: Density-Fitted J/K Matrices <==

    J tasked:                   Yes
    K tasked:                   Yes
    wK tasked:                   No
    OpenMP threads:               6
    Memory [MiB]:             42915
    Algorithm:                 Core
    Schwarz Cutoff:           1E-12
    Mask sparsity (%):      13.6360
    Fitting Condition:        1E-10

   => Auxiliary Basis Set <=

  Basis Set: (AUG-CC-PVTZ AUX)
    Blend: AUG-CC-PVTZ-JKFIT + DEF2-UNIVERSAL-JKFIT
    Number of shells: 392
    Number of basis functions: 1336
    Number of Cartesian functions: 1649
    Spherical Harmonics?: true
    Max angular momentum: 4

  Minimum eigenvalue in the overlap matrix is 4.1576381340E-05.
  Reciprocal condition number of the overlap matrix is 2.7563540771E-06.
    Using symmetric orthogonalization.

  ==> Pre-Iterations <==

  SCF Guess: Superposition of Atomic Densities via on-the-fly atomic UHF (no occupation information).

   -------------------------
    Irrep   Nso     Nmo    
   -------------------------
     A        611     611 
   -------------------------
    Total     611     611
   -------------------------

  ==> Iterations <==

                           Total Energy        Delta E     RMS |[F,P]|

   @DF-RHF iter SAD:  -599.05175562258933   -5.99052e+02   0.00000e+00 
   @DF-RHF iter   1:  -599.01746086247977    3.42948e-02   1.77305e-05 DIIS
   @DF-RHF iter   2:  -599.01751517272669   -5.43102e-05   2.00796e-06 DIIS
   @DF-RHF iter   3:  -599.01751639104384   -1.21832e-06   3.45972e-07 DIIS
   @DF-RHF iter   4:  -599.01751641817202   -2.71282e-08   2.05426e-08 DIIS
   @DF-RHF iter   5:  -599.01751641827923   -1.07207e-10   4.00108e-09 DIIS
  Energy and wave function converged.


  ==> Post-Iterations <==

    Orbital Energies [Eh]
    ---------------------

    Doubly Occupied:                                                      

       1A   -133.752577     2A    -14.708259     3A    -11.738320  
       4A    -11.738319     5A    -11.738319     6A     -1.963909  
       7A     -1.170619     8A     -1.170603     9A     -1.170596  

    Virtual:                                                              

      10A     -0.146958    11A     -0.095555    12A     -0.095552  
      13A     -0.095551    14A     -0.060668    15A     -0.057982  
      16A     -0.057971    17A     -0.057961    18A     -0.057931  
      19A     -0.057912    20A     -0.045541    21A     -0.045540  
      22A     -0.045538    23A     -0.031359    24A     -0.031352  
      25A     -0.031324    26A     -0.031301    27A     -0.031284  
      28A     -0.019350    29A     -0.019013    30A     -0.018726  
      31A     -0.017105    32A     -0.015752    33A     -0.014915  
      34A     -0.014395    35A     -0.014064    36A     -0.011853  
      37A     -0.009042    38A     -0.003934    39A      0.004313  
      40A      0.005994    41A      0.006756    42A      0.008932  
      43A      0.009438    44A      0.022568    45A      0.024725  
      46A      0.029539    47A      0.031891    48A      0.033773  
      49A      0.042583    50A      0.047411    51A      0.053094  
      52A      0.055024    53A      0.057625    54A      0.059519  
      55A      0.061078    56A      0.071795    57A      0.076801  
      58A      0.079140    59A      0.084450    60A      0.085224  
      61A      0.088062    62A      0.090229    63A      0.091852  
      64A      0.093450    65A      0.099721    66A      0.107366  
      67A      0.108680    68A      0.117588    69A      0.122679  
      70A      0.126974    71A      0.134198    72A      0.138546  
      73A      0.141628    74A      0.143820    75A      0.156634  
      76A      0.161321    77A      0.166715    78A      0.172994  
      79A      0.181351    80A      0.187849    81A      0.192087  
      82A      0.196716    83A      0.200239    84A      0.206566  
      85A      0.207920    86A      0.212894    87A      0.217384  
      88A      0.222889    89A      0.226526    90A      0.231740  
      91A      0.237980    92A      0.242368    93A      0.249972  
      94A      0.251322    95A      0.261285    96A      0.263985  
      97A      0.268022    98A      0.269725    99A      0.273363  
     100A      0.278507   101A      0.283514   102A      0.286725  
     103A      0.290765   104A      0.294757   105A      0.297869  
     106A      0.302424   107A      0.306286   108A      0.310262  
     109A      0.311874   110A      0.318785   111A      0.322823  
     112A      0.328689   113A      0.330126   114A      0.333543  
     115A      0.336558   116A      0.341691   117A      0.345156  
     118A      0.350998   119A      0.352365   120A      0.364000  
     121A      0.373582   122A      0.375794   123A      0.384791  
     124A      0.388048   125A      0.391800   126A      0.395280  
     127A      0.399088   128A      0.402136   129A      0.406034  
     130A      0.414865   131A      0.425539   132A      0.430929  
     133A      0.441671   134A      0.447006   135A      0.448083  
     136A      0.456787   137A      0.466074   138A      0.475420  
     139A      0.483024   140A      0.485906   141A      0.495358  
     142A      0.509645   143A      0.544059   144A      0.559247  
     145A      0.581948   146A      0.591197   147A      0.599991  
     148A      0.610535   149A      0.618839   150A      0.625654  
     151A      0.635004   152A      0.647979   153A      0.650133  
     154A      0.660147   155A      0.664013   156A      0.678611  
     157A      0.683370   158A      0.686308   159A      0.695987  
     160A      0.700659   161A      0.701171   162A      0.706319  
     163A      0.714198   164A      0.724193   165A      0.727975  
     166A      0.731334   167A      0.736069   168A      0.736750  
     169A      0.746041   170A      0.749742   171A      0.757832  
     172A      0.764966   173A      0.767461   174A      0.782980  
     175A      0.785766   176A      0.787094   177A      0.796570  
     178A      0.799439   179A      0.804980   180A      0.810606  
     181A      0.820815   182A      0.823206   183A      0.826052  
     184A      0.831334   185A      0.842284   186A      0.846054  
     187A      0.848120   188A      0.854732   189A      0.860398  
     190A      0.869128   191A      0.878550   192A      0.880752  
     193A      0.886774   194A      0.889741   195A      0.892658  
     196A      0.903025   197A      0.909614   198A      0.916232  
     199A      0.923641   200A      0.933243   201A      0.938080  
     202A      0.948221   203A      0.954534   204A      0.956724  
     205A      0.965416   206A      0.969965   207A      0.972135  
     208A      0.986280   209A      0.992747   210A      0.994488  
     211A      1.007862   212A      1.011358   213A      1.014958  
     214A      1.024370   215A      1.027043   216A      1.038099  
     217A      1.046362   218A      1.050260   219A      1.057455  
     220A      1.064441   221A      1.071573   222A      1.076793  
     223A      1.087791   224A      1.092439   225A      1.093917  
     226A      1.100526   227A      1.101977   228A      1.111985  
     229A      1.126644   230A      1.130479   231A      1.137748  
     232A      1.143768   233A      1.150522   234A      1.151944  
     235A      1.162432   236A      1.168296   237A      1.179369  
     238A      1.187930   239A      1.195245   240A      1.204504  
     241A      1.213326   242A      1.222377   243A      1.228093  
     244A      1.234286   245A      1.239621   246A      1.261542  
     247A      1.267651   248A      1.278304   249A      1.282132  
     250A      1.295480   251A      1.321270   252A      1.344459  
     253A      1.357607   254A      1.366437   255A      1.375777  
     256A      1.389052   257A      1.414955   258A      1.431286  
     259A      1.440935   260A      1.446289   261A      1.449941  
     262A      1.465136   263A      1.487828   264A      1.521307  
     265A      1.528501   266A      1.535879   267A      1.542051  
     268A      1.610430   269A      1.614258   270A      1.618131  
     271A      1.625519   272A      1.646115   273A      1.649022  
     274A      1.652342   275A      1.665868   276A      1.677403  
     277A      1.679968   278A      1.692639   279A      1.700461  
     280A      1.704353   281A      1.706773   282A      1.722643  
     283A      1.725886   284A      1.739692   285A      1.750991  
     286A      1.752123   287A      1.781544   288A      1.787032  
     289A      1.789329   290A      1.796000   291A      1.818885  
     292A      1.820017   293A      1.837766   294A      1.846188  
     295A      1.858427   296A      1.866953   297A      1.875849  
     298A      1.891878   299A      1.915096   300A      1.953105  
     301A      1.961720   302A      1.976917   303A      1.995140  
     304A      2.006838   305A      2.035572   306A      2.207907  
     307A      2.216966   308A      2.235603   309A      2.266233  
     310A      2.276759   311A      2.295235   312A      2.306505  
     313A      2.333932   314A      2.347896   315A      2.357306  
     316A      2.372068   317A      2.375764   318A      2.377710  
     319A      2.395517   320A      2.399133   321A      2.404240  
     322A      2.412969   323A      2.415450   324A      2.421672  
     325A      2.440539   326A      2.447644   327A      2.452123  
     328A      2.460198   329A      2.469693   330A      2.486397  
     331A      2.505459   332A      2.507808   333A      2.517272  
     334A      2.522254   335A      2.547623   336A      2.557316  
     337A      2.581303   338A      2.583948   339A      2.599669  
     340A      2.613372   341A      2.622055   342A      2.631680  
     343A      2.640658   344A      2.653746   345A      2.654133  
     346A      2.691973   347A      2.700479   348A      2.712230  
     349A      2.729756   350A      2.753022   351A      2.759244  
     352A      2.767610   353A      2.791851   354A      2.802302  
     355A      2.830427   356A      2.868716   357A      2.896169  
     358A      2.929367   359A      2.956474   360A      3.031927  
     361A      3.045316   362A      3.061837   363A      3.070194  
     364A      3.075818   365A      3.083354   366A      3.084934  
     367A      3.093400   368A      3.094977   369A      3.104690  
     370A      3.109618   371A      3.126064   372A      3.150770  
     373A      3.159073   374A      3.167831   375A      3.173740  
     376A      3.188800   377A      3.196209   378A      3.202146  
     379A      3.216223   380A      3.222555   381A      3.227121  
     382A      3.230038   383A      3.236906   384A      3.260602  
     385A      3.268259   386A      3.276313   387A      3.311913  
     388A      3.376925   389A      3.423103   390A      3.430028  
     391A      3.437557   392A      3.473533   393A      3.503679  
     394A      3.536010   395A      3.548723   396A      3.571493  
     397A      3.579912   398A      3.585824   399A      3.596001  
     400A      3.619803   401A      3.763718   402A      4.193852  
     403A      4.228933   404A      4.246093   405A      4.260639  
     406A      4.269103   407A      4.315575   408A      4.347850  
     409A      4.349936   410A      4.367027   411A      4.383022  
     412A      4.399100   413A      4.414806   414A      4.425608  
     415A      4.430615   416A      4.436837   417A      4.448250  
     418A      4.463447   419A      4.470576   420A      4.489892  
     421A      4.500405   422A      4.508670   423A      4.523936  
     424A      4.534745   425A      4.542034   426A      4.554163  
     427A      4.564690   428A      4.567620   429A      4.588358  
     430A      4.605473   431A      4.613308   432A      4.638483  
     433A      4.654414   434A      4.674814   435A      4.689089  
     436A      4.764607   437A      4.775865   438A      4.789545  
     439A      4.802018   440A      4.802849   441A      4.814160  
     442A      4.825113   443A      4.834135   444A      4.854239  
     445A      4.862564   446A      4.871959   447A      4.897683  
     448A      4.918061   449A      4.925360   450A      4.928460  
     451A      4.932925   452A      4.969771   453A      4.972215  
     454A      4.985287   455A      5.003578   456A      5.039156  
     457A      5.096851   458A      5.112207   459A      5.129529  
     460A      5.169380   461A      5.282050   462A      5.302747  
     463A      5.307251   464A      5.384132   465A      5.399086  
     466A      5.401820   467A      5.405777   468A      5.417492  
     469A      5.427898   470A      5.455551   471A      5.466446  
     472A      5.479865   473A      5.497316   474A      5.512606  
     475A      5.571885   476A      5.579294   477A      5.585469  
     478A      5.630997   479A      5.645158   480A      5.651137  
     481A      5.671800   482A      5.756770   483A      5.774808  
     484A      5.816573   485A      5.857479   486A      5.963014  
     487A      6.016826   488A      6.040691   489A      6.055244  
     490A      6.093495   491A      6.135479   492A      6.199277  
     493A      6.211338   494A      6.245385   495A      6.280378  
     496A      6.348013   497A      6.432101   498A      6.518964  
     499A      6.558714   500A      6.597880   501A      6.631299  
     502A      6.664485   503A      6.682545   504A      6.876064  
     505A      6.899644   506A      6.933632   507A      7.030475  
     508A      7.051668   509A      7.070603   510A      7.470372  
     511A      7.509553   512A      7.526126   513A      7.549444  
     514A      7.559438   515A      7.578578   516A      7.593006  
     517A      7.634456   518A      7.695738   519A      7.699324  
     520A      7.729654   521A      7.755817   522A      7.919572  
     523A      7.949791   524A      7.957973   525A      7.969414  
     526A      7.980817   527A      8.011970   528A      8.031633  
     529A      8.047976   530A      8.083022   531A      8.090504  
     532A      8.116198   533A      8.137207   534A      8.144589  
     535A      8.146530   536A      8.151842   537A      8.186358  
     538A      8.210219   539A      8.286124   540A      8.543722  
     541A      8.563352   542A      8.572412   543A      8.589033  
     544A      8.677808   545A      8.681028   546A      8.728131  
     547A      8.746215   548A      8.801743   549A      8.812438  
     550A      8.818248   551A      8.825612   552A      9.592997  
     553A      9.616879   554A      9.625310   555A      9.664390  
     556A      9.727397   557A      9.734127   558A      9.751680  
     559A      9.756415   560A      9.775572   561A      9.804643  
     562A      9.816993   563A      9.831461   564A      9.834855  
     565A      9.866804   566A      9.882172   567A      9.887725  
     568A      9.902313   569A      9.981788   570A     10.016811  
     571A     10.019641   572A     10.061648   573A     10.072358  
     574A     10.109611   575A     10.202819   576A     10.907318  
     577A     10.917105   578A     10.988825   579A     11.048109  
     580A     11.081603   581A     11.150169   582A     11.465992  
     583A     11.550328   584A     11.613322   585A     11.654370  
     586A     11.678876   587A     11.782895   588A     11.880551  
     589A     12.004922   590A     12.045953   591A     12.237651  
     592A     12.323725   593A     12.402926   594A     13.286093  
     595A     13.422953   596A     13.444926   597A     13.519362  
     598A     13.581111   599A     13.614665   600A     13.693926  
     601A     13.704415   602A     13.719049   603A     13.755608  
     604A     13.774074   605A     13.889881   606A     64.200122  
     607A     64.893842   608A     65.719054   609A     65.790511  
     610A     66.143978   611A     66.849714  

    Final Occupation by Irrep:
              A 
    DOCC [     9 ]
    NA   [     9 ]
    NB   [     9 ]

  @DF-RHF Final Energy:  -599.01751641827923

   => Energetics <=

    Nuclear Repulsion Energy =              0.0000000000000000
    One-Electron Energy =                -819.7319934956462930
    Two-Electron Energy =                 220.7144770773670075
    Total Energy =                       -599.0175164182792287

Computation Completed


Properties will be evaluated at   0.000000,   0.000000,   0.000000 [a0]

Properties computed using the SCF density matrix


 Multipole Moments:

 ------------------------------------------------------------------------------------
     Multipole            Electronic (a.u.)      Nuclear  (a.u.)        Total (a.u.)
 ------------------------------------------------------------------------------------

 L = 1.  Multiply by 2.5417464519 to convert [e a0] to [Debye]
 Dipole X            :         -0.0000798            0.0000000           -0.0000798
 Dipole Y            :         -0.0001266            0.0000000           -0.0001266
 Dipole Z            :          0.0000112            0.0000000            0.0000112
 Magnitude           :                                                    0.0001501

 ------------------------------------------------------------------------------------

*** tstop() called on moses-razer at Wed Jan 24 15:22:07 2024
Module time:
	user time   =      72.65 seconds =       1.21 minutes
	system time =       5.06 seconds =       0.08 minutes
	total time  =         20 seconds =       0.33 minutes
Total time:
	user time   =      72.65 seconds =       1.21 minutes
	system time =       5.06 seconds =       0.08 minutes
	total time  =         20 seconds =       0.33 minutes

*** tstart() called on moses-razer
*** at Wed Jan 24 15:22:07 2024


  //>>>>>>>>>>>>>>>>>>>>>>>>>>>>>>>>>>>//
  //               DFMP2               //
  //<<<<<<<<<<<<<<<<<<<<<<<<<<<<<<<<<<<//

   => Loading Basis Set <=

    Name: (AUG-CC-PVTZ AUX)
    Role: RIFIT
    Keyword: DF_BASIS_MP2
    atoms 1                                   entry K          line  1282 file /home/kchung25/anaconda3/envs/p415env/share/psi4/basis/def2-qzvpp-ri.gbs 
    atoms 2, 5, 8, 11, 14, 17                 entry O          line   264 file /home/kchung25/anaconda3/envs/p415env/share/psi4/basis/aug-cc-pvtz-ri.gbs 
    atoms 3-4, 6-7, 9-10, 12-13, 15-16, 18-19 entry H          line    30 file /home/kchung25/anaconda3/envs/p415env/share/psi4/basis/aug-cc-pvtz-ri.gbs 

	 --------------------------------------------------------
	                          DF-MP2                         
	      2nd-Order Density-Fitted Moller-Plesset Theory     
	              RMP2 Wavefunction,   6 Threads             
	                                                         
	        Rob Parrish, Justin Turney, Andy Simmonett,      
	           Ed Hohenstein, and C. David Sherrill          
	 --------------------------------------------------------

   => Auxiliary Basis Set <=

  Basis Set: (AUG-CC-PVTZ AUX)
    Blend: AUG-CC-PVTZ-RI + DEF2-QZVPP-RI
    Number of shells: 385
    Number of basis functions: 1387
    Number of Cartesian functions: 1738
    Spherical Harmonics?: true
    Max angular momentum: 4

	 --------------------------------------------------------
	                 NBF =   611, NAUX =  1387
	 --------------------------------------------------------
	   CLASS    FOCC     OCC    AOCC    AVIR     VIR    FVIR
	   PAIRS       0       9       9     602     602       0
	 --------------------------------------------------------

	-----------------------------------------------------------
	 ==================> DF-MP2 Energies <==================== 
	-----------------------------------------------------------
	 Reference Energy          =    -599.0175164182792287 [Eh]
	 Singles Energy            =      -0.0000000000000000 [Eh]
	 Same-Spin Energy          =      -0.0372222492872874 [Eh]
	 Opposite-Spin Energy      =      -0.0906156929747908 [Eh]
	 Correlation Energy        =      -0.1278379422620783 [Eh]
	 Total Energy              =    -599.1453543605413188 [Eh]
	-----------------------------------------------------------
	 ================> DF-SCS-MP2 Energies <================== 
	-----------------------------------------------------------
	 SCS Same-Spin Scale       =       0.3333333333333333 [-]
	 SCS Opposite-Spin Scale   =       1.2000000000000000 [-]
	 SCS Same-Spin Energy      =      -0.0124074164290958 [Eh]
	 SCS Opposite-Spin Energy  =      -0.1087388315697490 [Eh]
	 SCS Correlation Energy    =      -0.1211462479988448 [Eh]
	 SCS Total Energy          =    -599.1386626662780372 [Eh]
	-----------------------------------------------------------


*** tstop() called on moses-razer at Wed Jan 24 15:22:18 2024
Module time:
	user time   =      27.53 seconds =       0.46 minutes
	system time =       2.03 seconds =       0.03 minutes
	total time  =         11 seconds =       0.18 minutes
Total time:
	user time   =     100.18 seconds =       1.67 minutes
	system time =       7.09 seconds =       0.12 minutes
	total time  =         31 seconds =       0.52 minutes

    Psi4 stopped on: Wednesday, 24 January 2024 03:22PM
    Psi4 wall time for execution: 0:00:31.72

*** Psi4 exiting successfully. Buy a developer a beer!
