
    -----------------------------------------------------------------------
          Psi4: An Open-Source Ab Initio Electronic Structure Package
                               Psi4 1.9 release

                         Git: Rev {} zzzzzzz 


    D. G. A. Smith, L. A. Burns, A. C. Simmonett, R. M. Parrish,
    M. C. Schieber, R. Galvelis, P. Kraus, H. Kruse, R. Di Remigio,
    A. Alenaizan, A. M. James, S. Lehtola, J. P. Misiewicz, M. Scheurer,
    R. A. Shaw, J. B. Schriber, Y. Xie, Z. L. Glick, D. A. Sirianni,
    J. S. O'Brien, J. M. Waldrop, A. Kumar, E. G. Hohenstein,
    B. P. Pritchard, B. R. Brooks, H. F. Schaefer III, A. Yu. Sokolov,
    K. Patkowski, A. E. DePrince III, U. Bozkaya, R. A. King,
    F. A. Evangelista, J. M. Turney, T. D. Crawford, C. D. Sherrill,
    J. Chem. Phys. 152(18) 184108 (2020). https://doi.org/10.1063/5.0006002

                            Additional Code Authors
    E. T. Seidl, C. L. Janssen, E. F. Valeev, M. L. Leininger,
    J. F. Gonthier, R. M. Richard, H. R. McAlexander, M. Saitow, X. Wang,
    P. Verma, M. H. Lechner, A. Jiang, S. Behnle, A. G. Heide,
    M. F. Herbst, and D. L. Poole

             Previous Authors, Complete List of Code Contributors,
                       and Citations for Specific Modules
    https://github.com/psi4/psi4/blob/master/codemeta.json
    https://github.com/psi4/psi4/graphs/contributors
    http://psicode.org/psi4manual/master/introduction.html#citing-psifour

    -----------------------------------------------------------------------


    Psi4 started on: Wednesday, 24 January 2024 05:43PM

    Process ID: 1246546
    Host:       moses-razer
    PSIDATADIR: /home/kchung25/anaconda3/envs/psi4_19/share/psi4
    Memory:     500.0 MiB
    Threads:    6
    
  ==> Input File <==

--------------------------------------------------------------------------
MEMORY 60 GB

molecule dimer {
0 1
Gh(K)      0.000000     0.000000     0.000000
Gh(O)     -2.854442     0.584840    -0.122179
Gh(H)     -3.265333    -0.153361     0.306368
Gh(H)     -3.159443     1.375887     0.435029
Gh(O)      1.793507     2.390251     0.448386
Gh(H)      1.484797     2.937877    -0.247414
Gh(H)      2.760113     2.530882     0.485450
O         -0.012318     1.515708    -2.116487
H         -0.444712     1.661309    -2.931489
H          0.234305     2.352957    -1.751290
Gh(O)     -0.359420    -0.604796     2.633990
Gh(H)      0.279877    -0.081645     3.137778
Gh(H)     -0.226378    -1.549243     2.698047
Gh(O)      2.595565    -1.054409     0.246960
Gh(H)      2.113393    -1.851888    -0.056301
Gh(H)      3.361367    -1.381693     0.744870
Gh(O)      0.402821    -2.381732    -1.341749
Gh(H)     -0.585953    -2.453448    -1.264600
Gh(H)      0.751084    -2.951825    -2.024247

units ang
no_reorient
no_com
symmetry c1
}

set {
basis        aug-cc-pVTZ
scf_type     df
}

energy("mp2")
--------------------------------------------------------------------------

  Memory set to  55.879 GiB by Python driver.

Scratch directory: /scratch/
   => Libint2 <=

    Primary   basis highest AM E, G, H:  5, 4, 3
    Auxiliary basis highest AM E, G, H:  6, 5, 4
    Onebody   basis highest AM E, G, H:  6, 5, 4
    Solid Harmonics ordering:            gaussian

*** tstart() called on moses-razer
*** at Wed Jan 24 17:43:23 2024

   => Loading Basis Set <=

    Name: AUG-CC-PVTZ
    Role: ORBITAL
    Keyword: BASIS
    atoms 1                                   entry K          line  1152 file /home/kchung25/anaconda3/envs/p415env/share/psi4/basis/aug-cc-pvtz.gbs 
    atoms 2, 5, 8, 11, 14, 17                 entry O          line   331 file /home/kchung25/anaconda3/envs/p415env/share/psi4/basis/aug-cc-pvtz.gbs 
    atoms 3-4, 6-7, 9-10, 12-13, 15-16, 18-19 entry H          line    40 file /home/kchung25/anaconda3/envs/p415env/share/psi4/basis/aug-cc-pvtz.gbs 


         ---------------------------------------------------------
                                   SCF
               by Justin Turney, Rob Parrish, Andy Simmonett
                          and Daniel G. A. Smith
                              RHF Reference
                        6 Threads,  57220 MiB Core
         ---------------------------------------------------------

  ==> Geometry <==

    Molecular point group: c1
    Full point group: C1

    Geometry (in Angstrom), charge = 0, multiplicity = 1:

       Center              X                  Y                   Z               Mass       
    ------------   -----------------  -----------------  -----------------  -----------------
      Gh(K)           0.000000000000     0.000000000000     0.000000000000    38.963706486400
      Gh(O)          -2.854442000000     0.584840000000    -0.122179000000    15.994914619570
      Gh(H)          -3.265333000000    -0.153361000000     0.306368000000     1.007825032230
      Gh(H)          -3.159443000000     1.375887000000     0.435029000000     1.007825032230
      Gh(O)           1.793507000000     2.390251000000     0.448386000000    15.994914619570
      Gh(H)           1.484797000000     2.937877000000    -0.247414000000     1.007825032230
      Gh(H)           2.760113000000     2.530882000000     0.485450000000     1.007825032230
         O           -0.012318000000     1.515708000000    -2.116487000000    15.994914619570
         H           -0.444712000000     1.661309000000    -2.931489000000     1.007825032230
         H            0.234305000000     2.352957000000    -1.751290000000     1.007825032230
      Gh(O)          -0.359420000000    -0.604796000000     2.633990000000    15.994914619570
      Gh(H)           0.279877000000    -0.081645000000     3.137778000000     1.007825032230
      Gh(H)          -0.226378000000    -1.549243000000     2.698047000000     1.007825032230
      Gh(O)           2.595565000000    -1.054409000000     0.246960000000    15.994914619570
      Gh(H)           2.113393000000    -1.851888000000    -0.056301000000     1.007825032230
      Gh(H)           3.361367000000    -1.381693000000     0.744870000000     1.007825032230
      Gh(O)           0.402821000000    -2.381732000000    -1.341749000000    15.994914619570
      Gh(H)          -0.585953000000    -2.453448000000    -1.264600000000     1.007825032230
      Gh(H)           0.751084000000    -2.951825000000    -2.024247000000     1.007825032230

  Running in c1 symmetry.

  Rotational constants: A =      0.03114  B =      0.02839  C =      0.02615 [cm^-1]
  Rotational constants: A =    933.41646  B =    851.15132  C =    783.99644 [MHz]
  Nuclear repulsion =    9.353393600286644

  Charge       = 0
  Multiplicity = 1
  Electrons    = 10
  Nalpha       = 5
  Nbeta        = 5

  ==> Algorithm <==

  SCF Algorithm Type is DF.
  DIIS enabled.
  MOM disabled.
  Fractional occupation disabled.
  Guess Type is SAD.
  Energy threshold   = 1.00e-08
  Density threshold  = 1.00e-08
  Integral threshold = 1.00e-12

  ==> Primary Basis <==

  Basis Set: AUG-CC-PVTZ
    Blend: AUG-CC-PVTZ
    Number of shells: 211
    Number of basis functions: 611
    Number of Cartesian functions: 699
    Spherical Harmonics?: true
    Max angular momentum: 3

   => Loading Basis Set <=

    Name: (AUG-CC-PVTZ AUX)
    Role: JKFIT
    Keyword: DF_BASIS_SCF
    atoms 1                                   entry K          line  1152 file /home/kchung25/anaconda3/envs/p415env/share/psi4/basis/def2-universal-jkfit.gbs 
    atoms 2, 5, 8, 11, 14, 17                 entry O          line   286 file /home/kchung25/anaconda3/envs/p415env/share/psi4/basis/aug-cc-pvtz-jkfit.gbs 
    atoms 3-4, 6-7, 9-10, 12-13, 15-16, 18-19 entry H          line    70 file /home/kchung25/anaconda3/envs/p415env/share/psi4/basis/aug-cc-pvtz-jkfit.gbs 

  ==> Integral Setup <==

  DFHelper Memory: AOs need 3.319 GiB; user supplied 41.910 GiB. 
  Using in-core AOs.

  ==> MemDFJK: Density-Fitted J/K Matrices <==

    J tasked:                   Yes
    K tasked:                   Yes
    wK tasked:                   No
    OpenMP threads:               6
    Memory [MiB]:             42915
    Algorithm:                 Core
    Schwarz Cutoff:           1E-12
    Mask sparsity (%):      13.5165
    Fitting Condition:        1E-10

   => Auxiliary Basis Set <=

  Basis Set: (AUG-CC-PVTZ AUX)
    Blend: AUG-CC-PVTZ-JKFIT + DEF2-UNIVERSAL-JKFIT
    Number of shells: 392
    Number of basis functions: 1336
    Number of Cartesian functions: 1649
    Spherical Harmonics?: true
    Max angular momentum: 4

  Minimum eigenvalue in the overlap matrix is 4.7810785578E-05.
  Reciprocal condition number of the overlap matrix is 3.3337357015E-06.
    Using symmetric orthogonalization.

  ==> Pre-Iterations <==

  SCF Guess: Superposition of Atomic Densities via on-the-fly atomic UHF (no occupation information).

   -------------------------
    Irrep   Nso     Nmo    
   -------------------------
     A        611     611 
   -------------------------
    Total     611     611
   -------------------------

  ==> Iterations <==

                           Total Energy        Delta E     RMS |[F,P]|

   @DF-RHF iter SAD:   -75.49328348254619   -7.54933e+01   0.00000e+00 
   @DF-RHF iter   1:   -75.97778594855031   -4.84502e-01   7.70546e-04 DIIS/ADIIS
   @DF-RHF iter   2:   -76.03084091424276   -5.30550e-02   5.12092e-04 DIIS/ADIIS
   @DF-RHF iter   3:   -76.06068064921249   -2.98397e-02   3.46908e-05 DIIS
   @DF-RHF iter   4:   -76.06104869987576   -3.68051e-04   7.95570e-06 DIIS
   @DF-RHF iter   5:   -76.06106931535220   -2.06155e-05   1.75579e-06 DIIS
   @DF-RHF iter   6:   -76.06107094251762   -1.62717e-06   3.88362e-07 DIIS
   @DF-RHF iter   7:   -76.06107103219016   -8.96725e-08   7.52019e-08 DIIS
   @DF-RHF iter   8:   -76.06107103522200   -3.03184e-09   1.22457e-08 DIIS
   @DF-RHF iter   9:   -76.06107103528451   -6.25135e-11   2.93118e-09 DIIS
  Energy and wave function converged.


  ==> Post-Iterations <==

    Orbital Energies [Eh]
    ---------------------

    Doubly Occupied:                                                      

       1A    -20.562178     2A     -1.359610     3A     -0.735394  
       4A     -0.580051     5A     -0.510614  

    Virtual:                                                              

       6A      0.006904     7A      0.009486     8A      0.009987  
       9A      0.010644    10A      0.017683    11A      0.018062  
      12A      0.018343    13A      0.018769    14A      0.019038  
      15A      0.031557    16A      0.034095    17A      0.035599  
      18A      0.039270    19A      0.054975    20A      0.056018  
      21A      0.058107    22A      0.059128    23A      0.062563  
      24A      0.070509    25A      0.073893    26A      0.074360  
      27A      0.074620    28A      0.077249    29A      0.080489  
      30A      0.084013    31A      0.086969    32A      0.093507  
      33A      0.095456    34A      0.098519    35A      0.105013  
      36A      0.106442    37A      0.118790    38A      0.128261  
      39A      0.142809    40A      0.144563    41A      0.146913  
      42A      0.152609    43A      0.159550    44A      0.163311  
      45A      0.163411    46A      0.170667    47A      0.172933  
      48A      0.181816    49A      0.183029    50A      0.186198  
      51A      0.187153    52A      0.195584    53A      0.199284  
      54A      0.203793    55A      0.210471    56A      0.215973  
      57A      0.227060    58A      0.228166    59A      0.232913  
      60A      0.236834    61A      0.241426    62A      0.246203  
      63A      0.251146    64A      0.254963    65A      0.260082  
      66A      0.272278    67A      0.275094    68A      0.285312  
      69A      0.291914    70A      0.295234    71A      0.300692  
      72A      0.308054    73A      0.316334    74A      0.319090  
      75A      0.323868    76A      0.330986    77A      0.337119  
      78A      0.341790    79A      0.349793    80A      0.354012  
      81A      0.357709    82A      0.360283    83A      0.366917  
      84A      0.376357    85A      0.377508    86A      0.382306  
      87A      0.391972    88A      0.394658    89A      0.396677  
      90A      0.404299    91A      0.406450    92A      0.412878  
      93A      0.415916    94A      0.425107    95A      0.430497  
      96A      0.433890    97A      0.434942    98A      0.438007  
      99A      0.444830   100A      0.446779   101A      0.448680  
     102A      0.452426   103A      0.456129   104A      0.466631  
     105A      0.470835   106A      0.476240   107A      0.477825  
     108A      0.480711   109A      0.485135   110A      0.496054  
     111A      0.498894   112A      0.503335   113A      0.506753  
     114A      0.515766   115A      0.519353   116A      0.527548  
     117A      0.534064   118A      0.535452   119A      0.538803  
     120A      0.552984   121A      0.554311   122A      0.567556  
     123A      0.572155   124A      0.575034   125A      0.588525  
     126A      0.592753   127A      0.612521   128A      0.614338  
     129A      0.633402   130A      0.638124   131A      0.641865  
     132A      0.663974   133A      0.682050   134A      0.701615  
     135A      0.726568   136A      0.731127   137A      0.745276  
     138A      0.758112   139A      0.763844   140A      0.767539  
     141A      0.775060   142A      0.788315   143A      0.798851  
     144A      0.803299   145A      0.803917   146A      0.806817  
     147A      0.815980   148A      0.825276   149A      0.830302  
     150A      0.836602   151A      0.842022   152A      0.847063  
     153A      0.854813   154A      0.862647   155A      0.867657  
     156A      0.875104   157A      0.879115   158A      0.887806  
     159A      0.889528   160A      0.893965   161A      0.899774  
     162A      0.905219   163A      0.912842   164A      0.919538  
     165A      0.922831   166A      0.930184   167A      0.931958  
     168A      0.940904   169A      0.944728   170A      0.948159  
     171A      0.953674   172A      0.964442   173A      0.971945  
     174A      0.975826   175A      0.982444   176A      0.987185  
     177A      0.988162   178A      0.993271   179A      1.004935  
     180A      1.011451   181A      1.015037   182A      1.019557  
     183A      1.028613   184A      1.033106   185A      1.036873  
     186A      1.045956   187A      1.049546   188A      1.050164  
     189A      1.061125   190A      1.066766   191A      1.071575  
     192A      1.078064   193A      1.080794   194A      1.089429  
     195A      1.094291   196A      1.095484   197A      1.102634  
     198A      1.104618   199A      1.118101   200A      1.119815  
     201A      1.123853   202A      1.131179   203A      1.134095  
     204A      1.145810   205A      1.156972   206A      1.158831  
     207A      1.165206   208A      1.172009   209A      1.174443  
     210A      1.192359   211A      1.194724   212A      1.198898  
     213A      1.203311   214A      1.208152   215A      1.213852  
     216A      1.227035   217A      1.232351   218A      1.235414  
     219A      1.236891   220A      1.248096   221A      1.260952  
     222A      1.262984   223A      1.278050   224A      1.279918  
     225A      1.283614   226A      1.290606   227A      1.300151  
     228A      1.306693   229A      1.313064   230A      1.323183  
     231A      1.335438   232A      1.339578   233A      1.347934  
     234A      1.352741   235A      1.356870   236A      1.377001  
     237A      1.389087   238A      1.403628   239A      1.419034  
     240A      1.421364   241A      1.435039   242A      1.451829  
     243A      1.479527   244A      1.487499   245A      1.492922  
     246A      1.507740   247A      1.510057   248A      1.533898  
     249A      1.538286   250A      1.543582   251A      1.570782  
     252A      1.574077   253A      1.595254   254A      1.600976  
     255A      1.615973   256A      1.628215   257A      1.652077  
     258A      1.669876   259A      1.703624   260A      1.713277  
     261A      1.721528   262A      1.750187   263A      1.772128  
     264A      1.788579   265A      1.796113   266A      1.810287  
     267A      1.821301   268A      1.823397   269A      1.830891  
     270A      1.832607   271A      1.843712   272A      1.853909  
     273A      1.869895   274A      1.873037   275A      1.881471  
     276A      1.882584   277A      1.894080   278A      1.909680  
     279A      1.911379   280A      1.924044   281A      1.934635  
     282A      1.950545   283A      1.966785   284A      1.983128  
     285A      1.988726   286A      1.999724   287A      2.007326  
     288A      2.021050   289A      2.046405   290A      2.056993  
     291A      2.074729   292A      2.083448   293A      2.102533  
     294A      2.159974   295A      2.245121   296A      2.256954  
     297A      2.312939   298A      2.334507   299A      2.359321  
     300A      2.372372   301A      2.384963   302A      2.412408  
     303A      2.420615   304A      2.427180   305A      2.441048  
     306A      2.461236   307A      2.476509   308A      2.487999  
     309A      2.505810   310A      2.514867   311A      2.523844  
     312A      2.530270   313A      2.544410   314A      2.553947  
     315A      2.556518   316A      2.566385   317A      2.569052  
     318A      2.585618   319A      2.589920   320A      2.605949  
     321A      2.611702   322A      2.617742   323A      2.619446  
     324A      2.623740   325A      2.638203   326A      2.640672  
     327A      2.656881   328A      2.657198   329A      2.666959  
     330A      2.675866   331A      2.680715   332A      2.702259  
     333A      2.711242   334A      2.733377   335A      2.738707  
     336A      2.750320   337A      2.759213   338A      2.771097  
     339A      2.791913   340A      2.806943   341A      2.821823  
     342A      2.831860   343A      2.836939   344A      2.863494  
     345A      2.874470   346A      2.888220   347A      2.899197  
     348A      2.922996   349A      2.943124   350A      2.952192  
     351A      2.963930   352A      2.966703   353A      2.989199  
     354A      2.991812   355A      2.999055   356A      3.015322  
     357A      3.030321   358A      3.056394   359A      3.080113  
     360A      3.139380   361A      3.159428   362A      3.201031  
     363A      3.206922   364A      3.211629   365A      3.234439  
     366A      3.245877   367A      3.250364   368A      3.259992  
     369A      3.271208   370A      3.276189   371A      3.292520  
     372A      3.300478   373A      3.307607   374A      3.343013  
     375A      3.348170   376A      3.356961   377A      3.372379  
     378A      3.378724   379A      3.381377   380A      3.390446  
     381A      3.398888   382A      3.430728   383A      3.441825  
     384A      3.458577   385A      3.474654   386A      3.553867  
     387A      3.581041   388A      3.626510   389A      3.641896  
     390A      3.678064   391A      3.698535   392A      3.727577  
     393A      3.733081   394A      3.755574   395A      3.774789  
     396A      3.803286   397A      3.841347   398A      3.877494  
     399A      4.001974   400A      4.109515   401A      4.303345  
     402A      4.336865   403A      4.346642   404A      4.368247  
     405A      4.387683   406A      4.400208   407A      4.409464  
     408A      4.418678   409A      4.430920   410A      4.480745  
     411A      4.485857   412A      4.501404   413A      4.515656  
     414A      4.526528   415A      4.544452   416A      4.551431  
     417A      4.553691   418A      4.565717   419A      4.577119  
     420A      4.580155   421A      4.599283   422A      4.613243  
     423A      4.623867   424A      4.642054   425A      4.649827  
     426A      4.668046   427A      4.676195   428A      4.686853  
     429A      4.700742   430A      4.704288   431A      4.730424  
     432A      4.732648   433A      4.738702   434A      4.767128  
     435A      4.789618   436A      4.849753   437A      4.859444  
     438A      4.890504   439A      4.915315   440A      4.931767  
     441A      4.945410   442A      4.955679   443A      4.973551  
     444A      4.977850   445A      4.979535   446A      4.989919  
     447A      5.007079   448A      5.017490   449A      5.032938  
     450A      5.044271   451A      5.062486   452A      5.070855  
     453A      5.084769   454A      5.112940   455A      5.166787  
     456A      5.188887   457A      5.206563   458A      5.222761  
     459A      5.232169   460A      5.241787   461A      5.302131  
     462A      5.354675   463A      5.397952   464A      5.470633  
     465A      5.479506   466A      5.490048   467A      5.493041  
     468A      5.515243   469A      5.542861   470A      5.572120  
     471A      5.577248   472A      5.583911   473A      5.592333  
     474A      5.607336   475A      5.614476   476A      5.641716  
     477A      5.701544   478A      5.710116   479A      5.722485  
     480A      5.740611   481A      5.785034   482A      5.825626  
     483A      5.839913   484A      5.866854   485A      5.888688  
     486A      5.931159   487A      6.154880   488A      6.161717  
     489A      6.182307   490A      6.199337   491A      6.213736  
     492A      6.289150   493A      6.298987   494A      6.314908  
     495A      6.363680   496A      6.427291   497A      6.453228  
     498A      6.549564   499A      6.644891   500A      6.708818  
     501A      6.717936   502A      6.797345   503A      6.830936  
     504A      6.881964   505A      6.958289   506A      7.049665  
     507A      7.066112   508A      7.100001   509A      7.127265  
     510A      7.134401   511A      7.230684   512A      7.347351  
     513A      7.391677   514A      7.451107   515A      7.474044  
     516A      7.484308   517A      7.683646   518A      7.689552  
     519A      7.719897   520A      7.751104   521A      7.755612  
     522A      7.764194   523A      7.774061   524A      7.830521  
     525A      7.834464   526A      7.850571   527A      7.871826  
     528A      7.999345   529A      8.048218   530A      8.078438  
     531A      8.095428   532A      8.107741   533A      8.124787  
     534A      8.134521   535A      8.179181   536A      8.196104  
     537A      8.220759   538A      8.262498   539A      8.263836  
     540A      8.285485   541A      8.296050   542A      8.300228  
     543A      8.338387   544A      8.346711   545A      8.649990  
     546A      8.743124   547A      8.764661   548A      8.772995  
     549A      8.784450   550A      8.802907   551A      8.817613  
     552A      8.865434   553A      8.884247   554A      8.908941  
     555A      8.933224   556A      9.760236   557A      9.798208  
     558A      9.837182   559A      9.885758   560A      9.898940  
     561A      9.926362   562A      9.952984   563A      9.960289  
     564A      9.965794   565A      9.975133   566A     10.041939  
     567A     10.047556   568A     10.059538   569A     10.066527  
     570A     10.073103   571A     10.156691   572A     10.189396  
     573A     10.242094   574A     10.265908   575A     10.343924  
     576A     10.498094   577A     11.027695   578A     11.059012  
     579A     11.114182   580A     11.150511   581A     11.207588  
     582A     11.689579   583A     11.701770   584A     11.733883  
     585A     11.760443   586A     11.772630   587A     12.042265  
     588A     12.078435   589A     12.208354   590A     12.240941  
     591A     12.281197   592A     13.461112   593A     13.536214  
     594A     13.557819   595A     13.607154   596A     13.636007  
     597A     13.901806   598A     13.905279   599A     13.920895  
     600A     13.936504   601A     13.994802   602A     16.967642  
     603A     31.119881   604A     31.334422   605A     31.427058  
     606A     64.032125   607A     64.516883   608A     65.012463  
     609A     65.440911   610A     65.506363   611A    198.283737  

    Final Occupation by Irrep:
              A 
    DOCC [     5 ]
    NA   [     5 ]
    NB   [     5 ]

  @DF-RHF Final Energy:   -76.06107103528451

   => Energetics <=

    Nuclear Repulsion Energy =              9.3533936002866440
    One-Electron Energy =                -123.3332320166424552
    Two-Electron Energy =                  37.9187673810713122
    Total Energy =                        -76.0610710352844990

Computation Completed


Properties will be evaluated at   0.000000,   0.000000,   0.000000 [a0]

Properties computed using the SCF density matrix


 Multipole Moments:

 ------------------------------------------------------------------------------------
     Multipole            Electronic (a.u.)      Nuclear  (a.u.)        Total (a.u.)
 ------------------------------------------------------------------------------------

 L = 1.  Multiply by 2.5417464519 to convert [e a0] to [Debye]
 Dipole X            :          0.4567232           -0.5838328           -0.1271096
 Dipole Y            :        -29.8315930           30.5000474            0.6684544
 Dipole Z            :         40.5378767          -40.8458160           -0.3079394
 Magnitude           :                                                    0.7468700

 ------------------------------------------------------------------------------------

*** tstop() called on moses-razer at Wed Jan 24 17:43:40 2024
Module time:
	user time   =      64.05 seconds =       1.07 minutes
	system time =       3.13 seconds =       0.05 minutes
	total time  =         17 seconds =       0.28 minutes
Total time:
	user time   =      64.05 seconds =       1.07 minutes
	system time =       3.13 seconds =       0.05 minutes
	total time  =         17 seconds =       0.28 minutes

*** tstart() called on moses-razer
*** at Wed Jan 24 17:43:40 2024


  //>>>>>>>>>>>>>>>>>>>>>>>>>>>>>>>>>>>//
  //               DFMP2               //
  //<<<<<<<<<<<<<<<<<<<<<<<<<<<<<<<<<<<//

   => Loading Basis Set <=

    Name: (AUG-CC-PVTZ AUX)
    Role: RIFIT
    Keyword: DF_BASIS_MP2
    atoms 1                                   entry K          line  1282 file /home/kchung25/anaconda3/envs/p415env/share/psi4/basis/def2-qzvpp-ri.gbs 
    atoms 2, 5, 8, 11, 14, 17                 entry O          line   264 file /home/kchung25/anaconda3/envs/p415env/share/psi4/basis/aug-cc-pvtz-ri.gbs 
    atoms 3-4, 6-7, 9-10, 12-13, 15-16, 18-19 entry H          line    30 file /home/kchung25/anaconda3/envs/p415env/share/psi4/basis/aug-cc-pvtz-ri.gbs 

	 --------------------------------------------------------
	                          DF-MP2                         
	      2nd-Order Density-Fitted Moller-Plesset Theory     
	              RMP2 Wavefunction,   6 Threads             
	                                                         
	        Rob Parrish, Justin Turney, Andy Simmonett,      
	           Ed Hohenstein, and C. David Sherrill          
	 --------------------------------------------------------

   => Auxiliary Basis Set <=

  Basis Set: (AUG-CC-PVTZ AUX)
    Blend: AUG-CC-PVTZ-RI + DEF2-QZVPP-RI
    Number of shells: 385
    Number of basis functions: 1387
    Number of Cartesian functions: 1738
    Spherical Harmonics?: true
    Max angular momentum: 4

	 --------------------------------------------------------
	                 NBF =   611, NAUX =  1387
	 --------------------------------------------------------
	   CLASS    FOCC     OCC    AOCC    AVIR     VIR    FVIR
	   PAIRS       0       5       5     606     606       0
	 --------------------------------------------------------

	-----------------------------------------------------------
	 ==================> DF-MP2 Energies <==================== 
	-----------------------------------------------------------
	 Reference Energy          =     -76.0610710352845132 [Eh]
	 Singles Energy            =      -0.0000000000000000 [Eh]
	 Same-Spin Energy          =      -0.0680461712559770 [Eh]
	 Opposite-Spin Energy      =      -0.2146820446928138 [Eh]
	 Correlation Energy        =      -0.2827282159487908 [Eh]
	 Total Energy              =     -76.3437992512333068 [Eh]
	-----------------------------------------------------------
	 ================> DF-SCS-MP2 Energies <================== 
	-----------------------------------------------------------
	 SCS Same-Spin Scale       =       0.3333333333333333 [-]
	 SCS Opposite-Spin Scale   =       1.2000000000000000 [-]
	 SCS Same-Spin Energy      =      -0.0226820570853257 [Eh]
	 SCS Opposite-Spin Energy  =      -0.2576184536313765 [Eh]
	 SCS Correlation Energy    =      -0.2803005107167022 [Eh]
	 SCS Total Energy          =     -76.3413715460012128 [Eh]
	-----------------------------------------------------------


*** tstop() called on moses-razer at Wed Jan 24 17:43:50 2024
Module time:
	user time   =      23.99 seconds =       0.40 minutes
	system time =       1.81 seconds =       0.03 minutes
	total time  =         10 seconds =       0.17 minutes
Total time:
	user time   =      88.04 seconds =       1.47 minutes
	system time =       4.94 seconds =       0.08 minutes
	total time  =         27 seconds =       0.45 minutes

    Psi4 stopped on: Wednesday, 24 January 2024 05:43PM
    Psi4 wall time for execution: 0:00:26.67

*** Psi4 exiting successfully. Buy a developer a beer!
