
    -----------------------------------------------------------------------
          Psi4: An Open-Source Ab Initio Electronic Structure Package
                               Psi4 1.9 release

                         Git: Rev {} zzzzzzz 


    D. G. A. Smith, L. A. Burns, A. C. Simmonett, R. M. Parrish,
    M. C. Schieber, R. Galvelis, P. Kraus, H. Kruse, R. Di Remigio,
    A. Alenaizan, A. M. James, S. Lehtola, J. P. Misiewicz, M. Scheurer,
    R. A. Shaw, J. B. Schriber, Y. Xie, Z. L. Glick, D. A. Sirianni,
    J. S. O'Brien, J. M. Waldrop, A. Kumar, E. G. Hohenstein,
    B. P. Pritchard, B. R. Brooks, H. F. Schaefer III, A. Yu. Sokolov,
    K. Patkowski, A. E. DePrince III, U. Bozkaya, R. A. King,
    F. A. Evangelista, J. M. Turney, T. D. Crawford, C. D. Sherrill,
    J. Chem. Phys. 152(18) 184108 (2020). https://doi.org/10.1063/5.0006002

                            Additional Code Authors
    E. T. Seidl, C. L. Janssen, E. F. Valeev, M. L. Leininger,
    J. F. Gonthier, R. M. Richard, H. R. McAlexander, M. Saitow, X. Wang,
    P. Verma, M. H. Lechner, A. Jiang, S. Behnle, A. G. Heide,
    M. F. Herbst, and D. L. Poole

             Previous Authors, Complete List of Code Contributors,
                       and Citations for Specific Modules
    https://github.com/psi4/psi4/blob/master/codemeta.json
    https://github.com/psi4/psi4/graphs/contributors
    http://psicode.org/psi4manual/master/introduction.html#citing-psifour

    -----------------------------------------------------------------------


    Psi4 started on: Wednesday, 24 January 2024 04:23PM

    Process ID: 1235102
    Host:       moses-razer
    PSIDATADIR: /home/kchung25/anaconda3/envs/psi4_19/share/psi4
    Memory:     500.0 MiB
    Threads:    6
    
  ==> Input File <==

--------------------------------------------------------------------------
MEMORY 60 GB

molecule dimer {
0 1
Gh(K)      0.000000     0.000000     0.000000
O         -1.879920     2.131600     0.557926
H         -2.648079     2.548980     0.056049
H         -1.887437     2.455367     1.426203
Gh(O)      1.152182     1.581044    -1.769112
Gh(H)      1.909533     1.935900    -1.263555
Gh(H)      1.466093     1.448690    -2.624702
Gh(O)      0.223121    -2.711640     0.645294
Gh(H)      0.828753    -2.906869     1.403819
Gh(H)     -0.563140    -3.220153     0.851557
Gh(O)      1.524854     2.013421     1.098941
Gh(H)      1.225291     2.922636     1.209810
Gh(H)      2.238959     2.172119     0.523577
Gh(O)     -0.474255    -1.111893    -2.327802
Gh(H)     -1.177610    -1.416111    -2.945593
Gh(H)      0.329445    -1.642755    -2.406746
Gh(O)     -2.305451    -0.792312     1.710421
Gh(H)     -2.440067    -1.648183     2.196214
Gh(H)     -2.692466    -0.773457     0.838942

units ang
no_reorient
no_com
symmetry c1
}

set {
basis        aug-cc-pVTZ
scf_type     df
}

energy("mp2")
--------------------------------------------------------------------------

  Memory set to  55.879 GiB by Python driver.

Scratch directory: /scratch/
   => Libint2 <=

    Primary   basis highest AM E, G, H:  5, 4, 3
    Auxiliary basis highest AM E, G, H:  6, 5, 4
    Onebody   basis highest AM E, G, H:  6, 5, 4
    Solid Harmonics ordering:            gaussian

*** tstart() called on moses-razer
*** at Wed Jan 24 16:23:39 2024

   => Loading Basis Set <=

    Name: AUG-CC-PVTZ
    Role: ORBITAL
    Keyword: BASIS
    atoms 1                                   entry K          line  1152 file /home/kchung25/anaconda3/envs/p415env/share/psi4/basis/aug-cc-pvtz.gbs 
    atoms 2, 5, 8, 11, 14, 17                 entry O          line   331 file /home/kchung25/anaconda3/envs/p415env/share/psi4/basis/aug-cc-pvtz.gbs 
    atoms 3-4, 6-7, 9-10, 12-13, 15-16, 18-19 entry H          line    40 file /home/kchung25/anaconda3/envs/p415env/share/psi4/basis/aug-cc-pvtz.gbs 


         ---------------------------------------------------------
                                   SCF
               by Justin Turney, Rob Parrish, Andy Simmonett
                          and Daniel G. A. Smith
                              RHF Reference
                        6 Threads,  57220 MiB Core
         ---------------------------------------------------------

  ==> Geometry <==

    Molecular point group: c1
    Full point group: C1

    Geometry (in Angstrom), charge = 0, multiplicity = 1:

       Center              X                  Y                   Z               Mass       
    ------------   -----------------  -----------------  -----------------  -----------------
      Gh(K)           0.000000000000     0.000000000000     0.000000000000    38.963706486400
         O           -1.879920000000     2.131600000000     0.557926000000    15.994914619570
         H           -2.648079000000     2.548980000000     0.056049000000     1.007825032230
         H           -1.887437000000     2.455367000000     1.426203000000     1.007825032230
      Gh(O)           1.152182000000     1.581044000000    -1.769112000000    15.994914619570
      Gh(H)           1.909533000000     1.935900000000    -1.263555000000     1.007825032230
      Gh(H)           1.466093000000     1.448690000000    -2.624702000000     1.007825032230
      Gh(O)           0.223121000000    -2.711640000000     0.645294000000    15.994914619570
      Gh(H)           0.828753000000    -2.906869000000     1.403819000000     1.007825032230
      Gh(H)          -0.563140000000    -3.220153000000     0.851557000000     1.007825032230
      Gh(O)           1.524854000000     2.013421000000     1.098941000000    15.994914619570
      Gh(H)           1.225291000000     2.922636000000     1.209810000000     1.007825032230
      Gh(H)           2.238959000000     2.172119000000     0.523577000000     1.007825032230
      Gh(O)          -0.474255000000    -1.111893000000    -2.327802000000    15.994914619570
      Gh(H)          -1.177610000000    -1.416111000000    -2.945593000000     1.007825032230
      Gh(H)           0.329445000000    -1.642755000000    -2.406746000000     1.007825032230
      Gh(O)          -2.305451000000    -0.792312000000     1.710421000000    15.994914619570
      Gh(H)          -2.440067000000    -1.648183000000     2.196214000000     1.007825032230
      Gh(H)          -2.692466000000    -0.773457000000     0.838942000000     1.007825032230

  Running in c1 symmetry.

  Rotational constants: A =      0.03574  B =      0.02966  C =      0.02362 [cm^-1]
  Rotational constants: A =   1071.52148  B =    889.08615  C =    708.25938 [MHz]
  Nuclear repulsion =    9.104939019683091

  Charge       = 0
  Multiplicity = 1
  Electrons    = 10
  Nalpha       = 5
  Nbeta        = 5

  ==> Algorithm <==

  SCF Algorithm Type is DF.
  DIIS enabled.
  MOM disabled.
  Fractional occupation disabled.
  Guess Type is SAD.
  Energy threshold   = 1.00e-08
  Density threshold  = 1.00e-08
  Integral threshold = 1.00e-12

  ==> Primary Basis <==

  Basis Set: AUG-CC-PVTZ
    Blend: AUG-CC-PVTZ
    Number of shells: 211
    Number of basis functions: 611
    Number of Cartesian functions: 699
    Spherical Harmonics?: true
    Max angular momentum: 3

   => Loading Basis Set <=

    Name: (AUG-CC-PVTZ AUX)
    Role: JKFIT
    Keyword: DF_BASIS_SCF
    atoms 1                                   entry K          line  1152 file /home/kchung25/anaconda3/envs/p415env/share/psi4/basis/def2-universal-jkfit.gbs 
    atoms 2, 5, 8, 11, 14, 17                 entry O          line   286 file /home/kchung25/anaconda3/envs/p415env/share/psi4/basis/aug-cc-pvtz-jkfit.gbs 
    atoms 3-4, 6-7, 9-10, 12-13, 15-16, 18-19 entry H          line    70 file /home/kchung25/anaconda3/envs/p415env/share/psi4/basis/aug-cc-pvtz-jkfit.gbs 

  ==> Integral Setup <==

  DFHelper Memory: AOs need 3.328 GiB; user supplied 41.910 GiB. 
  Using in-core AOs.

  ==> MemDFJK: Density-Fitted J/K Matrices <==

    J tasked:                   Yes
    K tasked:                   Yes
    wK tasked:                   No
    OpenMP threads:               6
    Memory [MiB]:             42915
    Algorithm:                 Core
    Schwarz Cutoff:           1E-12
    Mask sparsity (%):      13.2770
    Fitting Condition:        1E-10

   => Auxiliary Basis Set <=

  Basis Set: (AUG-CC-PVTZ AUX)
    Blend: AUG-CC-PVTZ-JKFIT + DEF2-UNIVERSAL-JKFIT
    Number of shells: 392
    Number of basis functions: 1336
    Number of Cartesian functions: 1649
    Spherical Harmonics?: true
    Max angular momentum: 4

  Minimum eigenvalue in the overlap matrix is 4.3925622284E-05.
  Reciprocal condition number of the overlap matrix is 3.0178416757E-06.
    Using symmetric orthogonalization.

  ==> Pre-Iterations <==

  SCF Guess: Superposition of Atomic Densities via on-the-fly atomic UHF (no occupation information).

   -------------------------
    Irrep   Nso     Nmo    
   -------------------------
     A        611     611 
   -------------------------
    Total     611     611
   -------------------------

  ==> Iterations <==

                           Total Energy        Delta E     RMS |[F,P]|

   @DF-RHF iter SAD:   -75.46085830152801   -7.54609e+01   0.00000e+00 
   @DF-RHF iter   1:   -75.97133602792967   -5.10478e-01   7.68811e-04 DIIS/ADIIS
   @DF-RHF iter   2:   -76.02388915501764   -5.25531e-02   5.27764e-04 DIIS/ADIIS
   @DF-RHF iter   3:   -76.05603517859748   -3.21460e-02   3.60700e-05 DIIS
   @DF-RHF iter   4:   -76.05645357771087   -4.18399e-04   8.91561e-06 DIIS
   @DF-RHF iter   5:   -76.05648161128822   -2.80336e-05   2.08767e-06 DIIS
   @DF-RHF iter   6:   -76.05648406500272   -2.45371e-06   4.74537e-07 DIIS
   @DF-RHF iter   7:   -76.05648420394354   -1.38941e-07   8.75058e-08 DIIS
   @DF-RHF iter   8:   -76.05648420805953   -4.11599e-09   1.48939e-08 DIIS
   @DF-RHF iter   9:   -76.05648420815669   -9.71596e-11   3.94096e-09 DIIS
  Energy and wave function converged.


  ==> Post-Iterations <==

    Orbital Energies [Eh]
    ---------------------

    Doubly Occupied:                                                      

       1A    -20.566707     2A     -1.347224     3A     -0.719921  
       4A     -0.574920     5A     -0.508445  

    Virtual:                                                              

       6A      0.007048     7A      0.009705     8A      0.010012  
       9A      0.010621    10A      0.017842    11A      0.017955  
      12A      0.018493    13A      0.018718    14A      0.018948  
      15A      0.032127    16A      0.034714    17A      0.035095  
      18A      0.039909    19A      0.054745    20A      0.056688  
      21A      0.059104    22A      0.059534    23A      0.060355  
      24A      0.069540    25A      0.072339    26A      0.074935  
      27A      0.076914    28A      0.078391    29A      0.079756  
      30A      0.081714    31A      0.085937    32A      0.090196  
      33A      0.095029    34A      0.097862    35A      0.101543  
      36A      0.107501    37A      0.123026    38A      0.130282  
      39A      0.138036    40A      0.147027    41A      0.149650  
      42A      0.157008    43A      0.164879    44A      0.166427  
      45A      0.169454    46A      0.172841    47A      0.175414  
      48A      0.180490    49A      0.185008    50A      0.188540  
      51A      0.192181    52A      0.194354    53A      0.199646  
      54A      0.206727    55A      0.210095    56A      0.212312  
      57A      0.217373    58A      0.223040    59A      0.228544  
      60A      0.236950    61A      0.237223    62A      0.249207  
      63A      0.252431    64A      0.256517    65A      0.260180  
      66A      0.268386    67A      0.272516    68A      0.283944  
      69A      0.285229    70A      0.298615    71A      0.304958  
      72A      0.306227    73A      0.319835    74A      0.331091  
      75A      0.334794    76A      0.342426    77A      0.342592  
      78A      0.348336    79A      0.350955    80A      0.358587  
      81A      0.361228    82A      0.364910    83A      0.370876  
      84A      0.376456    85A      0.381053    86A      0.389100  
      87A      0.389757    88A      0.395824    89A      0.400983  
      90A      0.404860    91A      0.409703    92A      0.411477  
      93A      0.415264    94A      0.422985    95A      0.429271  
      96A      0.433202    97A      0.434331    98A      0.437185  
      99A      0.444260   100A      0.445424   101A      0.448767  
     102A      0.458449   103A      0.461670   104A      0.464623  
     105A      0.466361   106A      0.471826   107A      0.479504  
     108A      0.485741   109A      0.491717   110A      0.492140  
     111A      0.502133   112A      0.505292   113A      0.509195  
     114A      0.509910   115A      0.513679   116A      0.520254  
     117A      0.523731   118A      0.529654   119A      0.533903  
     120A      0.537984   121A      0.545997   122A      0.555909  
     123A      0.561675   124A      0.568734   125A      0.581107  
     126A      0.592905   127A      0.606973   128A      0.628532  
     129A      0.634070   130A      0.640823   131A      0.659417  
     132A      0.669075   133A      0.693861   134A      0.700486  
     135A      0.716360   136A      0.718909   137A      0.730391  
     138A      0.754990   139A      0.766107   140A      0.770901  
     141A      0.778311   142A      0.784907   143A      0.796260  
     144A      0.803731   145A      0.812321   146A      0.817648  
     147A      0.820606   148A      0.828563   149A      0.840041  
     150A      0.844059   151A      0.846212   152A      0.852957  
     153A      0.855515   154A      0.864395   155A      0.867103  
     156A      0.874379   157A      0.878533   158A      0.884626  
     159A      0.892963   160A      0.904158   161A      0.905265  
     162A      0.912072   163A      0.917887   164A      0.921626  
     165A      0.927133   166A      0.931038   167A      0.934138  
     168A      0.941402   169A      0.943907   170A      0.952595  
     171A      0.957253   172A      0.962232   173A      0.967220  
     174A      0.974766   175A      0.976013   176A      0.981579  
     177A      0.992533   178A      0.994619   179A      0.998516  
     180A      1.003111   181A      1.013832   182A      1.018098  
     183A      1.021958   184A      1.025714   185A      1.030265  
     186A      1.042006   187A      1.044333   188A      1.055226  
     189A      1.060333   190A      1.066811   191A      1.070877  
     192A      1.075009   193A      1.083272   194A      1.085587  
     195A      1.090141   196A      1.097540   197A      1.099967  
     198A      1.108772   199A      1.115349   200A      1.119452  
     201A      1.127206   202A      1.131448   203A      1.143838  
     204A      1.151810   205A      1.162919   206A      1.172275  
     207A      1.176208   208A      1.180069   209A      1.188812  
     210A      1.193215   211A      1.198858   212A      1.206991  
     213A      1.211145   214A      1.216296   215A      1.225767  
     216A      1.228742   217A      1.231636   218A      1.234318  
     219A      1.253305   220A      1.260490   221A      1.263095  
     222A      1.277845   223A      1.288899   224A      1.296161  
     225A      1.300070   226A      1.305959   227A      1.313228  
     228A      1.324725   229A      1.330320   230A      1.334844  
     231A      1.339858   232A      1.347253   233A      1.360673  
     234A      1.363345   235A      1.373371   236A      1.382257  
     237A      1.396487   238A      1.400977   239A      1.403532  
     240A      1.416948   241A      1.430855   242A      1.437435  
     243A      1.453796   244A      1.467022   245A      1.473036  
     246A      1.504909   247A      1.521706   248A      1.536445  
     249A      1.539605   250A      1.547300   251A      1.576731  
     252A      1.581285   253A      1.596599   254A      1.622947  
     255A      1.650625   256A      1.651475   257A      1.663180  
     258A      1.687275   259A      1.699891   260A      1.714951  
     261A      1.741066   262A      1.768282   263A      1.780324  
     264A      1.781646   265A      1.786873   266A      1.797614  
     267A      1.805251   268A      1.811195   269A      1.831277  
     270A      1.840818   271A      1.854311   272A      1.858571  
     273A      1.869468   274A      1.883608   275A      1.888791  
     276A      1.896571   277A      1.909634   278A      1.913298  
     279A      1.921596   280A      1.923650   281A      1.940285  
     282A      1.956365   283A      1.961682   284A      1.970520  
     285A      1.975699   286A      1.985479   287A      2.005485  
     288A      2.014118   289A      2.024499   290A      2.033759  
     291A      2.065427   292A      2.100721   293A      2.129274  
     294A      2.174728   295A      2.200301   296A      2.258345  
     297A      2.296113   298A      2.341981   299A      2.361003  
     300A      2.373108   301A      2.400461   302A      2.420993  
     303A      2.429274   304A      2.431333   305A      2.457856  
     306A      2.463657   307A      2.470124   308A      2.481891  
     309A      2.490525   310A      2.500841   311A      2.514175  
     312A      2.524820   313A      2.539914   314A      2.556516  
     315A      2.565788   316A      2.573439   317A      2.583756  
     318A      2.595175   319A      2.601106   320A      2.607101  
     321A      2.608031   322A      2.623852   323A      2.633096  
     324A      2.640534   325A      2.646436   326A      2.655657  
     327A      2.664687   328A      2.678782   329A      2.682084  
     330A      2.698526   331A      2.711347   332A      2.717622  
     333A      2.731405   334A      2.735769   335A      2.742172  
     336A      2.760777   337A      2.762402   338A      2.785610  
     339A      2.796318   340A      2.817297   341A      2.827862  
     342A      2.841178   343A      2.852246   344A      2.860591  
     345A      2.882899   346A      2.888940   347A      2.907824  
     348A      2.916556   349A      2.925727   350A      2.939672  
     351A      2.950942   352A      2.962077   353A      2.987103  
     354A      2.999512   355A      3.010033   356A      3.019863  
     357A      3.061760   358A      3.095637   359A      3.118566  
     360A      3.144337   361A      3.165053   362A      3.204192  
     363A      3.227721   364A      3.230985   365A      3.243436  
     366A      3.247941   367A      3.261872   368A      3.274657  
     369A      3.290796   370A      3.298449   371A      3.310118  
     372A      3.326322   373A      3.333430   374A      3.349366  
     375A      3.362363   376A      3.366933   377A      3.376563  
     378A      3.388367   379A      3.400718   380A      3.406483  
     381A      3.422259   382A      3.459485   383A      3.485176  
     384A      3.489634   385A      3.506994   386A      3.568125  
     387A      3.594855   388A      3.638037   389A      3.653405  
     390A      3.677568   391A      3.680234   392A      3.746064  
     393A      3.754062   394A      3.777958   395A      3.781072  
     396A      3.792868   397A      3.796435   398A      3.832801  
     399A      3.896844   400A      4.043006   401A      4.221360  
     402A      4.273999   403A      4.306172   404A      4.365941  
     405A      4.375533   406A      4.398071   407A      4.412950  
     408A      4.463371   409A      4.476003   410A      4.490587  
     411A      4.494658   412A      4.495695   413A      4.510501  
     414A      4.531312   415A      4.537059   416A      4.541420  
     417A      4.560124   418A      4.573228   419A      4.583101  
     420A      4.590904   421A      4.606091   422A      4.628580  
     423A      4.636698   424A      4.649384   425A      4.656398  
     426A      4.672793   427A      4.686590   428A      4.695939  
     429A      4.716550   430A      4.733857   431A      4.740916  
     432A      4.758388   433A      4.761722   434A      4.769536  
     435A      4.794110   436A      4.807605   437A      4.815664  
     438A      4.837843   439A      4.860497   440A      4.928373  
     441A      4.957129   442A      4.963367   443A      4.979978  
     444A      4.985275   445A      4.997066   446A      5.009655  
     447A      5.020641   448A      5.045740   449A      5.051754  
     450A      5.070530   451A      5.080031   452A      5.092218  
     453A      5.095858   454A      5.110271   455A      5.133074  
     456A      5.155636   457A      5.164788   458A      5.203470  
     459A      5.250449   460A      5.307901   461A      5.330628  
     462A      5.361448   463A      5.394046   464A      5.416825  
     465A      5.477721   466A      5.504891   467A      5.517022  
     468A      5.548671   469A      5.550310   470A      5.553820  
     471A      5.569325   472A      5.628693   473A      5.639317  
     474A      5.670576   475A      5.677793   476A      5.681926  
     477A      5.714594   478A      5.719142   479A      5.764523  
     480A      5.777991   481A      5.816738   482A      5.841330  
     483A      5.870789   484A      5.876260   485A      5.960302  
     486A      6.034660   487A      6.144892   488A      6.170442  
     489A      6.180477   490A      6.233516   491A      6.261861  
     492A      6.280633   493A      6.302639   494A      6.318511  
     495A      6.383036   496A      6.422684   497A      6.553357  
     498A      6.634791   499A      6.649642   500A      6.761400  
     501A      6.766302   502A      6.802110   503A      6.824662  
     504A      6.868741   505A      6.901833   506A      7.052010  
     507A      7.077517   508A      7.090770   509A      7.156342  
     510A      7.206162   511A      7.247883   512A      7.317621  
     513A      7.376588   514A      7.400107   515A      7.435704  
     516A      7.465178   517A      7.631343   518A      7.685117  
     519A      7.686567   520A      7.711158   521A      7.745739  
     522A      7.766118   523A      7.780018   524A      7.787076  
     525A      7.862506   526A      7.878737   527A      7.884785  
     528A      7.993031   529A      8.020354   530A      8.068695  
     531A      8.112105   532A      8.128939   533A      8.139638  
     534A      8.158862   535A      8.161110   536A      8.195894  
     537A      8.251535   538A      8.259028   539A      8.265682  
     540A      8.287333   541A      8.311268   542A      8.333429  
     543A      8.352773   544A      8.436519   545A      8.668215  
     546A      8.729369   547A      8.735884   548A      8.759357  
     549A      8.761141   550A      8.807194   551A      8.821049  
     552A      8.833650   553A      8.943593   554A      9.018833  
     555A      9.055030   556A      9.788825   557A      9.827995  
     558A      9.863093   559A      9.873904   560A      9.892341  
     561A      9.930942   562A      9.954096   563A      9.967852  
     564A      9.987538   565A     10.003723   566A     10.040070  
     567A     10.047778   568A     10.063456   569A     10.093376  
     570A     10.122945   571A     10.154968   572A     10.174070  
     573A     10.250844   574A     10.283353   575A     10.348158  
     576A     10.509352   577A     11.032939   578A     11.059151  
     579A     11.141126   580A     11.273838   581A     11.374391  
     582A     11.677019   583A     11.702638   584A     11.769234  
     585A     11.789413   586A     11.908516   587A     12.057100  
     588A     12.090676   589A     12.144083   590A     12.459462  
     591A     12.507595   592A     13.468253   593A     13.493031  
     594A     13.522667   595A     13.712062   596A     13.804729  
     597A     13.912945   598A     13.921048   599A     13.951324  
     600A     13.972124   601A     14.012187   602A     15.965296  
     603A     31.059293   604A     31.312405   605A     31.415847  
     606A     64.238841   607A     64.381042   608A     64.898864  
     609A     66.191729   610A     66.819791   611A    198.305642  

    Final Occupation by Irrep:
              A 
    DOCC [     5 ]
    NA   [     5 ]
    NB   [     5 ]

  @DF-RHF Final Energy:   -76.05648420815669

   => Energetics <=

    Nuclear Repulsion Energy =              9.1049390196830906
    One-Electron Energy =                -122.8884088597876740
    Two-Electron Energy =                  37.7269856319478976
    Total Energy =                        -76.0564842081566894

Computation Completed


Properties will be evaluated at   0.000000,   0.000000,   0.000000 [a0]

Properties computed using the SCF density matrix


 Multipole Moments:

 ------------------------------------------------------------------------------------
     Multipole            Electronic (a.u.)      Nuclear  (a.u.)        Total (a.u.)
 ------------------------------------------------------------------------------------

 L = 1.  Multiply by 2.5417464519 to convert [e a0] to [Debye]
 Dipole X            :         36.4781233          -36.9911546           -0.5130313
 Dipole Y            :        -41.1864001           41.6819669            0.4955668
 Dipole Z            :        -10.9796732           11.2356690            0.2559959
 Magnitude           :                                                    0.7578400

 ------------------------------------------------------------------------------------

*** tstop() called on moses-razer at Wed Jan 24 16:23:56 2024
Module time:
	user time   =      65.11 seconds =       1.09 minutes
	system time =       3.08 seconds =       0.05 minutes
	total time  =         17 seconds =       0.28 minutes
Total time:
	user time   =      65.11 seconds =       1.09 minutes
	system time =       3.08 seconds =       0.05 minutes
	total time  =         17 seconds =       0.28 minutes

*** tstart() called on moses-razer
*** at Wed Jan 24 16:23:56 2024


  //>>>>>>>>>>>>>>>>>>>>>>>>>>>>>>>>>>>//
  //               DFMP2               //
  //<<<<<<<<<<<<<<<<<<<<<<<<<<<<<<<<<<<//

   => Loading Basis Set <=

    Name: (AUG-CC-PVTZ AUX)
    Role: RIFIT
    Keyword: DF_BASIS_MP2
    atoms 1                                   entry K          line  1282 file /home/kchung25/anaconda3/envs/p415env/share/psi4/basis/def2-qzvpp-ri.gbs 
    atoms 2, 5, 8, 11, 14, 17                 entry O          line   264 file /home/kchung25/anaconda3/envs/p415env/share/psi4/basis/aug-cc-pvtz-ri.gbs 
    atoms 3-4, 6-7, 9-10, 12-13, 15-16, 18-19 entry H          line    30 file /home/kchung25/anaconda3/envs/p415env/share/psi4/basis/aug-cc-pvtz-ri.gbs 

	 --------------------------------------------------------
	                          DF-MP2                         
	      2nd-Order Density-Fitted Moller-Plesset Theory     
	              RMP2 Wavefunction,   6 Threads             
	                                                         
	        Rob Parrish, Justin Turney, Andy Simmonett,      
	           Ed Hohenstein, and C. David Sherrill          
	 --------------------------------------------------------

   => Auxiliary Basis Set <=

  Basis Set: (AUG-CC-PVTZ AUX)
    Blend: AUG-CC-PVTZ-RI + DEF2-QZVPP-RI
    Number of shells: 385
    Number of basis functions: 1387
    Number of Cartesian functions: 1738
    Spherical Harmonics?: true
    Max angular momentum: 4

	 --------------------------------------------------------
	                 NBF =   611, NAUX =  1387
	 --------------------------------------------------------
	   CLASS    FOCC     OCC    AOCC    AVIR     VIR    FVIR
	   PAIRS       0       5       5     606     606       0
	 --------------------------------------------------------

	-----------------------------------------------------------
	 ==================> DF-MP2 Energies <==================== 
	-----------------------------------------------------------
	 Reference Energy          =     -76.0564842081566894 [Eh]
	 Singles Energy            =      -0.0000000000000000 [Eh]
	 Same-Spin Energy          =      -0.0684840513386892 [Eh]
	 Opposite-Spin Energy      =      -0.2159636350126296 [Eh]
	 Correlation Energy        =      -0.2844476863513188 [Eh]
	 Total Energy              =     -76.3409318945080031 [Eh]
	-----------------------------------------------------------
	 ================> DF-SCS-MP2 Energies <================== 
	-----------------------------------------------------------
	 SCS Same-Spin Scale       =       0.3333333333333333 [-]
	 SCS Opposite-Spin Scale   =       1.2000000000000000 [-]
	 SCS Same-Spin Energy      =      -0.0228280171128964 [Eh]
	 SCS Opposite-Spin Energy  =      -0.2591563620151555 [Eh]
	 SCS Correlation Energy    =      -0.2819843791280519 [Eh]
	 SCS Total Energy          =     -76.3384685872847371 [Eh]
	-----------------------------------------------------------


*** tstop() called on moses-razer at Wed Jan 24 16:24:05 2024
Module time:
	user time   =      23.99 seconds =       0.40 minutes
	system time =       1.82 seconds =       0.03 minutes
	total time  =          9 seconds =       0.15 minutes
Total time:
	user time   =      89.10 seconds =       1.48 minutes
	system time =       4.91 seconds =       0.08 minutes
	total time  =         26 seconds =       0.43 minutes

    Psi4 stopped on: Wednesday, 24 January 2024 04:24PM
    Psi4 wall time for execution: 0:00:26.93

*** Psi4 exiting successfully. Buy a developer a beer!
