
    -----------------------------------------------------------------------
          Psi4: An Open-Source Ab Initio Electronic Structure Package
                               Psi4 1.9 release

                         Git: Rev {} zzzzzzz 


    D. G. A. Smith, L. A. Burns, A. C. Simmonett, R. M. Parrish,
    M. C. Schieber, R. Galvelis, P. Kraus, H. Kruse, R. Di Remigio,
    A. Alenaizan, A. M. James, S. Lehtola, J. P. Misiewicz, M. Scheurer,
    R. A. Shaw, J. B. Schriber, Y. Xie, Z. L. Glick, D. A. Sirianni,
    J. S. O'Brien, J. M. Waldrop, A. Kumar, E. G. Hohenstein,
    B. P. Pritchard, B. R. Brooks, H. F. Schaefer III, A. Yu. Sokolov,
    K. Patkowski, A. E. DePrince III, U. Bozkaya, R. A. King,
    F. A. Evangelista, J. M. Turney, T. D. Crawford, C. D. Sherrill,
    J. Chem. Phys. 152(18) 184108 (2020). https://doi.org/10.1063/5.0006002

                            Additional Code Authors
    E. T. Seidl, C. L. Janssen, E. F. Valeev, M. L. Leininger,
    J. F. Gonthier, R. M. Richard, H. R. McAlexander, M. Saitow, X. Wang,
    P. Verma, M. H. Lechner, A. Jiang, S. Behnle, A. G. Heide,
    M. F. Herbst, and D. L. Poole

             Previous Authors, Complete List of Code Contributors,
                       and Citations for Specific Modules
    https://github.com/psi4/psi4/blob/master/codemeta.json
    https://github.com/psi4/psi4/graphs/contributors
    http://psicode.org/psi4manual/master/introduction.html#citing-psifour

    -----------------------------------------------------------------------


    Psi4 started on: Wednesday, 24 January 2024 05:29PM

    Process ID: 1246165
    Host:       moses-razer
    PSIDATADIR: /home/kchung25/anaconda3/envs/psi4_19/share/psi4
    Memory:     500.0 MiB
    Threads:    6
    
  ==> Input File <==

--------------------------------------------------------------------------
MEMORY 60 GB

molecule dimer {
0 1
Gh(K)      0.000000     0.000000     0.000000
Gh(O)      0.309615    -2.623382    -1.550755
Gh(H)      0.073529    -3.411695    -2.042004
Gh(H)      0.732044    -2.924054    -0.731434
Gh(O)     -2.529295     1.007717     0.149432
Gh(H)     -3.031134     1.319525    -0.599291
Gh(H)     -2.665484     0.041905     0.322961
Gh(O)      1.728418     1.676356     0.611770
Gh(H)      1.306700     2.209773     1.232986
Gh(H)      2.018027     2.273752    -0.126886
Gh(O)      0.635505    -0.312124     2.701636
Gh(H)     -0.164451    -0.813360     3.054926
Gh(H)      0.947635     0.214693     3.417860
O          0.007774     0.682534    -2.427733
H         -0.877989     0.809481    -2.864264
H          0.577915     0.435714    -3.144891

units ang
no_reorient
no_com
symmetry c1
}

set {
basis        aug-cc-pVTZ
scf_type     df
}

energy("mp2")
--------------------------------------------------------------------------

  Memory set to  55.879 GiB by Python driver.

Scratch directory: /scratch/
   => Libint2 <=

    Primary   basis highest AM E, G, H:  5, 4, 3
    Auxiliary basis highest AM E, G, H:  6, 5, 4
    Onebody   basis highest AM E, G, H:  6, 5, 4
    Solid Harmonics ordering:            gaussian

*** tstart() called on moses-razer
*** at Wed Jan 24 17:29:43 2024

   => Loading Basis Set <=

    Name: AUG-CC-PVTZ
    Role: ORBITAL
    Keyword: BASIS
    atoms 1                            entry K          line  1152 file /home/kchung25/anaconda3/envs/p415env/share/psi4/basis/aug-cc-pvtz.gbs 
    atoms 2, 5, 8, 11, 14              entry O          line   331 file /home/kchung25/anaconda3/envs/p415env/share/psi4/basis/aug-cc-pvtz.gbs 
    atoms 3-4, 6-7, 9-10, 12-13, 15-16 entry H          line    40 file /home/kchung25/anaconda3/envs/p415env/share/psi4/basis/aug-cc-pvtz.gbs 


         ---------------------------------------------------------
                                   SCF
               by Justin Turney, Rob Parrish, Andy Simmonett
                          and Daniel G. A. Smith
                              RHF Reference
                        6 Threads,  57220 MiB Core
         ---------------------------------------------------------

  ==> Geometry <==

    Molecular point group: c1
    Full point group: C1

    Geometry (in Angstrom), charge = 0, multiplicity = 1:

       Center              X                  Y                   Z               Mass       
    ------------   -----------------  -----------------  -----------------  -----------------
      Gh(K)           0.000000000000     0.000000000000     0.000000000000    38.963706486400
      Gh(O)           0.309615000000    -2.623382000000    -1.550755000000    15.994914619570
      Gh(H)           0.073529000000    -3.411695000000    -2.042004000000     1.007825032230
      Gh(H)           0.732044000000    -2.924054000000    -0.731434000000     1.007825032230
      Gh(O)          -2.529295000000     1.007717000000     0.149432000000    15.994914619570
      Gh(H)          -3.031134000000     1.319525000000    -0.599291000000     1.007825032230
      Gh(H)          -2.665484000000     0.041905000000     0.322961000000     1.007825032230
      Gh(O)           1.728418000000     1.676356000000     0.611770000000    15.994914619570
      Gh(H)           1.306700000000     2.209773000000     1.232986000000     1.007825032230
      Gh(H)           2.018027000000     2.273752000000    -0.126886000000     1.007825032230
      Gh(O)           0.635505000000    -0.312124000000     2.701636000000    15.994914619570
      Gh(H)          -0.164451000000    -0.813360000000     3.054926000000     1.007825032230
      Gh(H)           0.947635000000     0.214693000000     3.417860000000     1.007825032230
         O            0.007774000000     0.682534000000    -2.427733000000    15.994914619570
         H           -0.877989000000     0.809481000000    -2.864264000000     1.007825032230
         H            0.577915000000     0.435714000000    -3.144891000000     1.007825032230

  Running in c1 symmetry.

  Rotational constants: A =      0.04565  B =      0.03438  C =      0.03131 [cm^-1]
  Rotational constants: A =   1368.44863  B =   1030.55579  C =    938.78892 [MHz]
  Nuclear repulsion =    9.059812324298665

  Charge       = 0
  Multiplicity = 1
  Electrons    = 10
  Nalpha       = 5
  Nbeta        = 5

  ==> Algorithm <==

  SCF Algorithm Type is DF.
  DIIS enabled.
  MOM disabled.
  Fractional occupation disabled.
  Guess Type is SAD.
  Energy threshold   = 1.00e-08
  Density threshold  = 1.00e-08
  Integral threshold = 1.00e-12

  ==> Primary Basis <==

  Basis Set: AUG-CC-PVTZ
    Blend: AUG-CC-PVTZ
    Number of shells: 179
    Number of basis functions: 519
    Number of Cartesian functions: 594
    Spherical Harmonics?: true
    Max angular momentum: 3

   => Loading Basis Set <=

    Name: (AUG-CC-PVTZ AUX)
    Role: JKFIT
    Keyword: DF_BASIS_SCF
    atoms 1                            entry K          line  1152 file /home/kchung25/anaconda3/envs/p415env/share/psi4/basis/def2-universal-jkfit.gbs 
    atoms 2, 5, 8, 11, 14              entry O          line   286 file /home/kchung25/anaconda3/envs/p415env/share/psi4/basis/aug-cc-pvtz-jkfit.gbs 
    atoms 3-4, 6-7, 9-10, 12-13, 15-16 entry H          line    70 file /home/kchung25/anaconda3/envs/p415env/share/psi4/basis/aug-cc-pvtz-jkfit.gbs 

  ==> Integral Setup <==

  DFHelper Memory: AOs need 2.081 GiB; user supplied 41.910 GiB. 
  Using in-core AOs.

  ==> MemDFJK: Density-Fitted J/K Matrices <==

    J tasked:                   Yes
    K tasked:                   Yes
    wK tasked:                   No
    OpenMP threads:               6
    Memory [MiB]:             42915
    Algorithm:                 Core
    Schwarz Cutoff:           1E-12
    Mask sparsity (%):      12.3537
    Fitting Condition:        1E-10

   => Auxiliary Basis Set <=

  Basis Set: (AUG-CC-PVTZ AUX)
    Blend: AUG-CC-PVTZ-JKFIT + DEF2-UNIVERSAL-JKFIT
    Number of shells: 334
    Number of basis functions: 1140
    Number of Cartesian functions: 1408
    Spherical Harmonics?: true
    Max angular momentum: 4

  Minimum eigenvalue in the overlap matrix is 6.0641631826E-05.
  Reciprocal condition number of the overlap matrix is 4.6161605319E-06.
    Using symmetric orthogonalization.

  ==> Pre-Iterations <==

  SCF Guess: Superposition of Atomic Densities via on-the-fly atomic UHF (no occupation information).

   -------------------------
    Irrep   Nso     Nmo    
   -------------------------
     A        519     519 
   -------------------------
    Total     519     519
   -------------------------

  ==> Iterations <==

                           Total Energy        Delta E     RMS |[F,P]|

   @DF-RHF iter SAD:   -75.46100047828281   -7.54610e+01   0.00000e+00 
   @DF-RHF iter   1:   -75.97294840898903   -5.11948e-01   9.01860e-04 DIIS/ADIIS
   @DF-RHF iter   2:   -76.02519086312452   -5.22425e-02   6.24503e-04 DIIS/ADIIS
   @DF-RHF iter   3:   -76.05779376670289   -3.26029e-02   4.25762e-05 DIIS
   @DF-RHF iter   4:   -76.05820542667578   -4.11660e-04   1.05245e-05 DIIS
   @DF-RHF iter   5:   -76.05823323199081   -2.78053e-05   2.44579e-06 DIIS
   @DF-RHF iter   6:   -76.05823559586243   -2.36387e-06   5.38478e-07 DIIS
   @DF-RHF iter   7:   -76.05823572046918   -1.24607e-07   9.50326e-08 DIIS
   @DF-RHF iter   8:   -76.05823572383954   -3.37036e-09   1.62752e-08 DIIS
   @DF-RHF iter   9:   -76.05823572391904   -7.94955e-11   4.16610e-09 DIIS
  Energy and wave function converged.


  ==> Post-Iterations <==

    Orbital Energies [Eh]
    ---------------------

    Doubly Occupied:                                                      

       1A    -20.569962     2A     -1.347014     3A     -0.708235  
       4A     -0.583449     5A     -0.509407  

    Virtual:                                                              

       6A      0.006726     7A      0.009489     8A      0.009981  
       9A      0.010817    10A      0.017777    11A      0.018192  
      12A      0.018500    13A      0.018903    14A      0.019040  
      15A      0.032250    16A      0.033896    17A      0.035553  
      18A      0.039910    19A      0.054479    20A      0.057788  
      21A      0.058881    22A      0.060157    23A      0.062109  
      24A      0.071006    25A      0.074982    26A      0.075850  
      27A      0.077645    28A      0.081955    29A      0.083859  
      30A      0.085853    31A      0.089846    32A      0.095560  
      33A      0.100664    34A      0.102756    35A      0.112484  
      36A      0.131583    37A      0.141414    38A      0.144791  
      39A      0.151539    40A      0.158268    41A      0.160544  
      42A      0.162658    43A      0.167903    44A      0.169899  
      45A      0.176822    46A      0.182067    47A      0.189095  
      48A      0.191566    49A      0.196639    50A      0.202123  
      51A      0.205303    52A      0.211115    53A      0.214091  
      54A      0.218726    55A      0.225099    56A      0.234398  
      57A      0.236732    58A      0.243618    59A      0.256398  
      60A      0.258179    61A      0.267350    62A      0.274651  
      63A      0.280088    64A      0.287571    65A      0.294841  
      66A      0.299028    67A      0.304864    68A      0.317663  
      69A      0.322965    70A      0.329353    71A      0.334152  
      72A      0.340757    73A      0.352212    74A      0.355768  
      75A      0.362086    76A      0.364843    77A      0.376422  
      78A      0.379847    79A      0.382613    80A      0.385698  
      81A      0.394060    82A      0.396105    83A      0.400764  
      84A      0.408837    85A      0.411820    86A      0.417574  
      87A      0.422720    88A      0.426808    89A      0.428049  
      90A      0.434825    91A      0.436985    92A      0.443589  
      93A      0.449981    94A      0.455166    95A      0.461320  
      96A      0.466369    97A      0.471804    98A      0.474980  
      99A      0.482302   100A      0.486265   101A      0.488494  
     102A      0.495180   103A      0.498247   104A      0.501224  
     105A      0.507813   106A      0.512807   107A      0.519821  
     108A      0.526887   109A      0.536516   110A      0.539094  
     111A      0.546331   112A      0.567871   113A      0.583182  
     114A      0.593912   115A      0.595445   116A      0.601166  
     117A      0.626728   118A      0.643370   119A      0.668866  
     120A      0.699817   121A      0.707871   122A      0.729922  
     123A      0.741489   124A      0.747606   125A      0.755732  
     126A      0.765195   127A      0.772532   128A      0.781566  
     129A      0.790120   130A      0.799646   131A      0.805362  
     132A      0.814444   133A      0.821777   134A      0.833718  
     135A      0.837891   136A      0.845058   137A      0.846429  
     138A      0.851012   139A      0.867813   140A      0.869742  
     141A      0.879230   142A      0.889281   143A      0.894809  
     144A      0.895959   145A      0.904634   146A      0.914893  
     147A      0.919926   148A      0.921561   149A      0.927721  
     150A      0.937682   151A      0.939298   152A      0.946007  
     153A      0.949253   154A      0.956282   155A      0.964839  
     156A      0.972011   157A      0.977968   158A      0.984150  
     159A      0.994394   160A      0.997257   161A      1.003495  
     162A      1.006741   163A      1.012903   164A      1.028971  
     165A      1.030709   166A      1.041277   167A      1.056913  
     168A      1.061205   169A      1.067001   170A      1.077347  
     171A      1.081710   172A      1.086573   173A      1.090117  
     174A      1.092893   175A      1.098094   176A      1.104933  
     177A      1.110011   178A      1.113200   179A      1.118587  
     180A      1.132863   181A      1.137097   182A      1.140871  
     183A      1.143459   184A      1.153997   185A      1.170345  
     186A      1.173065   187A      1.183463   188A      1.190161  
     189A      1.201178   190A      1.208805   191A      1.217821  
     192A      1.224723   193A      1.237946   194A      1.239929  
     195A      1.245824   196A      1.253779   197A      1.268332  
     198A      1.270693   199A      1.272887   200A      1.290304  
     201A      1.294261   202A      1.303858   203A      1.319738  
     204A      1.322139   205A      1.323320   206A      1.334028  
     207A      1.346881   208A      1.362803   209A      1.383591  
     210A      1.388304   211A      1.395246   212A      1.414565  
     213A      1.421973   214A      1.424163   215A      1.450351  
     216A      1.461623   217A      1.514071   218A      1.520667  
     219A      1.527538   220A      1.543456   221A      1.547981  
     222A      1.607048   223A      1.621874   224A      1.629252  
     225A      1.649086   226A      1.670574   227A      1.685982  
     228A      1.759652   229A      1.763094   230A      1.781246  
     231A      1.787210   232A      1.794714   233A      1.809247  
     234A      1.819743   235A      1.827056   236A      1.834866  
     237A      1.838040   238A      1.856964   239A      1.870054  
     240A      1.879084   241A      1.885597   242A      1.891002  
     243A      1.913015   244A      1.934313   245A      1.943874  
     246A      1.947595   247A      1.954968   248A      1.979681  
     249A      2.000347   250A      2.006071   251A      2.035475  
     252A      2.064068   253A      2.073290   254A      2.095451  
     255A      2.147488   256A      2.267751   257A      2.295875  
     258A      2.328090   259A      2.369255   260A      2.371929  
     261A      2.387267   262A      2.402370   263A      2.413785  
     264A      2.424203   265A      2.426546   266A      2.459193  
     267A      2.468566   268A      2.473528   269A      2.488111  
     270A      2.495203   271A      2.514752   272A      2.546273  
     273A      2.547225   274A      2.557898   275A      2.567938  
     276A      2.576384   277A      2.578826   278A      2.586509  
     279A      2.597232   280A      2.603659   281A      2.611094  
     282A      2.627038   283A      2.633717   284A      2.640821  
     285A      2.655685   286A      2.667995   287A      2.683180  
     288A      2.690020   289A      2.700593   290A      2.708506  
     291A      2.734020   292A      2.745238   293A      2.770763  
     294A      2.785905   295A      2.809619   296A      2.822686  
     297A      2.843898   298A      2.848502   299A      2.864500  
     300A      2.878972   301A      2.882117   302A      2.911724  
     303A      2.924559   304A      2.934506   305A      2.960102  
     306A      2.975021   307A      2.982520   308A      3.036331  
     309A      3.060550   310A      3.073330   311A      3.170203  
     312A      3.203303   313A      3.213795   314A      3.217444  
     315A      3.236659   316A      3.239490   317A      3.253935  
     318A      3.260123   319A      3.268244   320A      3.294303  
     321A      3.326044   322A      3.332098   323A      3.345717  
     324A      3.353607   325A      3.362920   326A      3.366402  
     327A      3.381491   328A      3.389781   329A      3.406336  
     330A      3.416673   331A      3.450426   332A      3.571142  
     333A      3.597218   334A      3.619115   335A      3.636494  
     336A      3.706819   337A      3.723117   338A      3.742137  
     339A      3.761495   340A      3.763916   341A      3.837405  
     342A      3.889395   343A      4.066943   344A      4.226904  
     345A      4.264605   346A      4.288304   347A      4.351520  
     348A      4.364788   349A      4.374090   350A      4.396450  
     351A      4.420522   352A      4.457677   353A      4.483989  
     354A      4.490441   355A      4.506124   356A      4.517482  
     357A      4.527096   358A      4.548185   359A      4.553927  
     360A      4.563806   361A      4.575852   362A      4.599966  
     363A      4.611897   364A      4.641756   365A      4.647351  
     366A      4.656478   367A      4.670609   368A      4.676552  
     369A      4.695400   370A      4.712026   371A      4.746112  
     372A      4.766700   373A      4.771514   374A      4.775900  
     375A      4.796904   376A      4.812474   377A      4.877434  
     378A      4.928956   379A      4.935414   380A      4.947726  
     381A      4.952308   382A      4.977354   383A      5.001098  
     384A      5.019363   385A      5.030709   386A      5.033195  
     387A      5.037195   388A      5.070286   389A      5.108330  
     390A      5.133481   391A      5.138860   392A      5.140655  
     393A      5.194585   394A      5.208488   395A      5.223658  
     396A      5.269566   397A      5.350861   398A      5.478683  
     399A      5.484546   400A      5.515350   401A      5.517970  
     402A      5.521296   403A      5.528619   404A      5.572391  
     405A      5.588512   406A      5.603810   407A      5.666841  
     408A      5.692532   409A      5.724551   410A      5.744141  
     411A      5.773122   412A      5.794975   413A      5.827051  
     414A      5.837166   415A      5.916530   416A      6.137552  
     417A      6.184044   418A      6.195477   419A      6.199729  
     420A      6.263740   421A      6.313479   422A      6.360064  
     423A      6.400637   424A      6.444960   425A      6.620475  
     426A      6.631736   427A      6.721062   428A      6.757750  
     429A      6.760330   430A      6.795708   431A      6.928704  
     432A      7.078810   433A      7.085558   434A      7.099162  
     435A      7.150213   436A      7.191185   437A      7.302587  
     438A      7.310770   439A      7.371191   440A      7.407570  
     441A      7.446677   442A      7.585450   443A      7.677982  
     444A      7.689175   445A      7.694881   446A      7.720853  
     447A      7.770884   448A      7.798879   449A      7.813519  
     450A      7.856338   451A      7.880660   452A      7.956743  
     453A      8.063809   454A      8.091249   455A      8.123644  
     456A      8.130322   457A      8.184359   458A      8.216603  
     459A      8.245634   460A      8.262368   461A      8.282134  
     462A      8.287507   463A      8.293565   464A      8.344605  
     465A      8.713833   466A      8.732382   467A      8.769175  
     468A      8.773852   469A      8.785430   470A      8.807195  
     471A      8.825267   472A      8.834118   473A      8.932959  
     474A      9.779962   475A      9.801174   476A      9.815181  
     477A      9.845506   478A      9.919708   479A      9.927383  
     480A      9.949036   481A      9.973619   482A     10.024727  
     483A     10.038892   484A     10.044941   485A     10.069189  
     486A     10.162688   487A     10.225738   488A     10.232485  
     489A     10.242361   490A     10.512971   491A     11.049626  
     492A     11.052843   493A     11.164771   494A     11.194004  
     495A     11.651670   496A     11.690351   497A     11.724567  
     498A     11.738810   499A     12.117194   500A     12.117991  
     501A     12.148105   502A     12.415202   503A     13.476451  
     504A     13.487900   505A     13.570566   506A     13.639721  
     507A     13.866216   508A     13.898969   509A     13.920894  
     510A     13.948413   511A     15.673577   512A     30.911469  
     513A     31.093984   514A     31.423102   515A     64.308982  
     516A     64.653623   517A     64.770829   518A     65.707726  
     519A    198.306888  

    Final Occupation by Irrep:
              A 
    DOCC [     5 ]
    NA   [     5 ]
    NB   [     5 ]

  @DF-RHF Final Energy:   -76.05823572391904

   => Energetics <=

    Nuclear Repulsion Energy =              9.0598123242986652
    One-Electron Energy =                -122.7999605518384101
    Two-Electron Energy =                  37.6819125036206941
    Total Energy =                        -76.0582357239190543

Computation Completed


Properties will be evaluated at   0.000000,   0.000000,   0.000000 [a0]

Properties computed using the SCF density matrix


 Multipole Moments:

 ------------------------------------------------------------------------------------
     Multipole            Electronic (a.u.)      Nuclear  (a.u.)        Total (a.u.)
 ------------------------------------------------------------------------------------

 L = 1.  Multiply by 2.5417464519 to convert [e a0] to [Debye]
 Dipole X            :          0.2498743           -0.4495318           -0.1996575
 Dipole Y            :        -12.7521369           12.6714962           -0.0806407
 Dipole Z            :         47.2974990          -48.0576610           -0.7601620
 Magnitude           :                                                    0.7900711

 ------------------------------------------------------------------------------------

*** tstop() called on moses-razer at Wed Jan 24 17:29:55 2024
Module time:
	user time   =      42.65 seconds =       0.71 minutes
	system time =       2.49 seconds =       0.04 minutes
	total time  =         12 seconds =       0.20 minutes
Total time:
	user time   =      42.65 seconds =       0.71 minutes
	system time =       2.49 seconds =       0.04 minutes
	total time  =         12 seconds =       0.20 minutes

*** tstart() called on moses-razer
*** at Wed Jan 24 17:29:55 2024


  //>>>>>>>>>>>>>>>>>>>>>>>>>>>>>>>>>>>//
  //               DFMP2               //
  //<<<<<<<<<<<<<<<<<<<<<<<<<<<<<<<<<<<//

   => Loading Basis Set <=

    Name: (AUG-CC-PVTZ AUX)
    Role: RIFIT
    Keyword: DF_BASIS_MP2
    atoms 1                            entry K          line  1282 file /home/kchung25/anaconda3/envs/p415env/share/psi4/basis/def2-qzvpp-ri.gbs 
    atoms 2, 5, 8, 11, 14              entry O          line   264 file /home/kchung25/anaconda3/envs/p415env/share/psi4/basis/aug-cc-pvtz-ri.gbs 
    atoms 3-4, 6-7, 9-10, 12-13, 15-16 entry H          line    30 file /home/kchung25/anaconda3/envs/p415env/share/psi4/basis/aug-cc-pvtz-ri.gbs 

	 --------------------------------------------------------
	                          DF-MP2                         
	      2nd-Order Density-Fitted Moller-Plesset Theory     
	              RMP2 Wavefunction,   6 Threads             
	                                                         
	        Rob Parrish, Justin Turney, Andy Simmonett,      
	           Ed Hohenstein, and C. David Sherrill          
	 --------------------------------------------------------

   => Auxiliary Basis Set <=

  Basis Set: (AUG-CC-PVTZ AUX)
    Blend: AUG-CC-PVTZ-RI + DEF2-QZVPP-RI
    Number of shells: 329
    Number of basis functions: 1189
    Number of Cartesian functions: 1492
    Spherical Harmonics?: true
    Max angular momentum: 4

	 --------------------------------------------------------
	                 NBF =   519, NAUX =  1189
	 --------------------------------------------------------
	   CLASS    FOCC     OCC    AOCC    AVIR     VIR    FVIR
	   PAIRS       0       5       5     514     514       0
	 --------------------------------------------------------

	-----------------------------------------------------------
	 ==================> DF-MP2 Energies <==================== 
	-----------------------------------------------------------
	 Reference Energy          =     -76.0582357239190401 [Eh]
	 Singles Energy            =      -0.0000000000000000 [Eh]
	 Same-Spin Energy          =      -0.0686548704939737 [Eh]
	 Opposite-Spin Energy      =      -0.2164174921423780 [Eh]
	 Correlation Energy        =      -0.2850723626363517 [Eh]
	 Total Energy              =     -76.3433080865553961 [Eh]
	-----------------------------------------------------------
	 ================> DF-SCS-MP2 Energies <================== 
	-----------------------------------------------------------
	 SCS Same-Spin Scale       =       0.3333333333333333 [-]
	 SCS Opposite-Spin Scale   =       1.2000000000000000 [-]
	 SCS Same-Spin Energy      =      -0.0228849568313246 [Eh]
	 SCS Opposite-Spin Energy  =      -0.2597009905708536 [Eh]
	 SCS Correlation Energy    =      -0.2825859474021781 [Eh]
	 SCS Total Energy          =     -76.3408216713212227 [Eh]
	-----------------------------------------------------------


*** tstop() called on moses-razer at Wed Jan 24 17:30:03 2024
Module time:
	user time   =      17.61 seconds =       0.29 minutes
	system time =       1.42 seconds =       0.02 minutes
	total time  =          8 seconds =       0.13 minutes
Total time:
	user time   =      60.26 seconds =       1.00 minutes
	system time =       3.91 seconds =       0.07 minutes
	total time  =         20 seconds =       0.33 minutes

    Psi4 stopped on: Wednesday, 24 January 2024 05:30PM
    Psi4 wall time for execution: 0:00:20.25

*** Psi4 exiting successfully. Buy a developer a beer!
