
    -----------------------------------------------------------------------
          Psi4: An Open-Source Ab Initio Electronic Structure Package
                               Psi4 1.9 release

                         Git: Rev {} zzzzzzz 


    D. G. A. Smith, L. A. Burns, A. C. Simmonett, R. M. Parrish,
    M. C. Schieber, R. Galvelis, P. Kraus, H. Kruse, R. Di Remigio,
    A. Alenaizan, A. M. James, S. Lehtola, J. P. Misiewicz, M. Scheurer,
    R. A. Shaw, J. B. Schriber, Y. Xie, Z. L. Glick, D. A. Sirianni,
    J. S. O'Brien, J. M. Waldrop, A. Kumar, E. G. Hohenstein,
    B. P. Pritchard, B. R. Brooks, H. F. Schaefer III, A. Yu. Sokolov,
    K. Patkowski, A. E. DePrince III, U. Bozkaya, R. A. King,
    F. A. Evangelista, J. M. Turney, T. D. Crawford, C. D. Sherrill,
    J. Chem. Phys. 152(18) 184108 (2020). https://doi.org/10.1063/5.0006002

                            Additional Code Authors
    E. T. Seidl, C. L. Janssen, E. F. Valeev, M. L. Leininger,
    J. F. Gonthier, R. M. Richard, H. R. McAlexander, M. Saitow, X. Wang,
    P. Verma, M. H. Lechner, A. Jiang, S. Behnle, A. G. Heide,
    M. F. Herbst, and D. L. Poole

             Previous Authors, Complete List of Code Contributors,
                       and Citations for Specific Modules
    https://github.com/psi4/psi4/blob/master/codemeta.json
    https://github.com/psi4/psi4/graphs/contributors
    http://psicode.org/psi4manual/master/introduction.html#citing-psifour

    -----------------------------------------------------------------------


    Psi4 started on: Wednesday, 24 January 2024 06:27PM

    Process ID: 1247466
    Host:       moses-razer
    PSIDATADIR: /home/kchung25/anaconda3/envs/psi4_19/share/psi4
    Memory:     500.0 MiB
    Threads:    6
    
  ==> Input File <==

--------------------------------------------------------------------------
MEMORY 60 GB

molecule dimer {
0 1
Gh(K)      0.000000     0.000000     0.000000
O         -2.378824    -0.553695    -1.241651
H         -2.664634     0.170642    -1.832911
H         -3.267881    -0.958953    -1.026544
Gh(O)     -0.572456     1.699591    -1.947811
Gh(H)      0.254456     1.982503    -2.411827
Gh(H)     -1.309166     1.752655    -2.525546
Gh(O)      1.126668    -1.511622     1.935966
Gh(H)      0.956395    -2.429284     2.079445
Gh(H)      0.857351    -1.103993     2.793336
Gh(O)     -1.604414     0.849184     2.083256
Gh(H)     -2.481291     0.626327     1.722143
Gh(H)     -1.459611     0.357911     2.901958

units ang
no_reorient
no_com
symmetry c1
}

set {
basis        aug-cc-pVTZ
scf_type     df
}

energy("mp2")
--------------------------------------------------------------------------

  Memory set to  55.879 GiB by Python driver.

Scratch directory: /scratch/
   => Libint2 <=

    Primary   basis highest AM E, G, H:  5, 4, 3
    Auxiliary basis highest AM E, G, H:  6, 5, 4
    Onebody   basis highest AM E, G, H:  6, 5, 4
    Solid Harmonics ordering:            gaussian

*** tstart() called on moses-razer
*** at Wed Jan 24 18:27:06 2024

   => Loading Basis Set <=

    Name: AUG-CC-PVTZ
    Role: ORBITAL
    Keyword: BASIS
    atoms 1                     entry K          line  1152 file /home/kchung25/anaconda3/envs/p415env/share/psi4/basis/aug-cc-pvtz.gbs 
    atoms 2, 5, 8, 11           entry O          line   331 file /home/kchung25/anaconda3/envs/p415env/share/psi4/basis/aug-cc-pvtz.gbs 
    atoms 3-4, 6-7, 9-10, 12-13 entry H          line    40 file /home/kchung25/anaconda3/envs/p415env/share/psi4/basis/aug-cc-pvtz.gbs 


         ---------------------------------------------------------
                                   SCF
               by Justin Turney, Rob Parrish, Andy Simmonett
                          and Daniel G. A. Smith
                              RHF Reference
                        6 Threads,  57220 MiB Core
         ---------------------------------------------------------

  ==> Geometry <==

    Molecular point group: c1
    Full point group: C1

    Geometry (in Angstrom), charge = 0, multiplicity = 1:

       Center              X                  Y                   Z               Mass       
    ------------   -----------------  -----------------  -----------------  -----------------
      Gh(K)           0.000000000000     0.000000000000     0.000000000000    38.963706486400
         O           -2.378824000000    -0.553695000000    -1.241651000000    15.994914619570
         H           -2.664634000000     0.170642000000    -1.832911000000     1.007825032230
         H           -3.267881000000    -0.958953000000    -1.026544000000     1.007825032230
      Gh(O)          -0.572456000000     1.699591000000    -1.947811000000    15.994914619570
      Gh(H)           0.254456000000     1.982503000000    -2.411827000000     1.007825032230
      Gh(H)          -1.309166000000     1.752655000000    -2.525546000000     1.007825032230
      Gh(O)           1.126668000000    -1.511622000000     1.935966000000    15.994914619570
      Gh(H)           0.956395000000    -2.429284000000     2.079445000000     1.007825032230
      Gh(H)           0.857351000000    -1.103993000000     2.793336000000     1.007825032230
      Gh(O)          -1.604414000000     0.849184000000     2.083256000000    15.994914619570
      Gh(H)          -2.481291000000     0.626327000000     1.722143000000     1.007825032230
      Gh(H)          -1.459611000000     0.357911000000     2.901958000000     1.007825032230

  Running in c1 symmetry.

  Rotational constants: A =      0.07190  B =      0.04226  C =      0.03508 [cm^-1]
  Rotational constants: A =   2155.43190  B =   1266.81223  C =   1051.54910 [MHz]
  Nuclear repulsion =    8.911016795634977

  Charge       = 0
  Multiplicity = 1
  Electrons    = 10
  Nalpha       = 5
  Nbeta        = 5

  ==> Algorithm <==

  SCF Algorithm Type is DF.
  DIIS enabled.
  MOM disabled.
  Fractional occupation disabled.
  Guess Type is SAD.
  Energy threshold   = 1.00e-08
  Density threshold  = 1.00e-08
  Integral threshold = 1.00e-12

  ==> Primary Basis <==

  Basis Set: AUG-CC-PVTZ
    Blend: AUG-CC-PVTZ
    Number of shells: 147
    Number of basis functions: 427
    Number of Cartesian functions: 489
    Spherical Harmonics?: true
    Max angular momentum: 3

   => Loading Basis Set <=

    Name: (AUG-CC-PVTZ AUX)
    Role: JKFIT
    Keyword: DF_BASIS_SCF
    atoms 1                     entry K          line  1152 file /home/kchung25/anaconda3/envs/p415env/share/psi4/basis/def2-universal-jkfit.gbs 
    atoms 2, 5, 8, 11           entry O          line   286 file /home/kchung25/anaconda3/envs/p415env/share/psi4/basis/aug-cc-pvtz-jkfit.gbs 
    atoms 3-4, 6-7, 9-10, 12-13 entry H          line    70 file /home/kchung25/anaconda3/envs/p415env/share/psi4/basis/aug-cc-pvtz-jkfit.gbs 

  ==> Integral Setup <==

  DFHelper Memory: AOs need 1.206 GiB; user supplied 41.910 GiB. 
  Using in-core AOs.

  ==> MemDFJK: Density-Fitted J/K Matrices <==

    J tasked:                   Yes
    K tasked:                   Yes
    wK tasked:                   No
    OpenMP threads:               6
    Memory [MiB]:             42915
    Algorithm:                 Core
    Schwarz Cutoff:           1E-12
    Mask sparsity (%):       9.9973
    Fitting Condition:        1E-10

   => Auxiliary Basis Set <=

  Basis Set: (AUG-CC-PVTZ AUX)
    Blend: AUG-CC-PVTZ-JKFIT + DEF2-UNIVERSAL-JKFIT
    Number of shells: 276
    Number of basis functions: 944
    Number of Cartesian functions: 1167
    Spherical Harmonics?: true
    Max angular momentum: 4

  Minimum eigenvalue in the overlap matrix is 6.5647463989E-05.
  Reciprocal condition number of the overlap matrix is 5.2150879087E-06.
    Using symmetric orthogonalization.

  ==> Pre-Iterations <==

  SCF Guess: Superposition of Atomic Densities via on-the-fly atomic UHF (no occupation information).

   -------------------------
    Irrep   Nso     Nmo    
   -------------------------
     A        427     427 
   -------------------------
    Total     427     427
   -------------------------

  ==> Iterations <==

                           Total Energy        Delta E     RMS |[F,P]|

   @DF-RHF iter SAD:   -75.44556613383546   -7.54456e+01   0.00000e+00 
   @DF-RHF iter   1:   -75.96948437885759   -5.23918e-01   1.09303e-03 ADIIS/DIIS
   @DF-RHF iter   2:   -76.02114385642093   -5.16595e-02   7.74610e-04 ADIIS/DIIS
   @DF-RHF iter   3:   -76.05544083627704   -3.42970e-02   5.27044e-05 DIIS
   @DF-RHF iter   4:   -76.05586977229812   -4.28936e-04   1.35051e-05 DIIS
   @DF-RHF iter   5:   -76.05590156744728   -3.17951e-05   3.19800e-06 DIIS
   @DF-RHF iter   6:   -76.05590432543582   -2.75799e-06   6.89238e-07 DIIS
   @DF-RHF iter   7:   -76.05590446173836   -1.36303e-07   1.13981e-07 DIIS
   @DF-RHF iter   8:   -76.05590446490514   -3.16678e-09   1.96241e-08 DIIS
   @DF-RHF iter   9:   -76.05590446497884   -7.36975e-11   4.81534e-09 DIIS
  Energy and wave function converged.


  ==> Post-Iterations <==

    Orbital Energies [Eh]
    ---------------------

    Doubly Occupied:                                                      

       1A    -20.574689     2A     -1.341049     3A     -0.691893  
       4A     -0.587823     5A     -0.509252  

    Virtual:                                                              

       6A      0.006622     7A      0.009643     8A      0.010175  
       9A      0.011015    10A      0.017908    11A      0.018192  
      12A      0.018838    13A      0.019220    14A      0.019248  
      15A      0.032124    16A      0.034692    17A      0.037374  
      18A      0.040865    19A      0.055563    20A      0.059221  
      21A      0.062455    22A      0.063560    23A      0.063874  
      24A      0.070841    25A      0.074008    26A      0.075587  
      27A      0.080758    28A      0.082232    29A      0.088205  
      30A      0.089703    31A      0.099501    32A      0.102676  
      33A      0.110102    34A      0.119847    35A      0.128826  
      36A      0.144906    37A      0.148064    38A      0.158093  
      39A      0.159118    40A      0.162509    41A      0.168863  
      42A      0.177184    43A      0.179752    44A      0.185648  
      45A      0.190469    46A      0.192119    47A      0.196071  
      48A      0.200071    49A      0.208724    50A      0.221049  
      51A      0.226643    52A      0.229613    53A      0.237792  
      54A      0.239479    55A      0.248921    56A      0.260772  
      57A      0.263217    58A      0.274227    59A      0.282357  
      60A      0.287192    61A      0.291508    62A      0.299760  
      63A      0.306900    64A      0.323860    65A      0.326362  
      66A      0.338793    67A      0.346814    68A      0.349773  
      69A      0.357285    70A      0.362181    71A      0.364393  
      72A      0.372978    73A      0.381309    74A      0.386681  
      75A      0.394853    76A      0.399820    77A      0.408623  
      78A      0.416439    79A      0.420565    80A      0.425740  
      81A      0.431890    82A      0.439240    83A      0.447193  
      84A      0.450535    85A      0.453685    86A      0.460277  
      87A      0.464295    88A      0.469308    89A      0.480253  
      90A      0.489057    91A      0.492506    92A      0.498779  
      93A      0.502936    94A      0.506539    95A      0.519390  
      96A      0.522391    97A      0.528898    98A      0.539279  
      99A      0.556811   100A      0.560725   101A      0.576843  
     102A      0.586253   103A      0.597547   104A      0.614632  
     105A      0.644329   106A      0.678724   107A      0.686550  
     108A      0.715454   109A      0.728447   110A      0.744406  
     111A      0.754586   112A      0.768748   113A      0.771954  
     114A      0.794112   115A      0.802173   116A      0.808006  
     117A      0.818936   118A      0.825493   119A      0.829252  
     120A      0.850871   121A      0.856712   122A      0.860660  
     123A      0.873237   124A      0.876138   125A      0.880769  
     126A      0.888607   127A      0.899335   128A      0.901412  
     129A      0.915930   130A      0.920230   131A      0.932895  
     132A      0.939815   133A      0.945899   134A      0.955175  
     135A      0.962023   136A      0.975116   137A      0.979929  
     138A      0.983819   139A      0.987773   140A      1.004149  
     141A      1.007200   142A      1.023373   143A      1.030083  
     144A      1.033336   145A      1.044001   146A      1.060994  
     147A      1.066506   148A      1.069205   149A      1.076705  
     150A      1.088819   151A      1.096447   152A      1.105081  
     153A      1.111449   154A      1.119925   155A      1.122861  
     156A      1.138518   157A      1.145856   158A      1.151304  
     159A      1.158960   160A      1.171545   161A      1.182562  
     162A      1.197443   163A      1.207412   164A      1.212357  
     165A      1.223212   166A      1.232084   167A      1.239443  
     168A      1.253902   169A      1.261277   170A      1.267435  
     171A      1.285643   172A      1.304605   173A      1.311262  
     174A      1.318575   175A      1.327300   176A      1.343440  
     177A      1.375168   178A      1.391442   179A      1.408678  
     180A      1.438754   181A      1.449908   182A      1.493774  
     183A      1.501836   184A      1.517641   185A      1.539642  
     186A      1.547778   187A      1.576168   188A      1.583114  
     189A      1.610646   190A      1.618707   191A      1.654773  
     192A      1.692534   193A      1.734982   194A      1.764535  
     195A      1.775572   196A      1.780796   197A      1.797362  
     198A      1.807421   199A      1.827538   200A      1.845261  
     201A      1.853564   202A      1.883458   203A      1.889058  
     204A      1.905287   205A      1.908685   206A      1.922577  
     207A      1.945188   208A      1.983976   209A      1.988854  
     210A      1.993922   211A      2.042717   212A      2.071582  
     213A      2.099594   214A      2.114736   215A      2.174175  
     216A      2.201349   217A      2.278746   218A      2.328431  
     219A      2.348378   220A      2.354179   221A      2.368511  
     222A      2.394777   223A      2.414159   224A      2.427680  
     225A      2.436760   226A      2.453874   227A      2.465170  
     228A      2.482502   229A      2.510393   230A      2.542110  
     231A      2.554180   232A      2.563539   233A      2.569258  
     234A      2.574104   235A      2.588023   236A      2.595141  
     237A      2.605751   238A      2.614681   239A      2.633006  
     240A      2.648173   241A      2.661580   242A      2.679105  
     243A      2.688580   244A      2.707335   245A      2.734694  
     246A      2.754328   247A      2.769108   248A      2.797873  
     249A      2.810285   250A      2.825733   251A      2.842681  
     252A      2.865615   253A      2.876620   254A      2.894491  
     255A      2.907854   256A      2.924234   257A      2.938917  
     258A      2.966841   259A      2.977227   260A      3.029482  
     261A      3.082350   262A      3.153624   263A      3.199318  
     264A      3.210197   265A      3.234476   266A      3.248873  
     267A      3.260929   268A      3.290615   269A      3.294973  
     270A      3.299889   271A      3.338045   272A      3.361950  
     273A      3.370166   274A      3.385344   275A      3.391405  
     276A      3.422357   277A      3.537079   278A      3.587514  
     279A      3.607270   280A      3.683771   281A      3.698735  
     282A      3.719009   283A      3.777209   284A      3.789221  
     285A      3.824648   286A      4.089875   287A      4.189084  
     288A      4.213302   289A      4.277859   290A      4.336602  
     291A      4.392179   292A      4.401346   293A      4.417392  
     294A      4.434289   295A      4.454578   296A      4.481833  
     297A      4.514610   298A      4.525582   299A      4.528246  
     300A      4.560581   301A      4.566951   302A      4.587017  
     303A      4.591894   304A      4.622846   305A      4.662715  
     306A      4.678945   307A      4.700879   308A      4.711155  
     309A      4.728129   310A      4.736277   311A      4.743952  
     312A      4.793239   313A      4.822330   314A      4.848674  
     315A      4.913758   316A      4.952283   317A      4.957346  
     318A      4.971708   319A      4.982682   320A      5.001053  
     321A      5.017716   322A      5.046173   323A      5.089149  
     324A      5.106591   325A      5.129414   326A      5.159646  
     327A      5.237923   328A      5.240015   329A      5.270026  
     330A      5.292777   331A      5.468816   332A      5.484722  
     333A      5.529122   334A      5.554011   335A      5.571919  
     336A      5.575717   337A      5.597366   338A      5.665583  
     339A      5.688611   340A      5.718886   341A      5.734949  
     342A      5.813347   343A      5.822290   344A      5.888399  
     345A      6.119129   346A      6.184290   347A      6.195107  
     348A      6.315336   349A      6.345577   350A      6.355970  
     351A      6.398110   352A      6.596871   353A      6.620776  
     354A      6.750462   355A      6.760346   356A      6.786483  
     357A      6.958061   358A      7.059966   359A      7.093586  
     360A      7.123490   361A      7.134276   362A      7.211921  
     363A      7.280734   364A      7.341357   365A      7.393538  
     366A      7.467505   367A      7.561943   368A      7.699670  
     369A      7.717041   370A      7.722458   371A      7.779530  
     372A      7.788035   373A      7.864068   374A      7.871761  
     375A      7.940582   376A      8.079514   377A      8.120914  
     378A      8.136571   379A      8.163572   380A      8.257871  
     381A      8.277714   382A      8.285447   383A      8.292656  
     384A      8.335777   385A      8.714104   386A      8.722428  
     387A      8.761812   388A      8.770919   389A      8.794314  
     390A      8.839452   391A      8.882027   392A      9.744411  
     393A      9.780230   394A      9.824163   395A      9.924655  
     396A      9.947774   397A      9.961574   398A     10.035073  
     399A     10.055178   400A     10.067960   401A     10.201733  
     402A     10.210682   403A     10.248679   404A     10.426013  
     405A     11.104174   406A     11.129571   407A     11.190894  
     408A     11.681567   409A     11.693677   410A     11.751771  
     411A     12.079446   412A     12.184764   413A     12.253338  
     414A     13.484358   415A     13.544912   416A     13.551635  
     417A     13.819140   418A     13.910236   419A     13.940002  
     420A     15.234153   421A     30.599770   422A     30.776332  
     423A     31.354730   424A     64.462331   425A     64.798368  
     426A     65.038639   427A    198.115291  

    Final Occupation by Irrep:
              A 
    DOCC [     5 ]
    NA   [     5 ]
    NB   [     5 ]

  @DF-RHF Final Energy:   -76.05590446497884

   => Energetics <=

    Nuclear Repulsion Energy =              8.9110167956349766
    One-Electron Energy =                -122.5244273983484078
    Two-Electron Energy =                  37.5575061377345918
    Total Energy =                        -76.0559044649788376

Computation Completed


Properties will be evaluated at   0.000000,   0.000000,   0.000000 [a0]

Properties computed using the SCF density matrix


 Multipole Moments:

 ------------------------------------------------------------------------------------
     Multipole            Electronic (a.u.)      Nuclear  (a.u.)        Total (a.u.)
 ------------------------------------------------------------------------------------

 L = 1.  Multiply by 2.5417464519 to convert [e a0] to [Debye]
 Dipole X            :         46.4189322          -47.1734355           -0.7545033
 Dipole Y            :         10.0689244           -9.8603471            0.2085772
 Dipole Z            :         23.9298251          -24.1746295           -0.2448044
 Magnitude           :                                                    0.8201883

 ------------------------------------------------------------------------------------

*** tstop() called on moses-razer at Wed Jan 24 18:27:14 2024
Module time:
	user time   =      26.82 seconds =       0.45 minutes
	system time =       1.99 seconds =       0.03 minutes
	total time  =          8 seconds =       0.13 minutes
Total time:
	user time   =      26.82 seconds =       0.45 minutes
	system time =       1.99 seconds =       0.03 minutes
	total time  =          8 seconds =       0.13 minutes

*** tstart() called on moses-razer
*** at Wed Jan 24 18:27:14 2024


  //>>>>>>>>>>>>>>>>>>>>>>>>>>>>>>>>>>>//
  //               DFMP2               //
  //<<<<<<<<<<<<<<<<<<<<<<<<<<<<<<<<<<<//

   => Loading Basis Set <=

    Name: (AUG-CC-PVTZ AUX)
    Role: RIFIT
    Keyword: DF_BASIS_MP2
    atoms 1                     entry K          line  1282 file /home/kchung25/anaconda3/envs/p415env/share/psi4/basis/def2-qzvpp-ri.gbs 
    atoms 2, 5, 8, 11           entry O          line   264 file /home/kchung25/anaconda3/envs/p415env/share/psi4/basis/aug-cc-pvtz-ri.gbs 
    atoms 3-4, 6-7, 9-10, 12-13 entry H          line    30 file /home/kchung25/anaconda3/envs/p415env/share/psi4/basis/aug-cc-pvtz-ri.gbs 

	 --------------------------------------------------------
	                          DF-MP2                         
	      2nd-Order Density-Fitted Moller-Plesset Theory     
	              RMP2 Wavefunction,   6 Threads             
	                                                         
	        Rob Parrish, Justin Turney, Andy Simmonett,      
	           Ed Hohenstein, and C. David Sherrill          
	 --------------------------------------------------------

   => Auxiliary Basis Set <=

  Basis Set: (AUG-CC-PVTZ AUX)
    Blend: AUG-CC-PVTZ-RI + DEF2-QZVPP-RI
    Number of shells: 273
    Number of basis functions: 991
    Number of Cartesian functions: 1246
    Spherical Harmonics?: true
    Max angular momentum: 4

	 --------------------------------------------------------
	                 NBF =   427, NAUX =   991
	 --------------------------------------------------------
	   CLASS    FOCC     OCC    AOCC    AVIR     VIR    FVIR
	   PAIRS       0       5       5     422     422       0
	 --------------------------------------------------------

	-----------------------------------------------------------
	 ==================> DF-MP2 Energies <==================== 
	-----------------------------------------------------------
	 Reference Energy          =     -76.0559044649788376 [Eh]
	 Singles Energy            =      -0.0000000000000000 [Eh]
	 Same-Spin Energy          =      -0.0690638990791277 [Eh]
	 Opposite-Spin Energy      =      -0.2176374360567301 [Eh]
	 Correlation Energy        =      -0.2867013351358578 [Eh]
	 Total Energy              =     -76.3426058001146970 [Eh]
	-----------------------------------------------------------
	 ================> DF-SCS-MP2 Energies <================== 
	-----------------------------------------------------------
	 SCS Same-Spin Scale       =       0.3333333333333333 [-]
	 SCS Opposite-Spin Scale   =       1.2000000000000000 [-]
	 SCS Same-Spin Energy      =      -0.0230212996930426 [Eh]
	 SCS Opposite-Spin Energy  =      -0.2611649232680761 [Eh]
	 SCS Correlation Energy    =      -0.2841862229611187 [Eh]
	 SCS Total Energy          =     -76.3400906879399628 [Eh]
	-----------------------------------------------------------


*** tstop() called on moses-razer at Wed Jan 24 18:27:21 2024
Module time:
	user time   =      12.83 seconds =       0.21 minutes
	system time =       1.07 seconds =       0.02 minutes
	total time  =          7 seconds =       0.12 minutes
Total time:
	user time   =      39.65 seconds =       0.66 minutes
	system time =       3.06 seconds =       0.05 minutes
	total time  =         15 seconds =       0.25 minutes

    Psi4 stopped on: Wednesday, 24 January 2024 06:27PM
    Psi4 wall time for execution: 0:00:15.19

*** Psi4 exiting successfully. Buy a developer a beer!
