
    -----------------------------------------------------------------------
          Psi4: An Open-Source Ab Initio Electronic Structure Package
                               Psi4 1.9 release

                         Git: Rev {} zzzzzzz 


    D. G. A. Smith, L. A. Burns, A. C. Simmonett, R. M. Parrish,
    M. C. Schieber, R. Galvelis, P. Kraus, H. Kruse, R. Di Remigio,
    A. Alenaizan, A. M. James, S. Lehtola, J. P. Misiewicz, M. Scheurer,
    R. A. Shaw, J. B. Schriber, Y. Xie, Z. L. Glick, D. A. Sirianni,
    J. S. O'Brien, J. M. Waldrop, A. Kumar, E. G. Hohenstein,
    B. P. Pritchard, B. R. Brooks, H. F. Schaefer III, A. Yu. Sokolov,
    K. Patkowski, A. E. DePrince III, U. Bozkaya, R. A. King,
    F. A. Evangelista, J. M. Turney, T. D. Crawford, C. D. Sherrill,
    J. Chem. Phys. 152(18) 184108 (2020). https://doi.org/10.1063/5.0006002

                            Additional Code Authors
    E. T. Seidl, C. L. Janssen, E. F. Valeev, M. L. Leininger,
    J. F. Gonthier, R. M. Richard, H. R. McAlexander, M. Saitow, X. Wang,
    P. Verma, M. H. Lechner, A. Jiang, S. Behnle, A. G. Heide,
    M. F. Herbst, and D. L. Poole

             Previous Authors, Complete List of Code Contributors,
                       and Citations for Specific Modules
    https://github.com/psi4/psi4/blob/master/codemeta.json
    https://github.com/psi4/psi4/graphs/contributors
    http://psicode.org/psi4manual/master/introduction.html#citing-psifour

    -----------------------------------------------------------------------


    Psi4 started on: Wednesday, 24 January 2024 03:52PM

    Process ID: 1228369
    Host:       moses-razer
    PSIDATADIR: /home/kchung25/anaconda3/envs/psi4_19/share/psi4
    Memory:     500.0 MiB
    Threads:    6
    
  ==> Input File <==

--------------------------------------------------------------------------
MEMORY 60 GB

molecule dimer {
0 1
Gh(K)      0.000000     0.000000     0.000000
Gh(O)      1.380814     0.870128    -2.552071
Gh(H)      0.720240     1.596362    -2.443970
Gh(H)      1.177395     0.252244    -3.293213
Gh(O)      1.273503     1.903801     1.295069
Gh(H)      1.989230     1.514260     1.865592
Gh(H)      0.801927     2.486720     1.867390
O         -2.462575     1.133906     0.643205
H         -2.766838     0.224028     0.624927
H         -2.781846     1.533607    -0.169164
Gh(O)     -2.169681    -1.506407    -1.529652
Gh(H)     -2.399596    -2.128795    -2.205315
Gh(H)     -2.797931    -0.796605    -1.523323
Gh(O)      1.163535    -1.097883     2.056202
Gh(H)      2.105116    -0.983745     2.128536
Gh(H)      0.817248    -1.314531     2.991563

units ang
no_reorient
no_com
symmetry c1
}

set {
basis        aug-cc-pVTZ
scf_type     df
}

energy("mp2")
--------------------------------------------------------------------------

  Memory set to  55.879 GiB by Python driver.

Scratch directory: /scratch/
   => Libint2 <=

    Primary   basis highest AM E, G, H:  5, 4, 3
    Auxiliary basis highest AM E, G, H:  6, 5, 4
    Onebody   basis highest AM E, G, H:  6, 5, 4
    Solid Harmonics ordering:            gaussian

*** tstart() called on moses-razer
*** at Wed Jan 24 15:52:44 2024

   => Loading Basis Set <=

    Name: AUG-CC-PVTZ
    Role: ORBITAL
    Keyword: BASIS
    atoms 1                            entry K          line  1152 file /home/kchung25/anaconda3/envs/p415env/share/psi4/basis/aug-cc-pvtz.gbs 
    atoms 2, 5, 8, 11, 14              entry O          line   331 file /home/kchung25/anaconda3/envs/p415env/share/psi4/basis/aug-cc-pvtz.gbs 
    atoms 3-4, 6-7, 9-10, 12-13, 15-16 entry H          line    40 file /home/kchung25/anaconda3/envs/p415env/share/psi4/basis/aug-cc-pvtz.gbs 


         ---------------------------------------------------------
                                   SCF
               by Justin Turney, Rob Parrish, Andy Simmonett
                          and Daniel G. A. Smith
                              RHF Reference
                        6 Threads,  57220 MiB Core
         ---------------------------------------------------------

  ==> Geometry <==

    Molecular point group: c1
    Full point group: C1

    Geometry (in Angstrom), charge = 0, multiplicity = 1:

       Center              X                  Y                   Z               Mass       
    ------------   -----------------  -----------------  -----------------  -----------------
      Gh(K)           0.000000000000     0.000000000000     0.000000000000    38.963706486400
      Gh(O)           1.380814000000     0.870128000000    -2.552071000000    15.994914619570
      Gh(H)           0.720240000000     1.596362000000    -2.443970000000     1.007825032230
      Gh(H)           1.177395000000     0.252244000000    -3.293213000000     1.007825032230
      Gh(O)           1.273503000000     1.903801000000     1.295069000000    15.994914619570
      Gh(H)           1.989230000000     1.514260000000     1.865592000000     1.007825032230
      Gh(H)           0.801927000000     2.486720000000     1.867390000000     1.007825032230
         O           -2.462575000000     1.133906000000     0.643205000000    15.994914619570
         H           -2.766838000000     0.224028000000     0.624927000000     1.007825032230
         H           -2.781846000000     1.533607000000    -0.169164000000     1.007825032230
      Gh(O)          -2.169681000000    -1.506407000000    -1.529652000000    15.994914619570
      Gh(H)          -2.399596000000    -2.128795000000    -2.205315000000     1.007825032230
      Gh(H)          -2.797931000000    -0.796605000000    -1.523323000000     1.007825032230
      Gh(O)           1.163535000000    -1.097883000000     2.056202000000    15.994914619570
      Gh(H)           2.105116000000    -0.983745000000     2.128536000000     1.007825032230
      Gh(H)           0.817248000000    -1.314531000000     2.991563000000     1.007825032230

  Running in c1 symmetry.

  Rotational constants: A =      0.04292  B =      0.03348  C =      0.02821 [cm^-1]
  Rotational constants: A =   1286.65882  B =   1003.61288  C =    845.81635 [MHz]
  Nuclear repulsion =    9.166978379649130

  Charge       = 0
  Multiplicity = 1
  Electrons    = 10
  Nalpha       = 5
  Nbeta        = 5

  ==> Algorithm <==

  SCF Algorithm Type is DF.
  DIIS enabled.
  MOM disabled.
  Fractional occupation disabled.
  Guess Type is SAD.
  Energy threshold   = 1.00e-08
  Density threshold  = 1.00e-08
  Integral threshold = 1.00e-12

  ==> Primary Basis <==

  Basis Set: AUG-CC-PVTZ
    Blend: AUG-CC-PVTZ
    Number of shells: 179
    Number of basis functions: 519
    Number of Cartesian functions: 594
    Spherical Harmonics?: true
    Max angular momentum: 3

   => Loading Basis Set <=

    Name: (AUG-CC-PVTZ AUX)
    Role: JKFIT
    Keyword: DF_BASIS_SCF
    atoms 1                            entry K          line  1152 file /home/kchung25/anaconda3/envs/p415env/share/psi4/basis/def2-universal-jkfit.gbs 
    atoms 2, 5, 8, 11, 14              entry O          line   286 file /home/kchung25/anaconda3/envs/p415env/share/psi4/basis/aug-cc-pvtz-jkfit.gbs 
    atoms 3-4, 6-7, 9-10, 12-13, 15-16 entry H          line    70 file /home/kchung25/anaconda3/envs/p415env/share/psi4/basis/aug-cc-pvtz-jkfit.gbs 

  ==> Integral Setup <==

  DFHelper Memory: AOs need 2.062 GiB; user supplied 41.910 GiB. 
  Using in-core AOs.

  ==> MemDFJK: Density-Fitted J/K Matrices <==

    J tasked:                   Yes
    K tasked:                   Yes
    wK tasked:                   No
    OpenMP threads:               6
    Memory [MiB]:             42915
    Algorithm:                 Core
    Schwarz Cutoff:           1E-12
    Mask sparsity (%):      13.1831
    Fitting Condition:        1E-10

   => Auxiliary Basis Set <=

  Basis Set: (AUG-CC-PVTZ AUX)
    Blend: AUG-CC-PVTZ-JKFIT + DEF2-UNIVERSAL-JKFIT
    Number of shells: 334
    Number of basis functions: 1140
    Number of Cartesian functions: 1408
    Spherical Harmonics?: true
    Max angular momentum: 4

  Minimum eigenvalue in the overlap matrix is 6.3309214920E-05.
  Reciprocal condition number of the overlap matrix is 4.7742427222E-06.
    Using symmetric orthogonalization.

  ==> Pre-Iterations <==

  SCF Guess: Superposition of Atomic Densities via on-the-fly atomic UHF (no occupation information).

   -------------------------
    Irrep   Nso     Nmo    
   -------------------------
     A        519     519 
   -------------------------
    Total     519     519
   -------------------------

  ==> Iterations <==

                           Total Energy        Delta E     RMS |[F,P]|

   @DF-RHF iter SAD:   -75.47375861460600   -7.54738e+01   0.00000e+00 
   @DF-RHF iter   1:   -75.97632003631941   -5.02561e-01   9.02638e-04 DIIS/ADIIS
   @DF-RHF iter   2:   -76.02876672988273   -5.24467e-02   6.14641e-04 DIIS/ADIIS
   @DF-RHF iter   3:   -76.06012134424589   -3.13546e-02   4.17930e-05 DIIS
   @DF-RHF iter   4:   -76.06051269295072   -3.91349e-04   1.00005e-05 DIIS
   @DF-RHF iter   5:   -76.06053705487028   -2.43619e-05   2.26531e-06 DIIS
   @DF-RHF iter   6:   -76.06053904831123   -1.99344e-06   4.99676e-07 DIIS
   @DF-RHF iter   7:   -76.06053915559434   -1.07283e-07   9.20757e-08 DIIS
   @DF-RHF iter   8:   -76.06053915881039   -3.21604e-09   1.53900e-08 DIIS
   @DF-RHF iter   9:   -76.06053915888148   -7.10969e-11   3.81925e-09 DIIS
  Energy and wave function converged.


  ==> Post-Iterations <==

    Orbital Energies [Eh]
    ---------------------

    Doubly Occupied:                                                      

       1A    -20.566933     2A     -1.351243     3A     -0.718937  
       4A     -0.581759     5A     -0.509729  

    Virtual:                                                              

       6A      0.006409     7A      0.009307     8A      0.009479  
       9A      0.010853    10A      0.017782    11A      0.018140  
      12A      0.018522    13A      0.018843    14A      0.019258  
      15A      0.030498    16A      0.033459    17A      0.034918  
      18A      0.038481    19A      0.055131    20A      0.056545  
      21A      0.057940    22A      0.060398    23A      0.063222  
      24A      0.070383    25A      0.074275    26A      0.075740  
      27A      0.077643    28A      0.079304    29A      0.082580  
      30A      0.084311    31A      0.090979    32A      0.097192  
      33A      0.101024    34A      0.104654    35A      0.111344  
      36A      0.120325    37A      0.129494    38A      0.135884  
      39A      0.147005    40A      0.152982    41A      0.157858  
      42A      0.160564    43A      0.168876    44A      0.170719  
      45A      0.172204    46A      0.181189    47A      0.184394  
      48A      0.188801    49A      0.190803    50A      0.193255  
      51A      0.200403    52A      0.211298    53A      0.215756  
      54A      0.218778    55A      0.224081    56A      0.226705  
      57A      0.232786    58A      0.244281    59A      0.245306  
      60A      0.250170    61A      0.257044    62A      0.266214  
      63A      0.272888    64A      0.277176    65A      0.286988  
      66A      0.290129    67A      0.302041    68A      0.306366  
      69A      0.311209    70A      0.317300    71A      0.328870  
      72A      0.336734    73A      0.339414    74A      0.350358  
      75A      0.353809    76A      0.358562    77A      0.366640  
      78A      0.368131    79A      0.376627    80A      0.378922  
      81A      0.385752    82A      0.387587    83A      0.390223  
      84A      0.398629    85A      0.404436    86A      0.413138  
      87A      0.417670    88A      0.419371    89A      0.427666  
      90A      0.432359    91A      0.435949    92A      0.447454  
      93A      0.452507    94A      0.458599    95A      0.462654  
      96A      0.464822    97A      0.472265    98A      0.473306  
      99A      0.479345   100A      0.482833   101A      0.488515  
     102A      0.493201   103A      0.499865   104A      0.501370  
     105A      0.508130   106A      0.520290   107A      0.526160  
     108A      0.536780   109A      0.539411   110A      0.542518  
     111A      0.543228   112A      0.554018   113A      0.567907  
     114A      0.573349   115A      0.582106   116A      0.595731  
     117A      0.617785   118A      0.630140   119A      0.649726  
     120A      0.685673   121A      0.704872   122A      0.715224  
     123A      0.723397   124A      0.745887   125A      0.757602  
     126A      0.758815   127A      0.777611   128A      0.781204  
     129A      0.791605   130A      0.794927   131A      0.800138  
     132A      0.814379   133A      0.823864   134A      0.829178  
     135A      0.836923   136A      0.842573   137A      0.850465  
     138A      0.855247   139A      0.862696   140A      0.864443  
     141A      0.874996   142A      0.876088   143A      0.889214  
     144A      0.891318   145A      0.897112   146A      0.911448  
     147A      0.914940   148A      0.920330   149A      0.920845  
     150A      0.932800   151A      0.940311   152A      0.941296  
     153A      0.950271   154A      0.956788   155A      0.963864  
     156A      0.970263   157A      0.977131   158A      0.983117  
     159A      0.984307   160A      0.993504   161A      1.001107  
     162A      1.005245   163A      1.009964   164A      1.020157  
     165A      1.023292   166A      1.027174   167A      1.036958  
     168A      1.047752   169A      1.057089   170A      1.065716  
     171A      1.068324   172A      1.076859   173A      1.087837  
     174A      1.091985   175A      1.095761   176A      1.112127  
     177A      1.115857   178A      1.120934   179A      1.124811  
     180A      1.129844   181A      1.136291   182A      1.140242  
     183A      1.150446   184A      1.154099   185A      1.164919  
     186A      1.176872   187A      1.183345   188A      1.189913  
     189A      1.195155   190A      1.203508   191A      1.209307  
     192A      1.218736   193A      1.231589   194A      1.237149  
     195A      1.243367   196A      1.252849   197A      1.263335  
     198A      1.268481   199A      1.276429   200A      1.276878  
     201A      1.287597   202A      1.295694   203A      1.302276  
     204A      1.311503   205A      1.320434   206A      1.325485  
     207A      1.351693   208A      1.362652   209A      1.387305  
     210A      1.406560   211A      1.409463   212A      1.422398  
     213A      1.428411   214A      1.471123   215A      1.494288  
     216A      1.507016   217A      1.521268   218A      1.525046  
     219A      1.539384   220A      1.558680   221A      1.564810  
     222A      1.584748   223A      1.598630   224A      1.612791  
     225A      1.651795   226A      1.687917   227A      1.721058  
     228A      1.744912   229A      1.754589   230A      1.769845  
     231A      1.782127   232A      1.797168   233A      1.819166  
     234A      1.826559   235A      1.835831   236A      1.843960  
     237A      1.848429   238A      1.857680   239A      1.861233  
     240A      1.862759   241A      1.878606   242A      1.890179  
     243A      1.900003   244A      1.914346   245A      1.920580  
     246A      1.936778   247A      1.941598   248A      1.958901  
     249A      1.977265   250A      2.003268   251A      2.026650  
     252A      2.048436   253A      2.099554   254A      2.113526  
     255A      2.201775   256A      2.230382   257A      2.278569  
     258A      2.341231   259A      2.362710   260A      2.367283  
     261A      2.390269   262A      2.398664   263A      2.411327  
     264A      2.430363   265A      2.436248   266A      2.455987  
     267A      2.466860   268A      2.487422   269A      2.505793  
     270A      2.512917   271A      2.517299   272A      2.526945  
     273A      2.535719   274A      2.544424   275A      2.549288  
     276A      2.565004   277A      2.577862   278A      2.587607  
     279A      2.594236   280A      2.601049   281A      2.611056  
     282A      2.614393   283A      2.622996   284A      2.632884  
     285A      2.640678   286A      2.650764   287A      2.663284  
     288A      2.678445   289A      2.687868   290A      2.707678  
     291A      2.724667   292A      2.730867   293A      2.760618  
     294A      2.766446   295A      2.788908   296A      2.805984  
     297A      2.817721   298A      2.841741   299A      2.860434  
     300A      2.883915   301A      2.887093   302A      2.901097  
     303A      2.905820   304A      2.927959   305A      2.945045  
     306A      2.964198   307A      2.972218   308A      2.995011  
     309A      3.015872   310A      3.046026   311A      3.140255  
     312A      3.158819   313A      3.175664   314A      3.195045  
     315A      3.204637   316A      3.216407   317A      3.244021  
     318A      3.251105   319A      3.262095   320A      3.279878  
     321A      3.290601   322A      3.295222   323A      3.312263  
     324A      3.330849   325A      3.347501   326A      3.356266  
     327A      3.369917   328A      3.391518   329A      3.399961  
     330A      3.403496   331A      3.448757   332A      3.537419  
     333A      3.581901   334A      3.605758   335A      3.673862  
     336A      3.676590   337A      3.697797   338A      3.714478  
     339A      3.762753   340A      3.804451   341A      3.815683  
     342A      3.921611   343A      4.120199   344A      4.271838  
     345A      4.289583   346A      4.297361   347A      4.341873  
     348A      4.359113   349A      4.383914   350A      4.401859  
     351A      4.419760   352A      4.459015   353A      4.476313  
     354A      4.490898   355A      4.493371   356A      4.505085  
     357A      4.536851   358A      4.542907   359A      4.548025  
     360A      4.559972   361A      4.566924   362A      4.582346  
     363A      4.602239   364A      4.612879   365A      4.637041  
     366A      4.644510   367A      4.665321   368A      4.688162  
     369A      4.693090   370A      4.707709   371A      4.721656  
     372A      4.732771   373A      4.741852   374A      4.769558  
     375A      4.782137   376A      4.814733   377A      4.869454  
     378A      4.920493   379A      4.933116   380A      4.950725  
     381A      4.964348   382A      4.979450   383A      4.998252  
     384A      5.017042   385A      5.022566   386A      5.051620  
     387A      5.054274   388A      5.068688   389A      5.086101  
     390A      5.140685   391A      5.157942   392A      5.168477  
     393A      5.206069   394A      5.239457   395A      5.247401  
     396A      5.323498   397A      5.383780   398A      5.429155  
     399A      5.441835   400A      5.463502   401A      5.484494  
     402A      5.530594   403A      5.543628   404A      5.570618  
     405A      5.574602   406A      5.623110   407A      5.647636  
     408A      5.673285   409A      5.693361   410A      5.725084  
     411A      5.730647   412A      5.757843   413A      5.794766  
     414A      5.860155   415A      5.886965   416A      6.121792  
     417A      6.135648   418A      6.162073   419A      6.165358  
     420A      6.216866   421A      6.274603   422A      6.343514  
     423A      6.409612   424A      6.423105   425A      6.583553  
     426A      6.615731   427A      6.648492   428A      6.764503  
     429A      6.807822   430A      6.854715   431A      6.952902  
     432A      6.967411   433A      7.057264   434A      7.104980  
     435A      7.164569   436A      7.237306   437A      7.346890  
     438A      7.365816   439A      7.371410   440A      7.407707  
     441A      7.418215   442A      7.614833   443A      7.661327  
     444A      7.693778   445A      7.702058   446A      7.720614  
     447A      7.738198   448A      7.797781   449A      7.804124  
     450A      7.846832   451A      7.944821   452A      7.963605  
     453A      8.053587   454A      8.090653   455A      8.116720  
     456A      8.139612   457A      8.180775   458A      8.194871  
     459A      8.206833   460A      8.258829   461A      8.282379  
     462A      8.288071   463A      8.293530   464A      8.334374  
     465A      8.644776   466A      8.659068   467A      8.663555  
     468A      8.740844   469A      8.743259   470A      8.825804  
     471A      8.830587   472A      8.871790   473A      8.967078  
     474A      9.736184   475A      9.783947   476A      9.809465  
     477A      9.842956   478A      9.899233   479A      9.915258  
     480A      9.938399   481A      9.972942   482A     10.028327  
     483A     10.029788   484A     10.038621   485A     10.071662  
     486A     10.116329   487A     10.205855   488A     10.236994  
     489A     10.255743   490A     10.440010   491A     10.960987  
     492A     10.967645   493A     11.139799   494A     11.258000  
     495A     11.653997   496A     11.683380   497A     11.697117  
     498A     11.756598   499A     11.908791   500A     12.069325  
     501A     12.185054   502A     12.303644   503A     13.351413  
     504A     13.404904   505A     13.540505   506A     13.683372  
     507A     13.853813   508A     13.891678   509A     13.919255  
     510A     13.965460   511A     16.171255   512A     30.861056  
     513A     30.968402   514A     31.249713   515A     63.658917  
     516A     63.926179   517A     64.736098   518A     65.995749  
     519A    198.185955  

    Final Occupation by Irrep:
              A 
    DOCC [     5 ]
    NA   [     5 ]
    NB   [     5 ]

  @DF-RHF Final Energy:   -76.06053915888148

   => Energetics <=

    Nuclear Repulsion Energy =              9.1669783796491302
    One-Electron Energy =                -122.9978275436392039
    Two-Electron Energy =                  37.7703100051085983
    Total Energy =                        -76.0605391588814825

Computation Completed


Properties will be evaluated at   0.000000,   0.000000,   0.000000 [a0]

Properties computed using the SCF density matrix


 Multipole Moments:

 ------------------------------------------------------------------------------------
     Multipole            Electronic (a.u.)      Nuclear  (a.u.)        Total (a.u.)
 ------------------------------------------------------------------------------------

 L = 1.  Multiply by 2.5417464519 to convert [e a0] to [Debye]
 Dipole X            :         47.2982436          -47.7142316           -0.4159880
 Dipole Y            :        -20.8037409           20.4636231           -0.3401178
 Dipole Z            :        -11.1388419           10.5851176           -0.5537243
 Magnitude           :                                                    0.7715806

 ------------------------------------------------------------------------------------

*** tstop() called on moses-razer at Wed Jan 24 15:52:57 2024
Module time:
	user time   =      45.26 seconds =       0.75 minutes
	system time =       2.47 seconds =       0.04 minutes
	total time  =         13 seconds =       0.22 minutes
Total time:
	user time   =      45.26 seconds =       0.75 minutes
	system time =       2.47 seconds =       0.04 minutes
	total time  =         13 seconds =       0.22 minutes

*** tstart() called on moses-razer
*** at Wed Jan 24 15:52:57 2024


  //>>>>>>>>>>>>>>>>>>>>>>>>>>>>>>>>>>>//
  //               DFMP2               //
  //<<<<<<<<<<<<<<<<<<<<<<<<<<<<<<<<<<<//

   => Loading Basis Set <=

    Name: (AUG-CC-PVTZ AUX)
    Role: RIFIT
    Keyword: DF_BASIS_MP2
    atoms 1                            entry K          line  1282 file /home/kchung25/anaconda3/envs/p415env/share/psi4/basis/def2-qzvpp-ri.gbs 
    atoms 2, 5, 8, 11, 14              entry O          line   264 file /home/kchung25/anaconda3/envs/p415env/share/psi4/basis/aug-cc-pvtz-ri.gbs 
    atoms 3-4, 6-7, 9-10, 12-13, 15-16 entry H          line    30 file /home/kchung25/anaconda3/envs/p415env/share/psi4/basis/aug-cc-pvtz-ri.gbs 

	 --------------------------------------------------------
	                          DF-MP2                         
	      2nd-Order Density-Fitted Moller-Plesset Theory     
	              RMP2 Wavefunction,   6 Threads             
	                                                         
	        Rob Parrish, Justin Turney, Andy Simmonett,      
	           Ed Hohenstein, and C. David Sherrill          
	 --------------------------------------------------------

   => Auxiliary Basis Set <=

  Basis Set: (AUG-CC-PVTZ AUX)
    Blend: AUG-CC-PVTZ-RI + DEF2-QZVPP-RI
    Number of shells: 329
    Number of basis functions: 1189
    Number of Cartesian functions: 1492
    Spherical Harmonics?: true
    Max angular momentum: 4

	 --------------------------------------------------------
	                 NBF =   519, NAUX =  1189
	 --------------------------------------------------------
	   CLASS    FOCC     OCC    AOCC    AVIR     VIR    FVIR
	   PAIRS       0       5       5     514     514       0
	 --------------------------------------------------------

	-----------------------------------------------------------
	 ==================> DF-MP2 Energies <==================== 
	-----------------------------------------------------------
	 Reference Energy          =     -76.0605391588814825 [Eh]
	 Singles Energy            =      -0.0000000000000000 [Eh]
	 Same-Spin Energy          =      -0.0684033284440820 [Eh]
	 Opposite-Spin Energy      =      -0.2156832716194809 [Eh]
	 Correlation Energy        =      -0.2840866000635629 [Eh]
	 Total Energy              =     -76.3446257589450425 [Eh]
	-----------------------------------------------------------
	 ================> DF-SCS-MP2 Energies <================== 
	-----------------------------------------------------------
	 SCS Same-Spin Scale       =       0.3333333333333333 [-]
	 SCS Opposite-Spin Scale   =       1.2000000000000000 [-]
	 SCS Same-Spin Energy      =      -0.0228011094813607 [Eh]
	 SCS Opposite-Spin Energy  =      -0.2588199259433770 [Eh]
	 SCS Correlation Energy    =      -0.2816210354247377 [Eh]
	 SCS Total Energy          =     -76.3421601943062171 [Eh]
	-----------------------------------------------------------


*** tstop() called on moses-razer at Wed Jan 24 15:53:05 2024
Module time:
	user time   =      19.76 seconds =       0.33 minutes
	system time =       1.49 seconds =       0.02 minutes
	total time  =          8 seconds =       0.13 minutes
Total time:
	user time   =      65.03 seconds =       1.08 minutes
	system time =       3.96 seconds =       0.07 minutes
	total time  =         21 seconds =       0.35 minutes

    Psi4 stopped on: Wednesday, 24 January 2024 03:53PM
    Psi4 wall time for execution: 0:00:21.73

*** Psi4 exiting successfully. Buy a developer a beer!
