
    -----------------------------------------------------------------------
          Psi4: An Open-Source Ab Initio Electronic Structure Package
                               Psi4 1.9 release

                         Git: Rev {} zzzzzzz 


    D. G. A. Smith, L. A. Burns, A. C. Simmonett, R. M. Parrish,
    M. C. Schieber, R. Galvelis, P. Kraus, H. Kruse, R. Di Remigio,
    A. Alenaizan, A. M. James, S. Lehtola, J. P. Misiewicz, M. Scheurer,
    R. A. Shaw, J. B. Schriber, Y. Xie, Z. L. Glick, D. A. Sirianni,
    J. S. O'Brien, J. M. Waldrop, A. Kumar, E. G. Hohenstein,
    B. P. Pritchard, B. R. Brooks, H. F. Schaefer III, A. Yu. Sokolov,
    K. Patkowski, A. E. DePrince III, U. Bozkaya, R. A. King,
    F. A. Evangelista, J. M. Turney, T. D. Crawford, C. D. Sherrill,
    J. Chem. Phys. 152(18) 184108 (2020). https://doi.org/10.1063/5.0006002

                            Additional Code Authors
    E. T. Seidl, C. L. Janssen, E. F. Valeev, M. L. Leininger,
    J. F. Gonthier, R. M. Richard, H. R. McAlexander, M. Saitow, X. Wang,
    P. Verma, M. H. Lechner, A. Jiang, S. Behnle, A. G. Heide,
    M. F. Herbst, and D. L. Poole

             Previous Authors, Complete List of Code Contributors,
                       and Citations for Specific Modules
    https://github.com/psi4/psi4/blob/master/codemeta.json
    https://github.com/psi4/psi4/graphs/contributors
    http://psicode.org/psi4manual/master/introduction.html#citing-psifour

    -----------------------------------------------------------------------


    Psi4 started on: Wednesday, 24 January 2024 07:04PM

    Process ID: 1248388
    Host:       moses-razer
    PSIDATADIR: /home/kchung25/anaconda3/envs/psi4_19/share/psi4
    Memory:     500.0 MiB
    Threads:    6
    
  ==> Input File <==

--------------------------------------------------------------------------
MEMORY 60 GB

molecule dimer {
1 1
K          0.000000     0.000000     0.000000
Gh(O)      1.071555     0.954094    -2.190576
Gh(H)      0.988044     0.627626    -3.082246
Gh(H)      2.033843     1.175330    -2.123700
Gh(O)      0.274950    -2.378870     1.386517
Gh(H)      1.061758    -2.885643     1.678485
Gh(H)     -0.286488    -2.176641     2.185497
Gh(O)     -2.600308    -0.631598     1.158703
Gh(H)     -3.127240     0.272988     1.162722
Gh(H)     -3.320091    -1.304406     1.282020
Gh(O)      1.663337     0.245190     1.974484
Gh(H)      1.864456    -0.680749     1.983483
Gh(H)      0.980603     0.492300     2.612029
Gh(O)     -1.135864     2.411578    -0.478100
Gh(H)     -1.659332     3.079461    -0.022507
Gh(H)     -0.274050     2.843524    -0.678120

units ang
no_reorient
no_com
symmetry c1
}

set {
basis        aug-cc-pVTZ
scf_type     df
}

energy("mp2")
--------------------------------------------------------------------------

  Memory set to  55.879 GiB by Python driver.

Scratch directory: /scratch/
   => Libint2 <=

    Primary   basis highest AM E, G, H:  5, 4, 3
    Auxiliary basis highest AM E, G, H:  6, 5, 4
    Onebody   basis highest AM E, G, H:  6, 5, 4
    Solid Harmonics ordering:            gaussian

*** tstart() called on moses-razer
*** at Wed Jan 24 19:04:14 2024

   => Loading Basis Set <=

    Name: AUG-CC-PVTZ
    Role: ORBITAL
    Keyword: BASIS
    atoms 1                            entry K          line  1152 file /home/kchung25/anaconda3/envs/p415env/share/psi4/basis/aug-cc-pvtz.gbs 
    atoms 2, 5, 8, 11, 14              entry O          line   331 file /home/kchung25/anaconda3/envs/p415env/share/psi4/basis/aug-cc-pvtz.gbs 
    atoms 3-4, 6-7, 9-10, 12-13, 15-16 entry H          line    40 file /home/kchung25/anaconda3/envs/p415env/share/psi4/basis/aug-cc-pvtz.gbs 


         ---------------------------------------------------------
                                   SCF
               by Justin Turney, Rob Parrish, Andy Simmonett
                          and Daniel G. A. Smith
                              RHF Reference
                        6 Threads,  57220 MiB Core
         ---------------------------------------------------------

  ==> Geometry <==

    Molecular point group: c1
    Full point group: C1

    Geometry (in Angstrom), charge = 1, multiplicity = 1:

       Center              X                  Y                   Z               Mass       
    ------------   -----------------  -----------------  -----------------  -----------------
         K            0.000000000000     0.000000000000     0.000000000000    38.963706486400
      Gh(O)           1.071555000000     0.954094000000    -2.190576000000    15.994914619570
      Gh(H)           0.988044000000     0.627626000000    -3.082246000000     1.007825032230
      Gh(H)           2.033843000000     1.175330000000    -2.123700000000     1.007825032230
      Gh(O)           0.274950000000    -2.378870000000     1.386517000000    15.994914619570
      Gh(H)           1.061758000000    -2.885643000000     1.678485000000     1.007825032230
      Gh(H)          -0.286488000000    -2.176641000000     2.185497000000     1.007825032230
      Gh(O)          -2.600308000000    -0.631598000000     1.158703000000    15.994914619570
      Gh(H)          -3.127240000000     0.272988000000     1.162722000000     1.007825032230
      Gh(H)          -3.320091000000    -1.304406000000     1.282020000000     1.007825032230
      Gh(O)           1.663337000000     0.245190000000     1.974484000000    15.994914619570
      Gh(H)           1.864456000000    -0.680749000000     1.983483000000     1.007825032230
      Gh(H)           0.980603000000     0.492300000000     2.612029000000     1.007825032230
      Gh(O)          -1.135864000000     2.411578000000    -0.478100000000    15.994914619570
      Gh(H)          -1.659332000000     3.079461000000    -0.022507000000     1.007825032230
      Gh(H)          -0.274050000000     2.843524000000    -0.678120000000     1.007825032230

  Running in c1 symmetry.

  Rotational constants: A =      0.05022  B =      0.03602  C =      0.02837 [cm^-1]
  Rotational constants: A =   1505.50152  B =   1079.73836  C =    850.53570 [MHz]
  Nuclear repulsion =    0.000000000000000

  Charge       = 1
  Multiplicity = 1
  Electrons    = 18
  Nalpha       = 9
  Nbeta        = 9

  ==> Algorithm <==

  SCF Algorithm Type is DF.
  DIIS enabled.
  MOM disabled.
  Fractional occupation disabled.
  Guess Type is SAD.
  Energy threshold   = 1.00e-08
  Density threshold  = 1.00e-08
  Integral threshold = 1.00e-12

  ==> Primary Basis <==

  Basis Set: AUG-CC-PVTZ
    Blend: AUG-CC-PVTZ
    Number of shells: 179
    Number of basis functions: 519
    Number of Cartesian functions: 594
    Spherical Harmonics?: true
    Max angular momentum: 3

   => Loading Basis Set <=

    Name: (AUG-CC-PVTZ AUX)
    Role: JKFIT
    Keyword: DF_BASIS_SCF
    atoms 1                            entry K          line  1152 file /home/kchung25/anaconda3/envs/p415env/share/psi4/basis/def2-universal-jkfit.gbs 
    atoms 2, 5, 8, 11, 14              entry O          line   286 file /home/kchung25/anaconda3/envs/p415env/share/psi4/basis/aug-cc-pvtz-jkfit.gbs 
    atoms 3-4, 6-7, 9-10, 12-13, 15-16 entry H          line    70 file /home/kchung25/anaconda3/envs/p415env/share/psi4/basis/aug-cc-pvtz-jkfit.gbs 

  ==> Integral Setup <==

  DFHelper Memory: AOs need 2.091 GiB; user supplied 41.910 GiB. 
  Using in-core AOs.

  ==> MemDFJK: Density-Fitted J/K Matrices <==

    J tasked:                   Yes
    K tasked:                   Yes
    wK tasked:                   No
    OpenMP threads:               6
    Memory [MiB]:             42915
    Algorithm:                 Core
    Schwarz Cutoff:           1E-12
    Mask sparsity (%):      11.9394
    Fitting Condition:        1E-10

   => Auxiliary Basis Set <=

  Basis Set: (AUG-CC-PVTZ AUX)
    Blend: AUG-CC-PVTZ-JKFIT + DEF2-UNIVERSAL-JKFIT
    Number of shells: 334
    Number of basis functions: 1140
    Number of Cartesian functions: 1408
    Spherical Harmonics?: true
    Max angular momentum: 4

  Minimum eigenvalue in the overlap matrix is 6.6093885195E-05.
  Reciprocal condition number of the overlap matrix is 4.8491093636E-06.
    Using symmetric orthogonalization.

  ==> Pre-Iterations <==

  SCF Guess: Superposition of Atomic Densities via on-the-fly atomic UHF (no occupation information).

   -------------------------
    Irrep   Nso     Nmo    
   -------------------------
     A        519     519 
   -------------------------
    Total     519     519
   -------------------------

  ==> Iterations <==

                           Total Energy        Delta E     RMS |[F,P]|

   @DF-RHF iter SAD:  -599.05178215927151   -5.99052e+02   0.00000e+00 
   @DF-RHF iter   1:  -599.01745776876328    3.43244e-02   2.16403e-05 DIIS
   @DF-RHF iter   2:  -599.01751481792417   -5.70492e-05   2.44991e-06 DIIS
   @DF-RHF iter   3:  -599.01751610904137   -1.29112e-06   4.32161e-07 DIIS
   @DF-RHF iter   4:  -599.01751613969327   -3.06519e-08   2.46357e-08 DIIS
   @DF-RHF iter   5:  -599.01751613981082   -1.17552e-10   4.30467e-09 DIIS
  Energy and wave function converged.


  ==> Post-Iterations <==

    Orbital Energies [Eh]
    ---------------------

    Doubly Occupied:                                                      

       1A   -133.752545     2A    -14.708239     3A    -11.738300  
       4A    -11.738298     5A    -11.738297     6A     -1.963906  
       7A     -1.170626     8A     -1.170603     9A     -1.170582  

    Virtual:                                                              

      10A     -0.146959    11A     -0.095557    12A     -0.095553  
      13A     -0.095549    14A     -0.060669    15A     -0.057985  
      16A     -0.057966    17A     -0.057950    18A     -0.057918  
      19A     -0.057880    20A     -0.045542    21A     -0.045539  
      22A     -0.045538    23A     -0.031364    24A     -0.031351  
      25A     -0.031327    26A     -0.031277    27A     -0.031266  
      28A     -0.019156    29A     -0.018949    30A     -0.018339  
      31A     -0.017044    32A     -0.015011    33A     -0.014377  
      34A     -0.012762    35A     -0.009153    36A     -0.008751  
      37A     -0.004634    38A     -0.000098    39A      0.005373  
      40A      0.007554    41A      0.007653    42A      0.010439  
      43A      0.012505    44A      0.022447    45A      0.029255  
      46A      0.038224    47A      0.041579    48A      0.045880  
      49A      0.051268    50A      0.051430    51A      0.056269  
      52A      0.058855    53A      0.062035    54A      0.073192  
      55A      0.078517    56A      0.082269    57A      0.086404  
      58A      0.087858    59A      0.091881    60A      0.096149  
      61A      0.099580    62A      0.102080    63A      0.107126  
      64A      0.110657    65A      0.118851    66A      0.123249  
      67A      0.126687    68A      0.131227    69A      0.142959  
      70A      0.151633    71A      0.155837    72A      0.165856  
      73A      0.172847    74A      0.182776    75A      0.189891  
      76A      0.190464    77A      0.195175    78A      0.198256  
      79A      0.206577    80A      0.211471    81A      0.218105  
      82A      0.221052    83A      0.228202    84A      0.233975  
      85A      0.235806    86A      0.242373    87A      0.243041  
      88A      0.251670    89A      0.255464    90A      0.264621  
      91A      0.267544    92A      0.274086    93A      0.282206  
      94A      0.283502    95A      0.287303    96A      0.290480  
      97A      0.294992    98A      0.297978    99A      0.304037  
     100A      0.308423   101A      0.315720   102A      0.323137  
     103A      0.325766   104A      0.328237   105A      0.330602  
     106A      0.335736   107A      0.339652   108A      0.344306  
     109A      0.350901   110A      0.354098   111A      0.357179  
     112A      0.360830   113A      0.364298   114A      0.368199  
     115A      0.375752   116A      0.388025   117A      0.392256  
     118A      0.393088   119A      0.411451   120A      0.414081  
     121A      0.420918   122A      0.428339   123A      0.433398  
     124A      0.443064   125A      0.450240   126A      0.458380  
     127A      0.470603   128A      0.510715   129A      0.556954  
     130A      0.568537   131A      0.577853   132A      0.589965  
     133A      0.593971   134A      0.609860   135A      0.617303  
     136A      0.624073   137A      0.640089   138A      0.648038  
     139A      0.654617   140A      0.667750   141A      0.670451  
     142A      0.679537   143A      0.690545   144A      0.697934  
     145A      0.701780   146A      0.708643   147A      0.710646  
     148A      0.719979   149A      0.727429   150A      0.735827  
     151A      0.737464   152A      0.745671   153A      0.753514  
     154A      0.756230   155A      0.763112   156A      0.767117  
     157A      0.787754   158A      0.790221   159A      0.793892  
     160A      0.795280   161A      0.796630   162A      0.803706  
     163A      0.808409   164A      0.816667   165A      0.823924  
     166A      0.835606   167A      0.837136   168A      0.843803  
     169A      0.853798   170A      0.857884   171A      0.869359  
     172A      0.873023   173A      0.875107   174A      0.887653  
     175A      0.901170   176A      0.908826   177A      0.918038  
     178A      0.921445   179A      0.924400   180A      0.926763  
     181A      0.933464   182A      0.943463   183A      0.946190  
     184A      0.962901   185A      0.964774   186A      0.976518  
     187A      0.987520   188A      0.990597   189A      1.002631  
     190A      1.006037   191A      1.010887   192A      1.020522  
     193A      1.031961   194A      1.043660   195A      1.047313  
     196A      1.054162   197A      1.060065   198A      1.069062  
     199A      1.078362   200A      1.084923   201A      1.096843  
     202A      1.103168   203A      1.107844   204A      1.118877  
     205A      1.119190   206A      1.130865   207A      1.139777  
     208A      1.153389   209A      1.155836   210A      1.161464  
     211A      1.169256   212A      1.178904   213A      1.190951  
     214A      1.196211   215A      1.211242   216A      1.217020  
     217A      1.236273   218A      1.247952   219A      1.268174  
     220A      1.283199   221A      1.299090   222A      1.320668  
     223A      1.342470   224A      1.353606   225A      1.372841  
     226A      1.391082   227A      1.397512   228A      1.411408  
     229A      1.416476   230A      1.432138   231A      1.474316  
     232A      1.496314   233A      1.500215   234A      1.543827  
     235A      1.589616   236A      1.609422   237A      1.616816  
     238A      1.624590   239A      1.634391   240A      1.647269  
     241A      1.661781   242A      1.675838   243A      1.683894  
     244A      1.690343   245A      1.692475   246A      1.701464  
     247A      1.708385   248A      1.722051   249A      1.733045  
     250A      1.737974   251A      1.740938   252A      1.753782  
     253A      1.764919   254A      1.785022   255A      1.797662  
     256A      1.803862   257A      1.826251   258A      1.842684  
     259A      1.872380   260A      1.892044   261A      1.905442  
     262A      1.932814   263A      1.940999   264A      1.988330  
     265A      2.209987   266A      2.221626   267A      2.255307  
     268A      2.281624   269A      2.288370   270A      2.294118  
     271A      2.301700   272A      2.313344   273A      2.318720  
     274A      2.340924   275A      2.342470   276A      2.357717  
     277A      2.372695   278A      2.380896   279A      2.384025  
     280A      2.393090   281A      2.407299   282A      2.416658  
     283A      2.420421   284A      2.427716   285A      2.429275  
     286A      2.455800   287A      2.456900   288A      2.464448  
     289A      2.479317   290A      2.494029   291A      2.497587  
     292A      2.501976   293A      2.512152   294A      2.532638  
     295A      2.553064   296A      2.564496   297A      2.607695  
     298A      2.611852   299A      2.629546   300A      2.674338  
     301A      2.677375   302A      2.685342   303A      2.704461  
     304A      2.720401   305A      2.747504   306A      2.768018  
     307A      2.772874   308A      2.795329   309A      2.839482  
     310A      2.980820   311A      2.992567   312A      3.009241  
     313A      3.018862   314A      3.028939   315A      3.034782  
     316A      3.041837   317A      3.044268   318A      3.049407  
     319A      3.089045   320A      3.104863   321A      3.124507  
     322A      3.128170   323A      3.130543   324A      3.140748  
     325A      3.153621   326A      3.155698   327A      3.163658  
     328A      3.165352   329A      3.183016   330A      3.193509  
     331A      3.195709   332A      3.200881   333A      3.226074  
     334A      3.267822   335A      3.411424   336A      3.430465  
     337A      3.483875   338A      3.491340   339A      3.519347  
     340A      3.533629   341A      3.540274   342A      3.566446  
     343A      3.572565   344A      3.591579   345A      4.182245  
     346A      4.205269   347A      4.218998   348A      4.224878  
     349A      4.268939   350A      4.283405   351A      4.312943  
     352A      4.336992   353A      4.345391   354A      4.361805  
     355A      4.368392   356A      4.377301   357A      4.382534  
     358A      4.403356   359A      4.411632   360A      4.438598  
     361A      4.448774   362A      4.475734   363A      4.496239  
     364A      4.500261   365A      4.511495   366A      4.530923  
     367A      4.533867   368A      4.548472   369A      4.552376  
     370A      4.566182   371A      4.571733   372A      4.597286  
     373A      4.614839   374A      4.630637   375A      4.772464  
     376A      4.779902   377A      4.794218   378A      4.799839  
     379A      4.807052   380A      4.825162   381A      4.831529  
     382A      4.834208   383A      4.839583   384A      4.844476  
     385A      4.877279   386A      4.891177   387A      4.910695  
     388A      4.941861   389A      4.982515   390A      5.042528  
     391A      5.051312   392A      5.080428   393A      5.098501  
     394A      5.106653   395A      5.197592   396A      5.212819  
     397A      5.269808   398A      5.316407   399A      5.336324  
     400A      5.350588   401A      5.356005   402A      5.372176  
     403A      5.384805   404A      5.390926   405A      5.404989  
     406A      5.482472   407A      5.488256   408A      5.532235  
     409A      5.555737   410A      5.585414   411A      5.616184  
     412A      5.641650   413A      5.688031   414A      5.705220  
     415A      5.937621   416A      5.949000   417A      5.969981  
     418A      5.991783   419A      6.019068   420A      6.047580  
     421A      6.105369   422A      6.168775   423A      6.178583  
     424A      6.203310   425A      6.236104   426A      6.437490  
     427A      6.510751   428A      6.519350   429A      6.679419  
     430A      6.688741   431A      6.813543   432A      6.871232  
     433A      6.881699   434A      6.941835   435A      7.475952  
     436A      7.490616   437A      7.492161   438A      7.511142  
     439A      7.529199   440A      7.582712   441A      7.593499  
     442A      7.621288   443A      7.631311   444A      7.641619  
     445A      7.794034   446A      7.859718   447A      7.866752  
     448A      7.883385   449A      7.913091   450A      7.947938  
     451A      7.983934   452A      7.993126   453A      7.998464  
     454A      8.011474   455A      8.058351   456A      8.068393  
     457A      8.086251   458A      8.107212   459A      8.180609  
     460A      8.254930   461A      8.448879   462A      8.464250  
     463A      8.488617   464A      8.516682   465A      8.539543  
     466A      8.602187   467A      8.613075   468A      8.631625  
     469A      8.815677   470A      9.544542   471A      9.557973  
     472A      9.600311   473A      9.624928   474A      9.666122  
     475A      9.723066   476A      9.733288   477A      9.749680  
     478A      9.751177   479A      9.771307   480A      9.818263  
     481A      9.827356   482A      9.835774   483A      9.853277  
     484A      9.890794   485A      9.996496   486A     10.016376  
     487A     10.022056   488A     10.047514   489A     10.069632  
     490A     10.657096   491A     10.829116   492A     10.944236  
     493A     10.950060   494A     10.957493   495A     11.360698  
     496A     11.375839   497A     11.478561   498A     11.498055  
     499A     11.556156   500A     11.667728   501A     11.733846  
     502A     11.829456   503A     11.904259   504A     12.094549  
     505A     13.110535   506A     13.284554   507A     13.288771  
     508A     13.355161   509A     13.487564   510A     13.664384  
     511A     13.690000   512A     13.710215   513A     13.723635  
     514A     13.757357   515A     61.792235   516A     63.643335  
     517A     64.099345   518A     64.214068   519A     66.091186  

    Final Occupation by Irrep:
              A 
    DOCC [     9 ]
    NA   [     9 ]
    NB   [     9 ]

  @DF-RHF Final Energy:  -599.01751613981082

   => Energetics <=

    Nuclear Repulsion Energy =              0.0000000000000000
    One-Electron Energy =                -819.7322397378941332
    Two-Electron Energy =                 220.7147235980833671
    Total Energy =                       -599.0175161398108230

Computation Completed


Properties will be evaluated at   0.000000,   0.000000,   0.000000 [a0]

Properties computed using the SCF density matrix


 Multipole Moments:

 ------------------------------------------------------------------------------------
     Multipole            Electronic (a.u.)      Nuclear  (a.u.)        Total (a.u.)
 ------------------------------------------------------------------------------------

 L = 1.  Multiply by 2.5417464519 to convert [e a0] to [Debye]
 Dipole X            :          0.0000529            0.0000000            0.0000529
 Dipole Y            :          0.0000712            0.0000000            0.0000712
 Dipole Z            :          0.0001130            0.0000000            0.0001130
 Magnitude           :                                                    0.0001436

 ------------------------------------------------------------------------------------

*** tstop() called on moses-razer at Wed Jan 24 19:04:28 2024
Module time:
	user time   =      41.92 seconds =       0.70 minutes
	system time =       3.74 seconds =       0.06 minutes
	total time  =         14 seconds =       0.23 minutes
Total time:
	user time   =      41.92 seconds =       0.70 minutes
	system time =       3.74 seconds =       0.06 minutes
	total time  =         14 seconds =       0.23 minutes

*** tstart() called on moses-razer
*** at Wed Jan 24 19:04:28 2024


  //>>>>>>>>>>>>>>>>>>>>>>>>>>>>>>>>>>>//
  //               DFMP2               //
  //<<<<<<<<<<<<<<<<<<<<<<<<<<<<<<<<<<<//

   => Loading Basis Set <=

    Name: (AUG-CC-PVTZ AUX)
    Role: RIFIT
    Keyword: DF_BASIS_MP2
    atoms 1                            entry K          line  1282 file /home/kchung25/anaconda3/envs/p415env/share/psi4/basis/def2-qzvpp-ri.gbs 
    atoms 2, 5, 8, 11, 14              entry O          line   264 file /home/kchung25/anaconda3/envs/p415env/share/psi4/basis/aug-cc-pvtz-ri.gbs 
    atoms 3-4, 6-7, 9-10, 12-13, 15-16 entry H          line    30 file /home/kchung25/anaconda3/envs/p415env/share/psi4/basis/aug-cc-pvtz-ri.gbs 

	 --------------------------------------------------------
	                          DF-MP2                         
	      2nd-Order Density-Fitted Moller-Plesset Theory     
	              RMP2 Wavefunction,   6 Threads             
	                                                         
	        Rob Parrish, Justin Turney, Andy Simmonett,      
	           Ed Hohenstein, and C. David Sherrill          
	 --------------------------------------------------------

   => Auxiliary Basis Set <=

  Basis Set: (AUG-CC-PVTZ AUX)
    Blend: AUG-CC-PVTZ-RI + DEF2-QZVPP-RI
    Number of shells: 329
    Number of basis functions: 1189
    Number of Cartesian functions: 1492
    Spherical Harmonics?: true
    Max angular momentum: 4

	 --------------------------------------------------------
	                 NBF =   519, NAUX =  1189
	 --------------------------------------------------------
	   CLASS    FOCC     OCC    AOCC    AVIR     VIR    FVIR
	   PAIRS       0       9       9     510     510       0
	 --------------------------------------------------------

	-----------------------------------------------------------
	 ==================> DF-MP2 Energies <==================== 
	-----------------------------------------------------------
	 Reference Energy          =    -599.0175161398108230 [Eh]
	 Singles Energy            =      -0.0000000000000000 [Eh]
	 Same-Spin Energy          =      -0.0376704383656744 [Eh]
	 Opposite-Spin Energy      =      -0.0920437995518471 [Eh]
	 Correlation Energy        =      -0.1297142379175216 [Eh]
	 Total Energy              =    -599.1472303777283059 [Eh]
	-----------------------------------------------------------
	 ================> DF-SCS-MP2 Energies <================== 
	-----------------------------------------------------------
	 SCS Same-Spin Scale       =       0.3333333333333333 [-]
	 SCS Opposite-Spin Scale   =       1.2000000000000000 [-]
	 SCS Same-Spin Energy      =      -0.0125568127885581 [Eh]
	 SCS Opposite-Spin Energy  =      -0.1104525594622166 [Eh]
	 SCS Correlation Energy    =      -0.1230093722507747 [Eh]
	 SCS Total Energy          =    -599.1405255120615720 [Eh]
	-----------------------------------------------------------


*** tstop() called on moses-razer at Wed Jan 24 19:04:36 2024
Module time:
	user time   =      18.57 seconds =       0.31 minutes
	system time =       1.38 seconds =       0.02 minutes
	total time  =          8 seconds =       0.13 minutes
Total time:
	user time   =      60.49 seconds =       1.01 minutes
	system time =       5.12 seconds =       0.09 minutes
	total time  =         22 seconds =       0.37 minutes

    Psi4 stopped on: Wednesday, 24 January 2024 07:04PM
    Psi4 wall time for execution: 0:00:21.75

*** Psi4 exiting successfully. Buy a developer a beer!
