
    -----------------------------------------------------------------------
          Psi4: An Open-Source Ab Initio Electronic Structure Package
                               Psi4 1.9 release

                         Git: Rev {} zzzzzzz 


    D. G. A. Smith, L. A. Burns, A. C. Simmonett, R. M. Parrish,
    M. C. Schieber, R. Galvelis, P. Kraus, H. Kruse, R. Di Remigio,
    A. Alenaizan, A. M. James, S. Lehtola, J. P. Misiewicz, M. Scheurer,
    R. A. Shaw, J. B. Schriber, Y. Xie, Z. L. Glick, D. A. Sirianni,
    J. S. O'Brien, J. M. Waldrop, A. Kumar, E. G. Hohenstein,
    B. P. Pritchard, B. R. Brooks, H. F. Schaefer III, A. Yu. Sokolov,
    K. Patkowski, A. E. DePrince III, U. Bozkaya, R. A. King,
    F. A. Evangelista, J. M. Turney, T. D. Crawford, C. D. Sherrill,
    J. Chem. Phys. 152(18) 184108 (2020). https://doi.org/10.1063/5.0006002

                            Additional Code Authors
    E. T. Seidl, C. L. Janssen, E. F. Valeev, M. L. Leininger,
    J. F. Gonthier, R. M. Richard, H. R. McAlexander, M. Saitow, X. Wang,
    P. Verma, M. H. Lechner, A. Jiang, S. Behnle, A. G. Heide,
    M. F. Herbst, and D. L. Poole

             Previous Authors, Complete List of Code Contributors,
                       and Citations for Specific Modules
    https://github.com/psi4/psi4/blob/master/codemeta.json
    https://github.com/psi4/psi4/graphs/contributors
    http://psicode.org/psi4manual/master/introduction.html#citing-psifour

    -----------------------------------------------------------------------


    Psi4 started on: Wednesday, 24 January 2024 03:28PM

    Process ID: 1224502
    Host:       moses-razer
    PSIDATADIR: /home/kchung25/anaconda3/envs/psi4_19/share/psi4
    Memory:     500.0 MiB
    Threads:    6
    
  ==> Input File <==

--------------------------------------------------------------------------
MEMORY 60 GB

molecule dimer {
0 1
Gh(K)      0.000000     0.000000     0.000000
O          1.573041     1.595164    -1.828830
H          1.782496     2.427484    -1.472982
H          2.404379     1.442044    -2.240169
Gh(O)      2.542675    -0.726399     0.160104
Gh(H)      2.495524    -0.827647    -0.784085
Gh(H)      2.947300    -1.512593     0.461683
Gh(O)     -0.696117    -1.387787     2.142827
Gh(H)     -1.572201    -1.578739     1.777997
Gh(H)     -0.721888    -1.146147     3.057868
Gh(O)     -2.445245    -1.000611    -0.272942
Gh(H)     -2.636754    -1.958729    -0.204424
Gh(H)     -3.151468    -0.659976    -0.827128
Gh(O)     -1.095844     1.180662    -2.400144
Gh(H)     -0.169066     1.239994    -2.615175
Gh(H)     -1.309802     0.269347    -2.619630

units ang
no_reorient
no_com
symmetry c1
}

set {
basis        aug-cc-pVTZ
scf_type     df
}

energy("mp2")
--------------------------------------------------------------------------

  Memory set to  55.879 GiB by Python driver.

Scratch directory: /scratch/
   => Libint2 <=

    Primary   basis highest AM E, G, H:  5, 4, 3
    Auxiliary basis highest AM E, G, H:  6, 5, 4
    Onebody   basis highest AM E, G, H:  6, 5, 4
    Solid Harmonics ordering:            gaussian

*** tstart() called on moses-razer
*** at Wed Jan 24 15:28:49 2024

   => Loading Basis Set <=

    Name: AUG-CC-PVTZ
    Role: ORBITAL
    Keyword: BASIS
    atoms 1                            entry K          line  1152 file /home/kchung25/anaconda3/envs/p415env/share/psi4/basis/aug-cc-pvtz.gbs 
    atoms 2, 5, 8, 11, 14              entry O          line   331 file /home/kchung25/anaconda3/envs/p415env/share/psi4/basis/aug-cc-pvtz.gbs 
    atoms 3-4, 6-7, 9-10, 12-13, 15-16 entry H          line    40 file /home/kchung25/anaconda3/envs/p415env/share/psi4/basis/aug-cc-pvtz.gbs 


         ---------------------------------------------------------
                                   SCF
               by Justin Turney, Rob Parrish, Andy Simmonett
                          and Daniel G. A. Smith
                              RHF Reference
                        6 Threads,  57220 MiB Core
         ---------------------------------------------------------

  ==> Geometry <==

    Molecular point group: c1
    Full point group: C1

    Geometry (in Angstrom), charge = 0, multiplicity = 1:

       Center              X                  Y                   Z               Mass       
    ------------   -----------------  -----------------  -----------------  -----------------
      Gh(K)           0.000000000000     0.000000000000     0.000000000000    38.963706486400
         O            1.573041000000     1.595164000000    -1.828830000000    15.994914619570
         H            1.782496000000     2.427484000000    -1.472982000000     1.007825032230
         H            2.404379000000     1.442044000000    -2.240169000000     1.007825032230
      Gh(O)           2.542675000000    -0.726399000000     0.160104000000    15.994914619570
      Gh(H)           2.495524000000    -0.827647000000    -0.784085000000     1.007825032230
      Gh(H)           2.947300000000    -1.512593000000     0.461683000000     1.007825032230
      Gh(O)          -0.696117000000    -1.387787000000     2.142827000000    15.994914619570
      Gh(H)          -1.572201000000    -1.578739000000     1.777997000000     1.007825032230
      Gh(H)          -0.721888000000    -1.146147000000     3.057868000000     1.007825032230
      Gh(O)          -2.445245000000    -1.000611000000    -0.272942000000    15.994914619570
      Gh(H)          -2.636754000000    -1.958729000000    -0.204424000000     1.007825032230
      Gh(H)          -3.151468000000    -0.659976000000    -0.827128000000     1.007825032230
      Gh(O)          -1.095844000000     1.180662000000    -2.400144000000    15.994914619570
      Gh(H)          -0.169066000000     1.239994000000    -2.615175000000     1.007825032230
      Gh(H)          -1.309802000000     0.269347000000    -2.619630000000     1.007825032230

  Running in c1 symmetry.

  Rotational constants: A =      0.05324  B =      0.04029  C =      0.02487 [cm^-1]
  Rotational constants: A =   1596.19955  B =   1207.78450  C =    745.67334 [MHz]
  Nuclear repulsion =    9.438903196584835

  Charge       = 0
  Multiplicity = 1
  Electrons    = 10
  Nalpha       = 5
  Nbeta        = 5

  ==> Algorithm <==

  SCF Algorithm Type is DF.
  DIIS enabled.
  MOM disabled.
  Fractional occupation disabled.
  Guess Type is SAD.
  Energy threshold   = 1.00e-08
  Density threshold  = 1.00e-08
  Integral threshold = 1.00e-12

  ==> Primary Basis <==

  Basis Set: AUG-CC-PVTZ
    Blend: AUG-CC-PVTZ
    Number of shells: 179
    Number of basis functions: 519
    Number of Cartesian functions: 594
    Spherical Harmonics?: true
    Max angular momentum: 3

   => Loading Basis Set <=

    Name: (AUG-CC-PVTZ AUX)
    Role: JKFIT
    Keyword: DF_BASIS_SCF
    atoms 1                            entry K          line  1152 file /home/kchung25/anaconda3/envs/p415env/share/psi4/basis/def2-universal-jkfit.gbs 
    atoms 2, 5, 8, 11, 14              entry O          line   286 file /home/kchung25/anaconda3/envs/p415env/share/psi4/basis/aug-cc-pvtz-jkfit.gbs 
    atoms 3-4, 6-7, 9-10, 12-13, 15-16 entry H          line    70 file /home/kchung25/anaconda3/envs/p415env/share/psi4/basis/aug-cc-pvtz-jkfit.gbs 

  ==> Integral Setup <==

  DFHelper Memory: AOs need 2.097 GiB; user supplied 41.910 GiB. 
  Using in-core AOs.

  ==> MemDFJK: Density-Fitted J/K Matrices <==

    J tasked:                   Yes
    K tasked:                   Yes
    wK tasked:                   No
    OpenMP threads:               6
    Memory [MiB]:             42915
    Algorithm:                 Core
    Schwarz Cutoff:           1E-12
    Mask sparsity (%):      11.6387
    Fitting Condition:        1E-10

   => Auxiliary Basis Set <=

  Basis Set: (AUG-CC-PVTZ AUX)
    Blend: AUG-CC-PVTZ-JKFIT + DEF2-UNIVERSAL-JKFIT
    Number of shells: 334
    Number of basis functions: 1140
    Number of Cartesian functions: 1408
    Spherical Harmonics?: true
    Max angular momentum: 4

  Minimum eigenvalue in the overlap matrix is 3.2420201524E-05.
  Reciprocal condition number of the overlap matrix is 2.3097264286E-06.
    Using symmetric orthogonalization.

  ==> Pre-Iterations <==

  SCF Guess: Superposition of Atomic Densities via on-the-fly atomic UHF (no occupation information).

   -------------------------
    Irrep   Nso     Nmo    
   -------------------------
     A        519     519 
   -------------------------
    Total     519     519
   -------------------------

  ==> Iterations <==

                           Total Energy        Delta E     RMS |[F,P]|

   @DF-RHF iter SAD:   -75.51240770662830   -7.55124e+01   0.00000e+00 
   @DF-RHF iter   1:   -75.97398713525038   -4.61579e-01   9.09502e-04 ADIIS/DIIS
   @DF-RHF iter   2:   -76.02766126871087   -5.36741e-02   6.07688e-04 ADIIS/DIIS
   @DF-RHF iter   3:   -76.05801389941925   -3.03526e-02   4.08079e-05 DIIS
   @DF-RHF iter   4:   -76.05836408637667   -3.50187e-04   9.30822e-06 DIIS
   @DF-RHF iter   5:   -76.05838405621837   -1.99698e-05   2.12673e-06 DIIS
   @DF-RHF iter   6:   -76.05838567884723   -1.62263e-06   4.53110e-07 DIIS
   @DF-RHF iter   7:   -76.05838575936249   -8.05153e-08   7.74693e-08 DIIS
   @DF-RHF iter   8:   -76.05838576144360   -2.08111e-09   1.25200e-08 DIIS
   @DF-RHF iter   9:   -76.05838576148268   -3.90799e-11   2.61367e-09 DIIS
  Energy and wave function converged.


  ==> Post-Iterations <==

    Orbital Energies [Eh]
    ---------------------

    Doubly Occupied:                                                      

       1A    -20.566029     2A     -1.371965     3A     -0.713294  
       4A     -0.605161     5A     -0.514443  

    Virtual:                                                              

       6A      0.006617     7A      0.009761     8A      0.009948  
       9A      0.010933    10A      0.017642    11A      0.018300  
      12A      0.018538    13A      0.019090    14A      0.019297  
      15A      0.031829    16A      0.035593    17A      0.036141  
      18A      0.039656    19A      0.054162    20A      0.057197  
      21A      0.059449    22A      0.060806    23A      0.063614  
      24A      0.069971    25A      0.075061    26A      0.077585  
      27A      0.079126    28A      0.081040    29A      0.085477  
      30A      0.090348    31A      0.093777    32A      0.096388  
      33A      0.102339    34A      0.108231    35A      0.109427  
      36A      0.126928    37A      0.132614    38A      0.147337  
      39A      0.151954    40A      0.156015    41A      0.159653  
      42A      0.165563    43A      0.173430    44A      0.179737  
      45A      0.180318    46A      0.186362    47A      0.192828  
      48A      0.195063    49A      0.197171    50A      0.202335  
      51A      0.209727    52A      0.218893    53A      0.221754  
      54A      0.226496    55A      0.230726    56A      0.232619  
      57A      0.240402    58A      0.244978    59A      0.250315  
      60A      0.255633    61A      0.262373    62A      0.263787  
      63A      0.271467    64A      0.280625    65A      0.283023  
      66A      0.302492    67A      0.307813    68A      0.313025  
      69A      0.315959    70A      0.332966    71A      0.345074  
      72A      0.349441    73A      0.351075    74A      0.356288  
      75A      0.361906    76A      0.367428    77A      0.374265  
      78A      0.381138    79A      0.383538    80A      0.387350  
      81A      0.394008    82A      0.397276    83A      0.404313  
      84A      0.407729    85A      0.418220    86A      0.422476  
      87A      0.427268    88A      0.437160    89A      0.444551  
      90A      0.447858    91A      0.451238    92A      0.457445  
      93A      0.461723    94A      0.464642    95A      0.466628  
      96A      0.472539    97A      0.479390    98A      0.483676  
      99A      0.486048   100A      0.492070   101A      0.499861  
     102A      0.507386   103A      0.510999   104A      0.518335  
     105A      0.527154   106A      0.536658   107A      0.537857  
     108A      0.549516   109A      0.550780   110A      0.560481  
     111A      0.582685   112A      0.583630   113A      0.594600  
     114A      0.607977   115A      0.616877   116A      0.630994  
     117A      0.637357   118A      0.645160   119A      0.656838  
     120A      0.694168   121A      0.701279   122A      0.722834  
     123A      0.734226   124A      0.746432   125A      0.763768  
     126A      0.771531   127A      0.775900   128A      0.790074  
     129A      0.804649   130A      0.812481   131A      0.816116  
     132A      0.826622   133A      0.833290   134A      0.849372  
     135A      0.852770   136A      0.854850   137A      0.863747  
     138A      0.865581   139A      0.868465   140A      0.881935  
     141A      0.891001   142A      0.900785   143A      0.906422  
     144A      0.914171   145A      0.915576   146A      0.923471  
     147A      0.928174   148A      0.933713   149A      0.937439  
     150A      0.941830   151A      0.947409   152A      0.956016  
     153A      0.965166   154A      0.974253   155A      0.978395  
     156A      0.982331   157A      0.993454   158A      0.995991  
     159A      1.005180   160A      1.020736   161A      1.023962  
     162A      1.030469   163A      1.035286   164A      1.042741  
     165A      1.046960   166A      1.065566   167A      1.070468  
     168A      1.077632   169A      1.083671   170A      1.099348  
     171A      1.103580   172A      1.104411   173A      1.110220  
     174A      1.118238   175A      1.131592   176A      1.140713  
     177A      1.143168   178A      1.155401   179A      1.161444  
     180A      1.164893   181A      1.175555   182A      1.180228  
     183A      1.189930   184A      1.196007   185A      1.202538  
     186A      1.206490   187A      1.216127   188A      1.218152  
     189A      1.227343   190A      1.244342   191A      1.253183  
     192A      1.258743   193A      1.266154   194A      1.268966  
     195A      1.280041   196A      1.281054   197A      1.294043  
     198A      1.302740   199A      1.315002   200A      1.331012  
     201A      1.334645   202A      1.354032   203A      1.372882  
     204A      1.376761   205A      1.386147   206A      1.394726  
     207A      1.417250   208A      1.433101   209A      1.456782  
     210A      1.467185   211A      1.487893   212A      1.499092  
     213A      1.507986   214A      1.511045   215A      1.543918  
     216A      1.570846   217A      1.576530   218A      1.585652  
     219A      1.624285   220A      1.635923   221A      1.657761  
     222A      1.678447   223A      1.696138   224A      1.718548  
     225A      1.740429   226A      1.765122   227A      1.776384  
     228A      1.782271   229A      1.798157   230A      1.801541  
     231A      1.818059   232A      1.825499   233A      1.834394  
     234A      1.841344   235A      1.863123   236A      1.874969  
     237A      1.881114   238A      1.881964   239A      1.903714  
     240A      1.907732   241A      1.915256   242A      1.928728  
     243A      1.931189   244A      1.956410   245A      1.970789  
     246A      2.001956   247A      2.010261   248A      2.058267  
     249A      2.076984   250A      2.107721   251A      2.120208  
     252A      2.137550   253A      2.165190   254A      2.198497  
     255A      2.234145   256A      2.256276   257A      2.336799  
     258A      2.365654   259A      2.372389   260A      2.418954  
     261A      2.431761   262A      2.433386   263A      2.446898  
     264A      2.452700   265A      2.474057   266A      2.484095  
     267A      2.499532   268A      2.520117   269A      2.551459  
     270A      2.558026   271A      2.570179   272A      2.586486  
     273A      2.592626   274A      2.602731   275A      2.610086  
     276A      2.620617   277A      2.624271   278A      2.634856  
     279A      2.641839   280A      2.656827   281A      2.668708  
     282A      2.681399   283A      2.688668   284A      2.700202  
     285A      2.712530   286A      2.719800   287A      2.725571  
     288A      2.746618   289A      2.760531   290A      2.765480  
     291A      2.770445   292A      2.787629   293A      2.808139  
     294A      2.837085   295A      2.844097   296A      2.859607  
     297A      2.868524   298A      2.888740   299A      2.906188  
     300A      2.931222   301A      2.952168   302A      2.963512  
     303A      2.982023   304A      2.989466   305A      3.009382  
     306A      3.026401   307A      3.036903   308A      3.079603  
     309A      3.086580   310A      3.106477   311A      3.182101  
     312A      3.197536   313A      3.243502   314A      3.259007  
     315A      3.268094   316A      3.269978   317A      3.294589  
     318A      3.307234   319A      3.317803   320A      3.325648  
     321A      3.346762   322A      3.366919   323A      3.392319  
     324A      3.398572   325A      3.409973   326A      3.433354  
     327A      3.449729   328A      3.470603   329A      3.508759  
     330A      3.543652   331A      3.565900   332A      3.597664  
     333A      3.621406   334A      3.647395   335A      3.668017  
     336A      3.741827   337A      3.772997   338A      3.797151  
     339A      3.809659   340A      3.824066   341A      3.894405  
     342A      3.958783   343A      4.188338   344A      4.238278  
     345A      4.352375   346A      4.373863   347A      4.395736  
     348A      4.433754   349A      4.438091   350A      4.457738  
     351A      4.523528   352A      4.525166   353A      4.539490  
     354A      4.545712   355A      4.553608   356A      4.561798  
     357A      4.582853   358A      4.603117   359A      4.614933  
     360A      4.636075   361A      4.642713   362A      4.659184  
     363A      4.679636   364A      4.686874   365A      4.698892  
     366A      4.722075   367A      4.737575   368A      4.760820  
     369A      4.774114   370A      4.779797   371A      4.787979  
     372A      4.806691   373A      4.821416   374A      4.878514  
     375A      4.938479   376A      4.948595   377A      4.953807  
     378A      4.967835   379A      4.980363   380A      4.982963  
     381A      4.989528   382A      5.003922   383A      5.014661  
     384A      5.049573   385A      5.058317   386A      5.103706  
     387A      5.147266   388A      5.190345   389A      5.205007  
     390A      5.225903   391A      5.264073   392A      5.279055  
     393A      5.289909   394A      5.304718   395A      5.377595  
     396A      5.427852   397A      5.477853   398A      5.535743  
     399A      5.588598   400A      5.596579   401A      5.602847  
     402A      5.617680   403A      5.653163   404A      5.685769  
     405A      5.691612   406A      5.724026   407A      5.732133  
     408A      5.772349   409A      5.776176   410A      5.803008  
     411A      5.827907   412A      5.890205   413A      5.939276  
     414A      5.967263   415A      6.027715   416A      6.186780  
     417A      6.197105   418A      6.222103   419A      6.294706  
     420A      6.352793   421A      6.429532   422A      6.438837  
     423A      6.485332   424A      6.620788   425A      6.640460  
     426A      6.725897   427A      6.741296   428A      6.800595  
     429A      6.884267   430A      6.952229   431A      7.100203  
     432A      7.148195   433A      7.153878   434A      7.169194  
     435A      7.207473   436A      7.286360   437A      7.323448  
     438A      7.385766   439A      7.456110   440A      7.489315  
     441A      7.578408   442A      7.717394   443A      7.724336  
     444A      7.735226   445A      7.748563   446A      7.770087  
     447A      7.803837   448A      7.853013   449A      7.854695  
     450A      7.894272   451A      7.940546   452A      8.101425  
     453A      8.120919   454A      8.141751   455A      8.160208  
     456A      8.170324   457A      8.193892   458A      8.248319  
     459A      8.266797   460A      8.291067   461A      8.323645  
     462A      8.346099   463A      8.355531   464A      8.437521  
     465A      8.739920   466A      8.817449   467A      8.836899  
     468A      8.899931   469A      8.941574   470A      8.957040  
     471A      8.986849   472A      9.025863   473A      9.134685  
     474A      9.789990   475A      9.801725   476A      9.838055  
     477A      9.850262   478A      9.943148   479A      9.944424  
     480A      9.972744   481A      9.983919   482A     10.049176  
     483A     10.072752   484A     10.094421   485A     10.160312  
     486A     10.242397   487A     10.267184   488A     10.279568  
     489A     10.334872   490A     10.473383   491A     11.172081  
     492A     11.201585   493A     11.320068   494A     11.369869  
     495A     11.706994   496A     11.757295   497A     11.767921  
     498A     11.886682   499A     12.115651   500A     12.280153  
     501A     12.315121   502A     12.390559   503A     13.560114  
     504A     13.646351   505A     13.732465   506A     13.750640  
     507A     13.864132   508A     13.899399   509A     13.996432  
     510A     14.022297   511A     17.284385   512A     30.647292  
     513A     31.201492   514A     31.577122   515A     64.644580  
     516A     65.756448   517A     66.286635   518A     66.586532  
     519A    198.206648  

    Final Occupation by Irrep:
              A 
    DOCC [     5 ]
    NA   [     5 ]
    NB   [     5 ]

  @DF-RHF Final Energy:   -76.05838576148268

   => Energetics <=

    Nuclear Repulsion Energy =              9.4389031965848353
    One-Electron Energy =                -123.4527912525411750
    Two-Electron Energy =                  37.9555022944736677
    Total Energy =                        -76.0583857614826684

Computation Completed


Properties will be evaluated at   0.000000,   0.000000,   0.000000 [a0]

Properties computed using the SCF density matrix


 Multipole Moments:

 ------------------------------------------------------------------------------------
     Multipole            Electronic (a.u.)      Nuclear  (a.u.)        Total (a.u.)
 ------------------------------------------------------------------------------------

 L = 1.  Multiply by 2.5417464519 to convert [e a0] to [Debye]
 Dipole X            :        -31.0073124           31.6929805            0.6856680
 Dipole Y            :        -30.9779017           31.4277328            0.4498311
 Dipole Z            :         34.6294019          -34.6647411           -0.0353392
 Magnitude           :                                                    0.8208152

 ------------------------------------------------------------------------------------

*** tstop() called on moses-razer at Wed Jan 24 15:29:01 2024
Module time:
	user time   =      42.38 seconds =       0.71 minutes
	system time =       2.41 seconds =       0.04 minutes
	total time  =         12 seconds =       0.20 minutes
Total time:
	user time   =      42.38 seconds =       0.71 minutes
	system time =       2.41 seconds =       0.04 minutes
	total time  =         12 seconds =       0.20 minutes

*** tstart() called on moses-razer
*** at Wed Jan 24 15:29:01 2024


  //>>>>>>>>>>>>>>>>>>>>>>>>>>>>>>>>>>>//
  //               DFMP2               //
  //<<<<<<<<<<<<<<<<<<<<<<<<<<<<<<<<<<<//

   => Loading Basis Set <=

    Name: (AUG-CC-PVTZ AUX)
    Role: RIFIT
    Keyword: DF_BASIS_MP2
    atoms 1                            entry K          line  1282 file /home/kchung25/anaconda3/envs/p415env/share/psi4/basis/def2-qzvpp-ri.gbs 
    atoms 2, 5, 8, 11, 14              entry O          line   264 file /home/kchung25/anaconda3/envs/p415env/share/psi4/basis/aug-cc-pvtz-ri.gbs 
    atoms 3-4, 6-7, 9-10, 12-13, 15-16 entry H          line    30 file /home/kchung25/anaconda3/envs/p415env/share/psi4/basis/aug-cc-pvtz-ri.gbs 

	 --------------------------------------------------------
	                          DF-MP2                         
	      2nd-Order Density-Fitted Moller-Plesset Theory     
	              RMP2 Wavefunction,   6 Threads             
	                                                         
	        Rob Parrish, Justin Turney, Andy Simmonett,      
	           Ed Hohenstein, and C. David Sherrill          
	 --------------------------------------------------------

   => Auxiliary Basis Set <=

  Basis Set: (AUG-CC-PVTZ AUX)
    Blend: AUG-CC-PVTZ-RI + DEF2-QZVPP-RI
    Number of shells: 329
    Number of basis functions: 1189
    Number of Cartesian functions: 1492
    Spherical Harmonics?: true
    Max angular momentum: 4

	 --------------------------------------------------------
	                 NBF =   519, NAUX =  1189
	 --------------------------------------------------------
	   CLASS    FOCC     OCC    AOCC    AVIR     VIR    FVIR
	   PAIRS       0       5       5     514     514       0
	 --------------------------------------------------------

	-----------------------------------------------------------
	 ==================> DF-MP2 Energies <==================== 
	-----------------------------------------------------------
	 Reference Energy          =     -76.0583857614826826 [Eh]
	 Singles Energy            =      -0.0000000000000000 [Eh]
	 Same-Spin Energy          =      -0.0682514939397077 [Eh]
	 Opposite-Spin Energy      =      -0.2153211406114202 [Eh]
	 Correlation Energy        =      -0.2835726345511279 [Eh]
	 Total Energy              =     -76.3419583960338173 [Eh]
	-----------------------------------------------------------
	 ================> DF-SCS-MP2 Energies <================== 
	-----------------------------------------------------------
	 SCS Same-Spin Scale       =       0.3333333333333333 [-]
	 SCS Opposite-Spin Scale   =       1.2000000000000000 [-]
	 SCS Same-Spin Energy      =      -0.0227504979799026 [Eh]
	 SCS Opposite-Spin Energy  =      -0.2583853687337042 [Eh]
	 SCS Correlation Energy    =      -0.2811358667136068 [Eh]
	 SCS Total Energy          =     -76.3395216281962945 [Eh]
	-----------------------------------------------------------


*** tstop() called on moses-razer at Wed Jan 24 15:29:09 2024
Module time:
	user time   =      17.67 seconds =       0.29 minutes
	system time =       1.35 seconds =       0.02 minutes
	total time  =          8 seconds =       0.13 minutes
Total time:
	user time   =      60.05 seconds =       1.00 minutes
	system time =       3.76 seconds =       0.06 minutes
	total time  =         20 seconds =       0.33 minutes

    Psi4 stopped on: Wednesday, 24 January 2024 03:29PM
    Psi4 wall time for execution: 0:00:20.06

*** Psi4 exiting successfully. Buy a developer a beer!
