
    -----------------------------------------------------------------------
          Psi4: An Open-Source Ab Initio Electronic Structure Package
                               Psi4 1.9 release

                         Git: Rev {} zzzzzzz 


    D. G. A. Smith, L. A. Burns, A. C. Simmonett, R. M. Parrish,
    M. C. Schieber, R. Galvelis, P. Kraus, H. Kruse, R. Di Remigio,
    A. Alenaizan, A. M. James, S. Lehtola, J. P. Misiewicz, M. Scheurer,
    R. A. Shaw, J. B. Schriber, Y. Xie, Z. L. Glick, D. A. Sirianni,
    J. S. O'Brien, J. M. Waldrop, A. Kumar, E. G. Hohenstein,
    B. P. Pritchard, B. R. Brooks, H. F. Schaefer III, A. Yu. Sokolov,
    K. Patkowski, A. E. DePrince III, U. Bozkaya, R. A. King,
    F. A. Evangelista, J. M. Turney, T. D. Crawford, C. D. Sherrill,
    J. Chem. Phys. 152(18) 184108 (2020). https://doi.org/10.1063/5.0006002

                            Additional Code Authors
    E. T. Seidl, C. L. Janssen, E. F. Valeev, M. L. Leininger,
    J. F. Gonthier, R. M. Richard, H. R. McAlexander, M. Saitow, X. Wang,
    P. Verma, M. H. Lechner, A. Jiang, S. Behnle, A. G. Heide,
    M. F. Herbst, and D. L. Poole

             Previous Authors, Complete List of Code Contributors,
                       and Citations for Specific Modules
    https://github.com/psi4/psi4/blob/master/codemeta.json
    https://github.com/psi4/psi4/graphs/contributors
    http://psicode.org/psi4manual/master/introduction.html#citing-psifour

    -----------------------------------------------------------------------


    Psi4 started on: Wednesday, 24 January 2024 06:32PM

    Process ID: 1247599
    Host:       moses-razer
    PSIDATADIR: /home/kchung25/anaconda3/envs/psi4_19/share/psi4
    Memory:     500.0 MiB
    Threads:    6
    
  ==> Input File <==

--------------------------------------------------------------------------
MEMORY 60 GB

molecule dimer {
1 1
K          0.000000     0.000000     0.000000
Gh(O)      0.293827     2.618771    -0.398133
Gh(H)     -0.603386     2.977651    -0.383603
Gh(H)      0.504951     2.523150    -1.349400
Gh(O)      2.290662    -1.154012     1.170513
Gh(H)      2.200413    -1.828377     1.847435
Gh(H)      2.800025    -0.449315     1.581926
Gh(O)     -0.679679    -1.715755     2.067459
Gh(H)      0.176766    -2.136211     2.260417
Gh(H)     -1.317277    -2.272083     1.599994
Gh(O)     -2.767030     0.221449     0.099673
Gh(H)     -3.057655     0.587440     0.925810
Gh(H)     -3.142942    -0.646895     0.189675

units ang
no_reorient
no_com
symmetry c1
}

set {
basis        aug-cc-pVTZ
scf_type     df
}

energy("mp2")
--------------------------------------------------------------------------

  Memory set to  55.879 GiB by Python driver.

Scratch directory: /scratch/
   => Libint2 <=

    Primary   basis highest AM E, G, H:  5, 4, 3
    Auxiliary basis highest AM E, G, H:  6, 5, 4
    Onebody   basis highest AM E, G, H:  6, 5, 4
    Solid Harmonics ordering:            gaussian

*** tstart() called on moses-razer
*** at Wed Jan 24 18:32:19 2024

   => Loading Basis Set <=

    Name: AUG-CC-PVTZ
    Role: ORBITAL
    Keyword: BASIS
    atoms 1                     entry K          line  1152 file /home/kchung25/anaconda3/envs/p415env/share/psi4/basis/aug-cc-pvtz.gbs 
    atoms 2, 5, 8, 11           entry O          line   331 file /home/kchung25/anaconda3/envs/p415env/share/psi4/basis/aug-cc-pvtz.gbs 
    atoms 3-4, 6-7, 9-10, 12-13 entry H          line    40 file /home/kchung25/anaconda3/envs/p415env/share/psi4/basis/aug-cc-pvtz.gbs 


         ---------------------------------------------------------
                                   SCF
               by Justin Turney, Rob Parrish, Andy Simmonett
                          and Daniel G. A. Smith
                              RHF Reference
                        6 Threads,  57220 MiB Core
         ---------------------------------------------------------

  ==> Geometry <==

    Molecular point group: c1
    Full point group: C1

    Geometry (in Angstrom), charge = 1, multiplicity = 1:

       Center              X                  Y                   Z               Mass       
    ------------   -----------------  -----------------  -----------------  -----------------
         K            0.000000000000     0.000000000000     0.000000000000    38.963706486400
      Gh(O)           0.293827000000     2.618771000000    -0.398133000000    15.994914619570
      Gh(H)          -0.603386000000     2.977651000000    -0.383603000000     1.007825032230
      Gh(H)           0.504951000000     2.523150000000    -1.349400000000     1.007825032230
      Gh(O)           2.290662000000    -1.154012000000     1.170513000000    15.994914619570
      Gh(H)           2.200413000000    -1.828377000000     1.847435000000     1.007825032230
      Gh(H)           2.800025000000    -0.449315000000     1.581926000000     1.007825032230
      Gh(O)          -0.679679000000    -1.715755000000     2.067459000000    15.994914619570
      Gh(H)           0.176766000000    -2.136211000000     2.260417000000     1.007825032230
      Gh(H)          -1.317277000000    -2.272083000000     1.599994000000     1.007825032230
      Gh(O)          -2.767030000000     0.221449000000     0.099673000000    15.994914619570
      Gh(H)          -3.057655000000     0.587440000000     0.925810000000     1.007825032230
      Gh(H)          -3.142942000000    -0.646895000000     0.189675000000     1.007825032230

  Running in c1 symmetry.

  Rotational constants: A =      0.06268  B =      0.05022  C =      0.03177 [cm^-1]
  Rotational constants: A =   1878.98250  B =   1505.49626  C =    952.43012 [MHz]
  Nuclear repulsion =    0.000000000000000

  Charge       = 1
  Multiplicity = 1
  Electrons    = 18
  Nalpha       = 9
  Nbeta        = 9

  ==> Algorithm <==

  SCF Algorithm Type is DF.
  DIIS enabled.
  MOM disabled.
  Fractional occupation disabled.
  Guess Type is SAD.
  Energy threshold   = 1.00e-08
  Density threshold  = 1.00e-08
  Integral threshold = 1.00e-12

  ==> Primary Basis <==

  Basis Set: AUG-CC-PVTZ
    Blend: AUG-CC-PVTZ
    Number of shells: 147
    Number of basis functions: 427
    Number of Cartesian functions: 489
    Spherical Harmonics?: true
    Max angular momentum: 3

   => Loading Basis Set <=

    Name: (AUG-CC-PVTZ AUX)
    Role: JKFIT
    Keyword: DF_BASIS_SCF
    atoms 1                     entry K          line  1152 file /home/kchung25/anaconda3/envs/p415env/share/psi4/basis/def2-universal-jkfit.gbs 
    atoms 2, 5, 8, 11           entry O          line   286 file /home/kchung25/anaconda3/envs/p415env/share/psi4/basis/aug-cc-pvtz-jkfit.gbs 
    atoms 3-4, 6-7, 9-10, 12-13 entry H          line    70 file /home/kchung25/anaconda3/envs/p415env/share/psi4/basis/aug-cc-pvtz-jkfit.gbs 

  ==> Integral Setup <==

  DFHelper Memory: AOs need 1.198 GiB; user supplied 41.910 GiB. 
  Using in-core AOs.

  ==> MemDFJK: Density-Fitted J/K Matrices <==

    J tasked:                   Yes
    K tasked:                   Yes
    wK tasked:                   No
    OpenMP threads:               6
    Memory [MiB]:             42915
    Algorithm:                 Core
    Schwarz Cutoff:           1E-12
    Mask sparsity (%):      10.6061
    Fitting Condition:        1E-10

   => Auxiliary Basis Set <=

  Basis Set: (AUG-CC-PVTZ AUX)
    Blend: AUG-CC-PVTZ-JKFIT + DEF2-UNIVERSAL-JKFIT
    Number of shells: 276
    Number of basis functions: 944
    Number of Cartesian functions: 1167
    Spherical Harmonics?: true
    Max angular momentum: 4

  Minimum eigenvalue in the overlap matrix is 8.1882177695E-05.
  Reciprocal condition number of the overlap matrix is 6.5339819738E-06.
    Using symmetric orthogonalization.

  ==> Pre-Iterations <==

  SCF Guess: Superposition of Atomic Densities via on-the-fly atomic UHF (no occupation information).

   -------------------------
    Irrep   Nso     Nmo    
   -------------------------
     A        427     427 
   -------------------------
    Total     427     427
   -------------------------

  ==> Iterations <==

                           Total Energy        Delta E     RMS |[F,P]|

   @DF-RHF iter SAD:  -599.05183861299247   -5.99052e+02   0.00000e+00 
   @DF-RHF iter   1:  -599.01746903467995    3.43696e-02   2.19225e-05 DIIS
   @DF-RHF iter   2:  -599.01751283562521   -4.38009e-05   2.59887e-06 DIIS
   @DF-RHF iter   3:  -599.01751386238436   -1.02676e-06   3.60217e-07 DIIS
   @DF-RHF iter   4:  -599.01751387766194   -1.52776e-08   2.54930e-08 DIIS
   @DF-RHF iter   5:  -599.01751387776051   -9.85665e-11   5.64800e-09 DIIS
  Energy and wave function converged.


  ==> Post-Iterations <==

    Orbital Energies [Eh]
    ---------------------

    Doubly Occupied:                                                      

       1A   -133.752854     2A    -14.708482     3A    -11.738545  
       4A    -11.738543     5A    -11.738540     6A     -1.964024  
       7A     -1.170720     8A     -1.170709     9A     -1.170640  

    Virtual:                                                              

      10A     -0.146963    11A     -0.095558    12A     -0.095556  
      13A     -0.095546    14A     -0.060627    15A     -0.057977  
      16A     -0.057949    17A     -0.057890    18A     -0.057880  
      19A     -0.057848    20A     -0.045541    21A     -0.045540  
      22A     -0.045535    23A     -0.031363    24A     -0.031305  
      25A     -0.031276    26A     -0.031264    27A     -0.031254  
      28A     -0.018883    29A     -0.018768    30A     -0.017503  
      31A     -0.015835    32A     -0.014273    33A     -0.011337  
      34A     -0.010720    35A     -0.008074    36A     -0.002103  
      37A      0.000356    38A      0.002613    39A      0.008933  
      40A      0.009844    41A      0.010955    42A      0.012498  
      43A      0.013358    44A      0.032805    45A      0.036152  
      46A      0.040920    47A      0.047936    48A      0.052582  
      49A      0.056646    50A      0.060359    51A      0.061601  
      52A      0.075952    53A      0.082901    54A      0.085906  
      55A      0.091080    56A      0.093783    57A      0.096557  
      58A      0.100117    59A      0.102938    60A      0.107814  
      61A      0.112915    62A      0.115208    63A      0.121543  
      64A      0.130841    65A      0.139214    66A      0.146491  
      67A      0.156761    68A      0.166394    69A      0.176783  
      70A      0.189659    71A      0.192484    72A      0.195086  
      73A      0.197887    74A      0.202500    75A      0.214447  
      76A      0.217696    77A      0.220784    78A      0.224705  
      79A      0.237251    80A      0.241348    81A      0.242924  
      82A      0.248881    83A      0.250541    84A      0.257162  
      85A      0.265072    86A      0.266283    87A      0.273892  
      88A      0.281763    89A      0.287866    90A      0.292845  
      91A      0.297595    92A      0.301889    93A      0.310503  
      94A      0.316406    95A      0.322244    96A      0.322575  
      97A      0.329331    98A      0.330701    99A      0.344479  
     100A      0.348923   101A      0.354410   102A      0.357053  
     103A      0.366284   104A      0.370387   105A      0.374818  
     106A      0.378952   107A      0.388885   108A      0.405550  
     109A      0.418071   110A      0.431528   111A      0.441465  
     112A      0.453566   113A      0.464705   114A      0.491583  
     115A      0.544647   116A      0.560418   117A      0.570306  
     118A      0.587032   119A      0.605103   120A      0.617582  
     121A      0.630168   122A      0.641870   123A      0.651876  
     124A      0.653597   125A      0.670239   126A      0.677253  
     127A      0.682180   128A      0.683670   129A      0.692449  
     130A      0.693855   131A      0.712399   132A      0.716407  
     133A      0.727480   134A      0.731505   135A      0.737397  
     136A      0.747609   137A      0.761842   138A      0.762939  
     139A      0.778285   140A      0.781305   141A      0.785040  
     142A      0.793332   143A      0.801211   144A      0.806810  
     145A      0.821492   146A      0.823541   147A      0.833198  
     148A      0.843155   149A      0.853530   150A      0.858958  
     151A      0.864408   152A      0.877091   153A      0.890014  
     154A      0.901812   155A      0.914569   156A      0.915811  
     157A      0.923380   158A      0.929598   159A      0.936045  
     160A      0.940136   161A      0.959708   162A      0.969688  
     163A      0.973138   164A      0.981393   165A      0.997712  
     166A      1.003396   167A      1.010348   168A      1.021766  
     169A      1.035742   170A      1.042456   171A      1.050706  
     172A      1.065383   173A      1.069745   174A      1.084436  
     175A      1.088402   176A      1.100957   177A      1.102259  
     178A      1.124167   179A      1.131857   180A      1.151252  
     181A      1.161499   182A      1.170596   183A      1.188353  
     184A      1.201753   185A      1.217837   186A      1.240913  
     187A      1.260602   188A      1.283338   189A      1.312417  
     190A      1.313894   191A      1.345634   192A      1.363537  
     193A      1.380704   194A      1.401423   195A      1.419988  
     196A      1.427933   197A      1.460347   198A      1.465631  
     199A      1.555676   200A      1.581723   201A      1.598973  
     202A      1.610161   203A      1.623608   204A      1.627562  
     205A      1.642988   206A      1.658727   207A      1.666553  
     208A      1.668843   209A      1.686036   210A      1.696252  
     211A      1.699560   212A      1.714386   213A      1.722128  
     214A      1.735354   215A      1.753444   216A      1.768230  
     217A      1.778363   218A      1.791423   219A      1.800785  
     220A      1.900371   221A      1.926941   222A      1.962420  
     223A      1.997587   224A      2.210320   225A      2.231582  
     226A      2.242907   227A      2.245093   228A      2.276301  
     229A      2.281997   230A      2.307539   231A      2.325740  
     232A      2.349536   233A      2.356252   234A      2.378576  
     235A      2.387433   236A      2.392150   237A      2.401900  
     238A      2.411270   239A      2.428564   240A      2.430781  
     241A      2.440467   242A      2.451713   243A      2.468748  
     244A      2.482756   245A      2.500475   246A      2.513913  
     247A      2.516012   248A      2.545567   249A      2.559007  
     250A      2.564276   251A      2.616875   252A      2.627997  
     253A      2.637335   254A      2.670816   255A      2.690016  
     256A      2.694366   257A      2.737137   258A      2.748846  
     259A      2.876239   260A      2.997767   261A      3.007538  
     262A      3.025211   263A      3.032359   264A      3.049617  
     265A      3.057823   266A      3.066221   267A      3.077553  
     268A      3.099659   269A      3.112106   270A      3.129794  
     271A      3.139976   272A      3.143245   273A      3.172281  
     274A      3.182629   275A      3.189072   276A      3.208758  
     277A      3.249915   278A      3.262614   279A      3.285062  
     280A      3.372334   281A      3.402959   282A      3.409537  
     283A      3.449484   284A      3.508475   285A      3.529163  
     286A      3.558304   287A      3.619430   288A      4.204035  
     289A      4.217441   290A      4.284842   291A      4.292222  
     292A      4.298481   293A      4.320845   294A      4.347411  
     295A      4.353316   296A      4.368962   297A      4.375195  
     298A      4.398931   299A      4.416393   300A      4.423367  
     301A      4.444745   302A      4.468620   303A      4.485561  
     304A      4.511201   305A      4.524689   306A      4.527822  
     307A      4.564459   308A      4.578520   309A      4.582203  
     310A      4.596243   311A      4.669871   312A      4.713534  
     313A      4.752283   314A      4.757381   315A      4.767523  
     316A      4.784679   317A      4.804171   318A      4.817209  
     319A      4.825915   320A      4.843283   321A      4.890553  
     322A      4.907468   323A      4.993643   324A      5.010716  
     325A      5.025646   326A      5.111260   327A      5.124897  
     328A      5.315585   329A      5.343974   330A      5.370314  
     331A      5.386529   332A      5.413362   333A      5.448027  
     334A      5.483059   335A      5.497949   336A      5.502992  
     337A      5.508793   338A      5.530728   339A      5.545878  
     340A      5.593299   341A      5.641179   342A      5.726756  
     343A      5.763458   344A      5.937169   345A      5.954961  
     346A      5.972416   347A      6.058838   348A      6.103722  
     349A      6.171561   350A      6.189862   351A      6.260873  
     352A      6.415730   353A      6.518389   354A      6.547871  
     355A      6.716280   356A      6.831171   357A      6.894549  
     358A      6.924369   359A      6.964961   360A      7.483974  
     361A      7.500216   362A      7.518678   363A      7.534017  
     364A      7.558359   365A      7.625093   366A      7.649242  
     367A      7.762347   368A      7.869896   369A      7.899879  
     370A      7.909301   371A      7.951248   372A      7.966463  
     373A      7.978928   374A      8.024068   375A      8.076840  
     376A      8.087580   377A      8.146408   378A      8.160650  
     379A      8.165650   380A      8.477489   381A      8.546387  
     382A      8.574345   383A      8.581531   384A      8.608909  
     385A      8.667262   386A      8.710563   387A      8.742293  
     388A      9.542455   389A      9.542955   390A      9.597467  
     391A      9.614842   392A      9.719434   393A      9.727589  
     394A      9.747282   395A      9.774564   396A      9.817963  
     397A      9.832967   398A      9.875013   399A      9.922478  
     400A      9.984420   401A     10.024433   402A     10.052895  
     403A     10.060719   404A     10.870514   405A     10.956174  
     406A     11.053070   407A     11.177805   408A     11.475622  
     409A     11.544867   410A     11.557708   411A     11.570639  
     412A     11.822068   413A     11.972676   414A     12.006781  
     415A     12.121583   416A     13.272687   417A     13.335778  
     418A     13.386190   419A     13.482567   420A     13.605692  
     421A     13.668748   422A     13.700320   423A     13.797492  
     424A     64.103202   425A     64.864160   426A     64.988486  
     427A     65.500810  

    Final Occupation by Irrep:
              A 
    DOCC [     9 ]
    NA   [     9 ]
    NB   [     9 ]

  @DF-RHF Final Energy:  -599.01751387776051

   => Energetics <=

    Nuclear Repulsion Energy =              0.0000000000000000
    One-Electron Energy =                -819.7289155247808594
    Two-Electron Energy =                 220.7114016470202671
    Total Energy =                       -599.0175138777606207

Computation Completed


Properties will be evaluated at   0.000000,   0.000000,   0.000000 [a0]

Properties computed using the SCF density matrix


 Multipole Moments:

 ------------------------------------------------------------------------------------
     Multipole            Electronic (a.u.)      Nuclear  (a.u.)        Total (a.u.)
 ------------------------------------------------------------------------------------

 L = 1.  Multiply by 2.5417464519 to convert [e a0] to [Debye]
 Dipole X            :         -0.0001160            0.0000000           -0.0001160
 Dipole Y            :          0.0000635            0.0000000            0.0000635
 Dipole Z            :          0.0002565            0.0000000            0.0002565
 Magnitude           :                                                    0.0002886

 ------------------------------------------------------------------------------------

*** tstop() called on moses-razer at Wed Jan 24 18:32:30 2024
Module time:
	user time   =      28.08 seconds =       0.47 minutes
	system time =       3.17 seconds =       0.05 minutes
	total time  =         11 seconds =       0.18 minutes
Total time:
	user time   =      28.08 seconds =       0.47 minutes
	system time =       3.17 seconds =       0.05 minutes
	total time  =         11 seconds =       0.18 minutes

*** tstart() called on moses-razer
*** at Wed Jan 24 18:32:30 2024


  //>>>>>>>>>>>>>>>>>>>>>>>>>>>>>>>>>>>//
  //               DFMP2               //
  //<<<<<<<<<<<<<<<<<<<<<<<<<<<<<<<<<<<//

   => Loading Basis Set <=

    Name: (AUG-CC-PVTZ AUX)
    Role: RIFIT
    Keyword: DF_BASIS_MP2
    atoms 1                     entry K          line  1282 file /home/kchung25/anaconda3/envs/p415env/share/psi4/basis/def2-qzvpp-ri.gbs 
    atoms 2, 5, 8, 11           entry O          line   264 file /home/kchung25/anaconda3/envs/p415env/share/psi4/basis/aug-cc-pvtz-ri.gbs 
    atoms 3-4, 6-7, 9-10, 12-13 entry H          line    30 file /home/kchung25/anaconda3/envs/p415env/share/psi4/basis/aug-cc-pvtz-ri.gbs 

	 --------------------------------------------------------
	                          DF-MP2                         
	      2nd-Order Density-Fitted Moller-Plesset Theory     
	              RMP2 Wavefunction,   6 Threads             
	                                                         
	        Rob Parrish, Justin Turney, Andy Simmonett,      
	           Ed Hohenstein, and C. David Sherrill          
	 --------------------------------------------------------

   => Auxiliary Basis Set <=

  Basis Set: (AUG-CC-PVTZ AUX)
    Blend: AUG-CC-PVTZ-RI + DEF2-QZVPP-RI
    Number of shells: 273
    Number of basis functions: 991
    Number of Cartesian functions: 1246
    Spherical Harmonics?: true
    Max angular momentum: 4

	 --------------------------------------------------------
	                 NBF =   427, NAUX =   991
	 --------------------------------------------------------
	   CLASS    FOCC     OCC    AOCC    AVIR     VIR    FVIR
	   PAIRS       0       9       9     418     418       0
	 --------------------------------------------------------

	-----------------------------------------------------------
	 ==================> DF-MP2 Energies <==================== 
	-----------------------------------------------------------
	 Reference Energy          =    -599.0175138777605071 [Eh]
	 Singles Energy            =      -0.0000000000000000 [Eh]
	 Same-Spin Energy          =      -0.0345689088816446 [Eh]
	 Opposite-Spin Energy      =      -0.0833013391184349 [Eh]
	 Correlation Energy        =      -0.1178702480000795 [Eh]
	 Total Energy              =    -599.1353841257605382 [Eh]
	-----------------------------------------------------------
	 ================> DF-SCS-MP2 Energies <================== 
	-----------------------------------------------------------
	 SCS Same-Spin Scale       =       0.3333333333333333 [-]
	 SCS Opposite-Spin Scale   =       1.2000000000000000 [-]
	 SCS Same-Spin Energy      =      -0.0115229696272149 [Eh]
	 SCS Opposite-Spin Energy  =      -0.0999616069421219 [Eh]
	 SCS Correlation Energy    =      -0.1114845765693367 [Eh]
	 SCS Total Energy          =    -599.1289984543298033 [Eh]
	-----------------------------------------------------------


*** tstop() called on moses-razer at Wed Jan 24 18:32:36 2024
Module time:
	user time   =      13.36 seconds =       0.22 minutes
	system time =       1.18 seconds =       0.02 minutes
	total time  =          6 seconds =       0.10 minutes
Total time:
	user time   =      41.45 seconds =       0.69 minutes
	system time =       4.35 seconds =       0.07 minutes
	total time  =         17 seconds =       0.28 minutes

    Psi4 stopped on: Wednesday, 24 January 2024 06:32PM
    Psi4 wall time for execution: 0:00:17.15

*** Psi4 exiting successfully. Buy a developer a beer!
