
    -----------------------------------------------------------------------
          Psi4: An Open-Source Ab Initio Electronic Structure Package
                               Psi4 1.9 release

                         Git: Rev {} zzzzzzz 


    D. G. A. Smith, L. A. Burns, A. C. Simmonett, R. M. Parrish,
    M. C. Schieber, R. Galvelis, P. Kraus, H. Kruse, R. Di Remigio,
    A. Alenaizan, A. M. James, S. Lehtola, J. P. Misiewicz, M. Scheurer,
    R. A. Shaw, J. B. Schriber, Y. Xie, Z. L. Glick, D. A. Sirianni,
    J. S. O'Brien, J. M. Waldrop, A. Kumar, E. G. Hohenstein,
    B. P. Pritchard, B. R. Brooks, H. F. Schaefer III, A. Yu. Sokolov,
    K. Patkowski, A. E. DePrince III, U. Bozkaya, R. A. King,
    F. A. Evangelista, J. M. Turney, T. D. Crawford, C. D. Sherrill,
    J. Chem. Phys. 152(18) 184108 (2020). https://doi.org/10.1063/5.0006002

                            Additional Code Authors
    E. T. Seidl, C. L. Janssen, E. F. Valeev, M. L. Leininger,
    J. F. Gonthier, R. M. Richard, H. R. McAlexander, M. Saitow, X. Wang,
    P. Verma, M. H. Lechner, A. Jiang, S. Behnle, A. G. Heide,
    M. F. Herbst, and D. L. Poole

             Previous Authors, Complete List of Code Contributors,
                       and Citations for Specific Modules
    https://github.com/psi4/psi4/blob/master/codemeta.json
    https://github.com/psi4/psi4/graphs/contributors
    http://psicode.org/psi4manual/master/introduction.html#citing-psifour

    -----------------------------------------------------------------------


    Psi4 started on: Wednesday, 24 January 2024 04:51PM

    Process ID: 1242484
    Host:       moses-razer
    PSIDATADIR: /home/kchung25/anaconda3/envs/psi4_19/share/psi4
    Memory:     500.0 MiB
    Threads:    6
    
  ==> Input File <==

--------------------------------------------------------------------------
MEMORY 60 GB

molecule dimer {
0 1
Gh(K)      0.000000     0.000000     0.000000
Gh(O)      0.934950     1.557658     1.866682
Gh(H)      1.223641     2.403238     1.526633
Gh(H)      1.560546     1.275463     2.571452
Gh(O)     -0.413699    -2.204341    -1.603818
Gh(H)     -1.436891    -2.151326    -1.552654
Gh(H)     -0.309238    -2.351733    -2.534913
Gh(O)      2.387388    -0.706598     0.434979
Gh(H)      3.112159    -1.260928     0.324550
Gh(H)      2.611801    -0.158530     1.180506
Gh(O)     -2.888982    -0.504542     0.112087
Gh(H)     -3.193254    -0.834635     0.984426
Gh(H)     -3.583834     0.130394    -0.063180
O          2.029999     0.579035    -1.935349
H          2.782212     0.571319    -1.253322
H          2.354613     1.285694    -2.436344
Gh(O)     -0.653789    -1.945918     2.055554
Gh(H)     -0.923902    -1.843674     2.940345
Gh(H)     -1.151574    -2.735000     1.778164

units ang
no_reorient
no_com
symmetry c1
}

set {
basis        aug-cc-pVTZ
scf_type     df
}

energy("mp2")
--------------------------------------------------------------------------

  Memory set to  55.879 GiB by Python driver.

Scratch directory: /scratch/
   => Libint2 <=

    Primary   basis highest AM E, G, H:  5, 4, 3
    Auxiliary basis highest AM E, G, H:  6, 5, 4
    Onebody   basis highest AM E, G, H:  6, 5, 4
    Solid Harmonics ordering:            gaussian

*** tstart() called on moses-razer
*** at Wed Jan 24 16:51:50 2024

   => Loading Basis Set <=

    Name: AUG-CC-PVTZ
    Role: ORBITAL
    Keyword: BASIS
    atoms 1                                   entry K          line  1152 file /home/kchung25/anaconda3/envs/p415env/share/psi4/basis/aug-cc-pvtz.gbs 
    atoms 2, 5, 8, 11, 14, 17                 entry O          line   331 file /home/kchung25/anaconda3/envs/p415env/share/psi4/basis/aug-cc-pvtz.gbs 
    atoms 3-4, 6-7, 9-10, 12-13, 15-16, 18-19 entry H          line    40 file /home/kchung25/anaconda3/envs/p415env/share/psi4/basis/aug-cc-pvtz.gbs 


         ---------------------------------------------------------
                                   SCF
               by Justin Turney, Rob Parrish, Andy Simmonett
                          and Daniel G. A. Smith
                              RHF Reference
                        6 Threads,  57220 MiB Core
         ---------------------------------------------------------

  ==> Geometry <==

    Molecular point group: c1
    Full point group: C1

    Geometry (in Angstrom), charge = 0, multiplicity = 1:

       Center              X                  Y                   Z               Mass       
    ------------   -----------------  -----------------  -----------------  -----------------
      Gh(K)           0.000000000000     0.000000000000     0.000000000000    38.963706486400
      Gh(O)           0.934950000000     1.557658000000     1.866682000000    15.994914619570
      Gh(H)           1.223641000000     2.403238000000     1.526633000000     1.007825032230
      Gh(H)           1.560546000000     1.275463000000     2.571452000000     1.007825032230
      Gh(O)          -0.413699000000    -2.204341000000    -1.603818000000    15.994914619570
      Gh(H)          -1.436891000000    -2.151326000000    -1.552654000000     1.007825032230
      Gh(H)          -0.309238000000    -2.351733000000    -2.534913000000     1.007825032230
      Gh(O)           2.387388000000    -0.706598000000     0.434979000000    15.994914619570
      Gh(H)           3.112159000000    -1.260928000000     0.324550000000     1.007825032230
      Gh(H)           2.611801000000    -0.158530000000     1.180506000000     1.007825032230
      Gh(O)          -2.888982000000    -0.504542000000     0.112087000000    15.994914619570
      Gh(H)          -3.193254000000    -0.834635000000     0.984426000000     1.007825032230
      Gh(H)          -3.583834000000     0.130394000000    -0.063180000000     1.007825032230
         O            2.029999000000     0.579035000000    -1.935349000000    15.994914619570
         H            2.782212000000     0.571319000000    -1.253322000000     1.007825032230
         H            2.354613000000     1.285694000000    -2.436344000000     1.007825032230
      Gh(O)          -0.653789000000    -1.945918000000     2.055554000000    15.994914619570
      Gh(H)          -0.923902000000    -1.843674000000     2.940345000000     1.007825032230
      Gh(H)          -1.151574000000    -2.735000000000     1.778164000000     1.007825032230

  Running in c1 symmetry.

  Rotational constants: A =      0.03765  B =      0.02820  C =      0.02422 [cm^-1]
  Rotational constants: A =   1128.76539  B =    845.47603  C =    726.17564 [MHz]
  Nuclear repulsion =    9.111366358828125

  Charge       = 0
  Multiplicity = 1
  Electrons    = 10
  Nalpha       = 5
  Nbeta        = 5

  ==> Algorithm <==

  SCF Algorithm Type is DF.
  DIIS enabled.
  MOM disabled.
  Fractional occupation disabled.
  Guess Type is SAD.
  Energy threshold   = 1.00e-08
  Density threshold  = 1.00e-08
  Integral threshold = 1.00e-12

  ==> Primary Basis <==

  Basis Set: AUG-CC-PVTZ
    Blend: AUG-CC-PVTZ
    Number of shells: 211
    Number of basis functions: 611
    Number of Cartesian functions: 699
    Spherical Harmonics?: true
    Max angular momentum: 3

   => Loading Basis Set <=

    Name: (AUG-CC-PVTZ AUX)
    Role: JKFIT
    Keyword: DF_BASIS_SCF
    atoms 1                                   entry K          line  1152 file /home/kchung25/anaconda3/envs/p415env/share/psi4/basis/def2-universal-jkfit.gbs 
    atoms 2, 5, 8, 11, 14, 17                 entry O          line   286 file /home/kchung25/anaconda3/envs/p415env/share/psi4/basis/aug-cc-pvtz-jkfit.gbs 
    atoms 3-4, 6-7, 9-10, 12-13, 15-16, 18-19 entry H          line    70 file /home/kchung25/anaconda3/envs/p415env/share/psi4/basis/aug-cc-pvtz-jkfit.gbs 

  ==> Integral Setup <==

  DFHelper Memory: AOs need 3.352 GiB; user supplied 41.910 GiB. 
  Using in-core AOs.

  ==> MemDFJK: Density-Fitted J/K Matrices <==

    J tasked:                   Yes
    K tasked:                   Yes
    wK tasked:                   No
    OpenMP threads:               6
    Memory [MiB]:             42915
    Algorithm:                 Core
    Schwarz Cutoff:           1E-12
    Mask sparsity (%):      12.6143
    Fitting Condition:        1E-10

   => Auxiliary Basis Set <=

  Basis Set: (AUG-CC-PVTZ AUX)
    Blend: AUG-CC-PVTZ-JKFIT + DEF2-UNIVERSAL-JKFIT
    Number of shells: 392
    Number of basis functions: 1336
    Number of Cartesian functions: 1649
    Spherical Harmonics?: true
    Max angular momentum: 4

  Minimum eigenvalue in the overlap matrix is 3.1180485861E-05.
  Reciprocal condition number of the overlap matrix is 2.0843962190E-06.
    Using symmetric orthogonalization.

  ==> Pre-Iterations <==

  SCF Guess: Superposition of Atomic Densities via on-the-fly atomic UHF (no occupation information).

   -------------------------
    Irrep   Nso     Nmo    
   -------------------------
     A        611     611 
   -------------------------
    Total     611     611
   -------------------------

  ==> Iterations <==

                           Total Energy        Delta E     RMS |[F,P]|

   @DF-RHF iter SAD:   -75.47009820839897   -7.54701e+01   0.00000e+00 
   @DF-RHF iter   1:   -75.96669666948090   -4.96598e-01   7.70124e-04 DIIS/ADIIS
   @DF-RHF iter   2:   -76.01959435395966   -5.28977e-02   5.37447e-04 DIIS/ADIIS
   @DF-RHF iter   3:   -76.05313419443704   -3.35398e-02   3.65012e-05 DIIS
   @DF-RHF iter   4:   -76.05354836354449   -4.14169e-04   9.18356e-06 DIIS
   @DF-RHF iter   5:   -76.05357820671203   -2.98432e-05   2.23418e-06 DIIS
   @DF-RHF iter   6:   -76.05358091940826   -2.71270e-06   4.80965e-07 DIIS
   @DF-RHF iter   7:   -76.05358105249665   -1.33088e-07   7.67814e-08 DIIS
   @DF-RHF iter   8:   -76.05358105536659   -2.86994e-09   1.30782e-08 DIIS
   @DF-RHF iter   9:   -76.05358105543110   -6.45031e-11   3.17127e-09 DIIS
  Energy and wave function converged.


  ==> Post-Iterations <==

    Orbital Energies [Eh]
    ---------------------

    Doubly Occupied:                                                      

       1A    -20.572405     2A     -1.354852     3A     -0.695379  
       4A     -0.597517     5A     -0.511831  

    Virtual:                                                              

       6A      0.006274     7A      0.009447     8A      0.009889  
       9A      0.010816    10A      0.017689    11A      0.017926  
      12A      0.018213    13A      0.019085    14A      0.019098  
      15A      0.030164    16A      0.034433    17A      0.035931  
      18A      0.039198    19A      0.053620    20A      0.055036  
      21A      0.056916    22A      0.062520    23A      0.062778  
      24A      0.069865    25A      0.071656    26A      0.073316  
      27A      0.074798    28A      0.078700    29A      0.079902  
      30A      0.084436    31A      0.088746    32A      0.091045  
      33A      0.094080    34A      0.098062    35A      0.100683  
      36A      0.106942    37A      0.113814    38A      0.119323  
      39A      0.133587    40A      0.150158    41A      0.152743  
      42A      0.154592    43A      0.160208    44A      0.165745  
      45A      0.166999    46A      0.174095    47A      0.176697  
      48A      0.178124    49A      0.181458    50A      0.184246  
      51A      0.187373    52A      0.193194    53A      0.205392  
      54A      0.208658    55A      0.214104    56A      0.218675  
      57A      0.219004    58A      0.225372    59A      0.228394  
      60A      0.233637    61A      0.235638    62A      0.247150  
      63A      0.251259    64A      0.255622    65A      0.260218  
      66A      0.270185    67A      0.274995    68A      0.280344  
      69A      0.288821    70A      0.292145    71A      0.301612  
      72A      0.311525    73A      0.312846    74A      0.322241  
      75A      0.328846    76A      0.334940    77A      0.339806  
      78A      0.343426    79A      0.349408    80A      0.351871  
      81A      0.359733    82A      0.360815    83A      0.362285  
      84A      0.367402    85A      0.372889    86A      0.383082  
      87A      0.389169    88A      0.394970    89A      0.398201  
      90A      0.407869    91A      0.409935    92A      0.411635  
      93A      0.416492    94A      0.424613    95A      0.429581  
      96A      0.429959    97A      0.439488    98A      0.442493  
      99A      0.448261   100A      0.453158   101A      0.455875  
     102A      0.458072   103A      0.466676   104A      0.468403  
     105A      0.472645   106A      0.478198   107A      0.485398  
     108A      0.489013   109A      0.492264   110A      0.493673  
     111A      0.500888   112A      0.503634   113A      0.505808  
     114A      0.510310   115A      0.513880   116A      0.520208  
     117A      0.528618   118A      0.531511   119A      0.534930  
     120A      0.545284   121A      0.551298   122A      0.562709  
     123A      0.565834   124A      0.578770   125A      0.587831  
     126A      0.600640   127A      0.612601   128A      0.617569  
     129A      0.625981   130A      0.629704   131A      0.646313  
     132A      0.666650   133A      0.671100   134A      0.693095  
     135A      0.701656   136A      0.723313   137A      0.728495  
     138A      0.735464   139A      0.752540   140A      0.765397  
     141A      0.768955   142A      0.786344   143A      0.796477  
     144A      0.807380   145A      0.810968   146A      0.817596  
     147A      0.820994   148A      0.827844   149A      0.838221  
     150A      0.840838   151A      0.845309   152A      0.848474  
     153A      0.855326   154A      0.863484   155A      0.866294  
     156A      0.871208   157A      0.874681   158A      0.884739  
     159A      0.888566   160A      0.896911   161A      0.899650  
     162A      0.902499   163A      0.911189   164A      0.918547  
     165A      0.923505   166A      0.929800   167A      0.935003  
     168A      0.943028   169A      0.949374   170A      0.950381  
     171A      0.958811   172A      0.964716   173A      0.969928  
     174A      0.977251   175A      0.987397   176A      0.989263  
     177A      1.000084   178A      1.004000   179A      1.015347  
     180A      1.020022   181A      1.022229   182A      1.032853  
     183A      1.038965   184A      1.041875   185A      1.046895  
     186A      1.050532   187A      1.055241   188A      1.064678  
     189A      1.066158   190A      1.072732   191A      1.075816  
     192A      1.084955   193A      1.097674   194A      1.100568  
     195A      1.103853   196A      1.115417   197A      1.120222  
     198A      1.124280   199A      1.126266   200A      1.131210  
     201A      1.138217   202A      1.139541   203A      1.153948  
     204A      1.161247   205A      1.168701   206A      1.172598  
     207A      1.180098   208A      1.188078   209A      1.188646  
     210A      1.198990   211A      1.201478   212A      1.213546  
     213A      1.216512   214A      1.219119   215A      1.227505  
     216A      1.235066   217A      1.246282   218A      1.248690  
     219A      1.255738   220A      1.260744   221A      1.266415  
     222A      1.268955   223A      1.277643   224A      1.278306  
     225A      1.292122   226A      1.297522   227A      1.316845  
     228A      1.318907   229A      1.320174   230A      1.333514  
     231A      1.344031   232A      1.350242   233A      1.361095  
     234A      1.378486   235A      1.381365   236A      1.391494  
     237A      1.399887   238A      1.404554   239A      1.421255  
     240A      1.427742   241A      1.431582   242A      1.439501  
     243A      1.461220   244A      1.473129   245A      1.494985  
     246A      1.507521   247A      1.508446   248A      1.532257  
     249A      1.547751   250A      1.555765   251A      1.568985  
     252A      1.584749   253A      1.603885   254A      1.614787  
     255A      1.623012   256A      1.655065   257A      1.665280  
     258A      1.671870   259A      1.702936   260A      1.722261  
     261A      1.724185   262A      1.735177   263A      1.779438  
     264A      1.793976   265A      1.803145   266A      1.815137  
     267A      1.825742   268A      1.830396   269A      1.836339  
     270A      1.844508   271A      1.868174   272A      1.871241  
     273A      1.873408   274A      1.883809   275A      1.889976  
     276A      1.900658   277A      1.909189   278A      1.924499  
     279A      1.932300   280A      1.939170   281A      1.950229  
     282A      1.958758   283A      1.973429   284A      1.982872  
     285A      1.990381   286A      2.004034   287A      2.021964  
     288A      2.035856   289A      2.050425   290A      2.065893  
     291A      2.126192   292A      2.159902   293A      2.181687  
     294A      2.181888   295A      2.233778   296A      2.274335  
     297A      2.293761   298A      2.333920   299A      2.371089  
     300A      2.391007   301A      2.394635   302A      2.403725  
     303A      2.422202   304A      2.441960   305A      2.451349  
     306A      2.458349   307A      2.465736   308A      2.478798  
     309A      2.489820   310A      2.525787   311A      2.532481  
     312A      2.537323   313A      2.550228   314A      2.560952  
     315A      2.572519   316A      2.580207   317A      2.591916  
     318A      2.598673   319A      2.600441   320A      2.604774  
     321A      2.611964   322A      2.619084   323A      2.622764  
     324A      2.635324   325A      2.641426   326A      2.647436  
     327A      2.654272   328A      2.675122   329A      2.684036  
     330A      2.689412   331A      2.701784   332A      2.708483  
     333A      2.723152   334A      2.728012   335A      2.743812  
     336A      2.752330   337A      2.765047   338A      2.773495  
     339A      2.783882   340A      2.803990   341A      2.833016  
     342A      2.861254   343A      2.864012   344A      2.875218  
     345A      2.885992   346A      2.890121   347A      2.907331  
     348A      2.914585   349A      2.928120   350A      2.936854  
     351A      2.944663   352A      2.958700   353A      2.978844  
     354A      2.987818   355A      3.010419   356A      3.027788  
     357A      3.058701   358A      3.089526   359A      3.113895  
     360A      3.182212   361A      3.199034   362A      3.212269  
     363A      3.232271   364A      3.235305   365A      3.244424  
     366A      3.254939   367A      3.268492   368A      3.282252  
     369A      3.301066   370A      3.311542   371A      3.322315  
     372A      3.335788   373A      3.357397   374A      3.362929  
     375A      3.371184   376A      3.387555   377A      3.392010  
     378A      3.397846   379A      3.411678   380A      3.427092  
     381A      3.432073   382A      3.434523   383A      3.464897  
     384A      3.495252   385A      3.516989   386A      3.569364  
     387A      3.601588   388A      3.635032   389A      3.684631  
     390A      3.709045   391A      3.737153   392A      3.740256  
     393A      3.759202   394A      3.779928   395A      3.801855  
     396A      3.805403   397A      3.820763   398A      3.884933  
     399A      3.909458   400A      4.151992   401A      4.180552  
     402A      4.253087   403A      4.295355   404A      4.387246  
     405A      4.398548   406A      4.412501   407A      4.428180  
     408A      4.438437   409A      4.447903   410A      4.468335  
     411A      4.472254   412A      4.485263   413A      4.490904  
     414A      4.514387   415A      4.537644   416A      4.550496  
     417A      4.556216   418A      4.579740   419A      4.581124  
     420A      4.596437   421A      4.615704   422A      4.619795  
     423A      4.645546   424A      4.660692   425A      4.670684  
     426A      4.678572   427A      4.695259   428A      4.698114  
     429A      4.720069   430A      4.741522   431A      4.746373  
     432A      4.756093   433A      4.771079   434A      4.782169  
     435A      4.794289   436A      4.828336   437A      4.842150  
     438A      4.864932   439A      4.889517   440A      4.904418  
     441A      4.934385   442A      4.953757   443A      4.963430  
     444A      4.974096   445A      4.983214   446A      4.991432  
     447A      5.015322   448A      5.022714   449A      5.046428  
     450A      5.069403   451A      5.076592   452A      5.100512  
     453A      5.111116   454A      5.148510   455A      5.150389  
     456A      5.178833   457A      5.210953   458A      5.255960  
     459A      5.279676   460A      5.287361   461A      5.311398  
     462A      5.318141   463A      5.426074   464A      5.453981  
     465A      5.469149   466A      5.493930   467A      5.525380  
     468A      5.574905   469A      5.578226   470A      5.589268  
     471A      5.595098   472A      5.620589   473A      5.623130  
     474A      5.659419   475A      5.673124   476A      5.704809  
     477A      5.717293   478A      5.728475   479A      5.749257  
     480A      5.776790   481A      5.839188   482A      5.862487  
     483A      5.889874   484A      5.919580   485A      5.954679  
     486A      6.037874   487A      6.147256   488A      6.155272  
     489A      6.200621   490A      6.225893   491A      6.280155  
     492A      6.330504   493A      6.360172   494A      6.363274  
     495A      6.382054   496A      6.455133   497A      6.508522  
     498A      6.558001   499A      6.590620   500A      6.648198  
     501A      6.721447   502A      6.769436   503A      6.779854  
     504A      6.880938   505A      7.026527   506A      7.064188  
     507A      7.076061   508A      7.092369   509A      7.123106  
     510A      7.188606   511A      7.220120   512A      7.280883  
     513A      7.319844   514A      7.390857   515A      7.445463  
     516A      7.525540   517A      7.656974   518A      7.707022  
     519A      7.709301   520A      7.713340   521A      7.752153  
     522A      7.784824   523A      7.830611   524A      7.867117  
     525A      7.878667   526A      7.897678   527A      7.903517  
     528A      7.984130   529A      8.029887   530A      8.063728  
     531A      8.072169   532A      8.082402   533A      8.096279  
     534A      8.106235   535A      8.127936   536A      8.185753  
     537A      8.237139   538A      8.264634   539A      8.283413  
     540A      8.296808   541A      8.303019   542A      8.311544  
     543A      8.341241   544A      8.371210   545A      8.646185  
     546A      8.690935   547A      8.742660   548A      8.791329  
     549A      8.805131   550A      8.817140   551A      8.839207  
     552A      8.868059   553A      8.931862   554A      9.004984  
     555A      9.069423   556A      9.768634   557A      9.800829  
     558A      9.857717   559A      9.883461   560A      9.931917  
     561A      9.965334   562A      9.967379   563A      9.981733  
     564A     10.003319   565A     10.030019   566A     10.046143  
     567A     10.050851   568A     10.055496   569A     10.064977  
     570A     10.084809   571A     10.207839   572A     10.264904  
     573A     10.284249   574A     10.288379   575A     10.338788  
     576A     10.522543   577A     11.008461   578A     11.126753  
     579A     11.218736   580A     11.284548   581A     11.405746  
     582A     11.721247   583A     11.724748   584A     11.746427  
     585A     11.859859   586A     12.015024   587A     12.050856  
     588A     12.094043   589A     12.166522   590A     12.352826  
     591A     12.617378   592A     13.499844   593A     13.541917  
     594A     13.606957   595A     13.702131   596A     13.859383  
     597A     13.869050   598A     13.914296   599A     13.940150  
     600A     13.951464   601A     13.981996   602A     16.018680  
     603A     31.008244   604A     31.407195   605A     31.586434  
     606A     63.825482   607A     64.565663   608A     64.809061  
     609A     65.784424   610A     67.492351   611A    198.285315  

    Final Occupation by Irrep:
              A 
    DOCC [     5 ]
    NA   [     5 ]
    NB   [     5 ]

  @DF-RHF Final Energy:   -76.05358105543110

   => Energetics <=

    Nuclear Repulsion Energy =              9.1113663588281248
    One-Electron Energy =                -122.8659237390694727
    Two-Electron Energy =                  37.7009763248102558
    Total Energy =                        -76.0535810554310956

Computation Completed


Properties will be evaluated at   0.000000,   0.000000,   0.000000 [a0]

Properties computed using the SCF density matrix


 Multipole Moments:

 ------------------------------------------------------------------------------------
     Multipole            Electronic (a.u.)      Nuclear  (a.u.)        Total (a.u.)
 ------------------------------------------------------------------------------------

 L = 1.  Multiply by 2.5417464519 to convert [e a0] to [Debye]
 Dipole X            :        -39.7063034           40.3963296            0.6900262
 Dipole Y            :        -11.8019942           12.2629865            0.4609923
 Dipole Z            :         36.3319386          -36.2306948            0.1012438
 Magnitude           :                                                    0.8360026

 ------------------------------------------------------------------------------------

*** tstop() called on moses-razer at Wed Jan 24 16:52:07 2024
Module time:
	user time   =      64.14 seconds =       1.07 minutes
	system time =       3.25 seconds =       0.05 minutes
	total time  =         17 seconds =       0.28 minutes
Total time:
	user time   =      64.14 seconds =       1.07 minutes
	system time =       3.25 seconds =       0.05 minutes
	total time  =         17 seconds =       0.28 minutes

*** tstart() called on moses-razer
*** at Wed Jan 24 16:52:07 2024


  //>>>>>>>>>>>>>>>>>>>>>>>>>>>>>>>>>>>//
  //               DFMP2               //
  //<<<<<<<<<<<<<<<<<<<<<<<<<<<<<<<<<<<//

   => Loading Basis Set <=

    Name: (AUG-CC-PVTZ AUX)
    Role: RIFIT
    Keyword: DF_BASIS_MP2
    atoms 1                                   entry K          line  1282 file /home/kchung25/anaconda3/envs/p415env/share/psi4/basis/def2-qzvpp-ri.gbs 
    atoms 2, 5, 8, 11, 14, 17                 entry O          line   264 file /home/kchung25/anaconda3/envs/p415env/share/psi4/basis/aug-cc-pvtz-ri.gbs 
    atoms 3-4, 6-7, 9-10, 12-13, 15-16, 18-19 entry H          line    30 file /home/kchung25/anaconda3/envs/p415env/share/psi4/basis/aug-cc-pvtz-ri.gbs 

	 --------------------------------------------------------
	                          DF-MP2                         
	      2nd-Order Density-Fitted Moller-Plesset Theory     
	              RMP2 Wavefunction,   6 Threads             
	                                                         
	        Rob Parrish, Justin Turney, Andy Simmonett,      
	           Ed Hohenstein, and C. David Sherrill          
	 --------------------------------------------------------

   => Auxiliary Basis Set <=

  Basis Set: (AUG-CC-PVTZ AUX)
    Blend: AUG-CC-PVTZ-RI + DEF2-QZVPP-RI
    Number of shells: 385
    Number of basis functions: 1387
    Number of Cartesian functions: 1738
    Spherical Harmonics?: true
    Max angular momentum: 4

	 --------------------------------------------------------
	                 NBF =   611, NAUX =  1387
	 --------------------------------------------------------
	   CLASS    FOCC     OCC    AOCC    AVIR     VIR    FVIR
	   PAIRS       0       5       5     606     606       0
	 --------------------------------------------------------

	-----------------------------------------------------------
	 ==================> DF-MP2 Energies <==================== 
	-----------------------------------------------------------
	 Reference Energy          =     -76.0535810554310956 [Eh]
	 Singles Energy            =      -0.0000000000000000 [Eh]
	 Same-Spin Energy          =      -0.0688255266846603 [Eh]
	 Opposite-Spin Energy      =      -0.2169792094965905 [Eh]
	 Correlation Energy        =      -0.2858047361812509 [Eh]
	 Total Energy              =     -76.3393857916123437 [Eh]
	-----------------------------------------------------------
	 ================> DF-SCS-MP2 Energies <================== 
	-----------------------------------------------------------
	 SCS Same-Spin Scale       =       0.3333333333333333 [-]
	 SCS Opposite-Spin Scale   =       1.2000000000000000 [-]
	 SCS Same-Spin Energy      =      -0.0229418422282201 [Eh]
	 SCS Opposite-Spin Energy  =      -0.2603750513959086 [Eh]
	 SCS Correlation Energy    =      -0.2833168936241287 [Eh]
	 SCS Total Energy          =     -76.3368979490552277 [Eh]
	-----------------------------------------------------------


*** tstop() called on moses-razer at Wed Jan 24 16:52:17 2024
Module time:
	user time   =      23.97 seconds =       0.40 minutes
	system time =       1.84 seconds =       0.03 minutes
	total time  =         10 seconds =       0.17 minutes
Total time:
	user time   =      88.11 seconds =       1.47 minutes
	system time =       5.09 seconds =       0.08 minutes
	total time  =         27 seconds =       0.45 minutes

    Psi4 stopped on: Wednesday, 24 January 2024 04:52PM
    Psi4 wall time for execution: 0:00:26.77

*** Psi4 exiting successfully. Buy a developer a beer!
