
    -----------------------------------------------------------------------
          Psi4: An Open-Source Ab Initio Electronic Structure Package
                               Psi4 1.9 release

                         Git: Rev {} zzzzzzz 


    D. G. A. Smith, L. A. Burns, A. C. Simmonett, R. M. Parrish,
    M. C. Schieber, R. Galvelis, P. Kraus, H. Kruse, R. Di Remigio,
    A. Alenaizan, A. M. James, S. Lehtola, J. P. Misiewicz, M. Scheurer,
    R. A. Shaw, J. B. Schriber, Y. Xie, Z. L. Glick, D. A. Sirianni,
    J. S. O'Brien, J. M. Waldrop, A. Kumar, E. G. Hohenstein,
    B. P. Pritchard, B. R. Brooks, H. F. Schaefer III, A. Yu. Sokolov,
    K. Patkowski, A. E. DePrince III, U. Bozkaya, R. A. King,
    F. A. Evangelista, J. M. Turney, T. D. Crawford, C. D. Sherrill,
    J. Chem. Phys. 152(18) 184108 (2020). https://doi.org/10.1063/5.0006002

                            Additional Code Authors
    E. T. Seidl, C. L. Janssen, E. F. Valeev, M. L. Leininger,
    J. F. Gonthier, R. M. Richard, H. R. McAlexander, M. Saitow, X. Wang,
    P. Verma, M. H. Lechner, A. Jiang, S. Behnle, A. G. Heide,
    M. F. Herbst, and D. L. Poole

             Previous Authors, Complete List of Code Contributors,
                       and Citations for Specific Modules
    https://github.com/psi4/psi4/blob/master/codemeta.json
    https://github.com/psi4/psi4/graphs/contributors
    http://psicode.org/psi4manual/master/introduction.html#citing-psifour

    -----------------------------------------------------------------------


    Psi4 started on: Wednesday, 24 January 2024 04:55PM

    Process ID: 1242554
    Host:       moses-razer
    PSIDATADIR: /home/kchung25/anaconda3/envs/psi4_19/share/psi4
    Memory:     500.0 MiB
    Threads:    6
    
  ==> Input File <==

--------------------------------------------------------------------------
MEMORY 60 GB

molecule dimer {
0 1
Gh(K)      0.000000     0.000000     0.000000
Gh(O)     -1.350579    -0.451019    -2.184171
Gh(H)     -0.828374    -0.405480    -2.959027
Gh(H)     -2.295838    -0.182448    -2.477727
Gh(O)      0.811714    -2.953770    -0.024877
Gh(H)      0.491865    -3.516386     0.715024
Gh(H)      1.703134    -3.259401    -0.070729
Gh(O)      1.439502    -0.931900     2.390588
Gh(H)      1.923833    -1.620427     2.861863
Gh(H)      0.879775    -0.561656     3.062076
O          2.556752     0.575285    -0.926306
H          2.963771     0.049734    -0.227753
H          2.591393     1.523133    -0.691197
Gh(O)     -1.229385     2.374053     0.624562
Gh(H)     -0.903017     3.116669     1.152358
Gh(H)     -2.153941     2.270777     0.923160
Gh(O)     -1.464224    -0.338413     2.131283
Gh(H)     -1.017152    -0.390138     2.970331
Gh(H)     -2.307745     0.086032     2.373066

units ang
no_reorient
no_com
symmetry c1
}

set {
basis        aug-cc-pVTZ
scf_type     df
}

energy("mp2")
--------------------------------------------------------------------------

  Memory set to  55.879 GiB by Python driver.

Scratch directory: /scratch/
   => Libint2 <=

    Primary   basis highest AM E, G, H:  5, 4, 3
    Auxiliary basis highest AM E, G, H:  6, 5, 4
    Onebody   basis highest AM E, G, H:  6, 5, 4
    Solid Harmonics ordering:            gaussian

*** tstart() called on moses-razer
*** at Wed Jan 24 16:55:14 2024

   => Loading Basis Set <=

    Name: AUG-CC-PVTZ
    Role: ORBITAL
    Keyword: BASIS
    atoms 1                                   entry K          line  1152 file /home/kchung25/anaconda3/envs/p415env/share/psi4/basis/aug-cc-pvtz.gbs 
    atoms 2, 5, 8, 11, 14, 17                 entry O          line   331 file /home/kchung25/anaconda3/envs/p415env/share/psi4/basis/aug-cc-pvtz.gbs 
    atoms 3-4, 6-7, 9-10, 12-13, 15-16, 18-19 entry H          line    40 file /home/kchung25/anaconda3/envs/p415env/share/psi4/basis/aug-cc-pvtz.gbs 


         ---------------------------------------------------------
                                   SCF
               by Justin Turney, Rob Parrish, Andy Simmonett
                          and Daniel G. A. Smith
                              RHF Reference
                        6 Threads,  57220 MiB Core
         ---------------------------------------------------------

  ==> Geometry <==

    Molecular point group: c1
    Full point group: C1

    Geometry (in Angstrom), charge = 0, multiplicity = 1:

       Center              X                  Y                   Z               Mass       
    ------------   -----------------  -----------------  -----------------  -----------------
      Gh(K)           0.000000000000     0.000000000000     0.000000000000    38.963706486400
      Gh(O)          -1.350579000000    -0.451019000000    -2.184171000000    15.994914619570
      Gh(H)          -0.828374000000    -0.405480000000    -2.959027000000     1.007825032230
      Gh(H)          -2.295838000000    -0.182448000000    -2.477727000000     1.007825032230
      Gh(O)           0.811714000000    -2.953770000000    -0.024877000000    15.994914619570
      Gh(H)           0.491865000000    -3.516386000000     0.715024000000     1.007825032230
      Gh(H)           1.703134000000    -3.259401000000    -0.070729000000     1.007825032230
      Gh(O)           1.439502000000    -0.931900000000     2.390588000000    15.994914619570
      Gh(H)           1.923833000000    -1.620427000000     2.861863000000     1.007825032230
      Gh(H)           0.879775000000    -0.561656000000     3.062076000000     1.007825032230
         O            2.556752000000     0.575285000000    -0.926306000000    15.994914619570
         H            2.963771000000     0.049734000000    -0.227753000000     1.007825032230
         H            2.591393000000     1.523133000000    -0.691197000000     1.007825032230
      Gh(O)          -1.229385000000     2.374053000000     0.624562000000    15.994914619570
      Gh(H)          -0.903017000000     3.116669000000     1.152358000000     1.007825032230
      Gh(H)          -2.153941000000     2.270777000000     0.923160000000     1.007825032230
      Gh(O)          -1.464224000000    -0.338413000000     2.131283000000    15.994914619570
      Gh(H)          -1.017152000000    -0.390138000000     2.970331000000     1.007825032230
      Gh(H)          -2.307745000000     0.086032000000     2.373066000000     1.007825032230

  Running in c1 symmetry.

  Rotational constants: A =      0.03279  B =      0.02913  C =      0.02484 [cm^-1]
  Rotational constants: A =    983.13224  B =    873.19907  C =    744.62234 [MHz]
  Nuclear repulsion =    9.055534012502710

  Charge       = 0
  Multiplicity = 1
  Electrons    = 10
  Nalpha       = 5
  Nbeta        = 5

  ==> Algorithm <==

  SCF Algorithm Type is DF.
  DIIS enabled.
  MOM disabled.
  Fractional occupation disabled.
  Guess Type is SAD.
  Energy threshold   = 1.00e-08
  Density threshold  = 1.00e-08
  Integral threshold = 1.00e-12

  ==> Primary Basis <==

  Basis Set: AUG-CC-PVTZ
    Blend: AUG-CC-PVTZ
    Number of shells: 211
    Number of basis functions: 611
    Number of Cartesian functions: 699
    Spherical Harmonics?: true
    Max angular momentum: 3

   => Loading Basis Set <=

    Name: (AUG-CC-PVTZ AUX)
    Role: JKFIT
    Keyword: DF_BASIS_SCF
    atoms 1                                   entry K          line  1152 file /home/kchung25/anaconda3/envs/p415env/share/psi4/basis/def2-universal-jkfit.gbs 
    atoms 2, 5, 8, 11, 14, 17                 entry O          line   286 file /home/kchung25/anaconda3/envs/p415env/share/psi4/basis/aug-cc-pvtz-jkfit.gbs 
    atoms 3-4, 6-7, 9-10, 12-13, 15-16, 18-19 entry H          line    70 file /home/kchung25/anaconda3/envs/p415env/share/psi4/basis/aug-cc-pvtz-jkfit.gbs 

  ==> Integral Setup <==

  DFHelper Memory: AOs need 3.341 GiB; user supplied 41.910 GiB. 
  Using in-core AOs.

  ==> MemDFJK: Density-Fitted J/K Matrices <==

    J tasked:                   Yes
    K tasked:                   Yes
    wK tasked:                   No
    OpenMP threads:               6
    Memory [MiB]:             42915
    Algorithm:                 Core
    Schwarz Cutoff:           1E-12
    Mask sparsity (%):      12.9165
    Fitting Condition:        1E-10

   => Auxiliary Basis Set <=

  Basis Set: (AUG-CC-PVTZ AUX)
    Blend: AUG-CC-PVTZ-JKFIT + DEF2-UNIVERSAL-JKFIT
    Number of shells: 392
    Number of basis functions: 1336
    Number of Cartesian functions: 1649
    Spherical Harmonics?: true
    Max angular momentum: 4

  Minimum eigenvalue in the overlap matrix is 4.5603436725E-05.
  Reciprocal condition number of the overlap matrix is 3.1098720835E-06.
    Using symmetric orthogonalization.

  ==> Pre-Iterations <==

  SCF Guess: Superposition of Atomic Densities via on-the-fly atomic UHF (no occupation information).

   -------------------------
    Irrep   Nso     Nmo    
   -------------------------
     A        611     611 
   -------------------------
    Total     611     611
   -------------------------

  ==> Iterations <==

                           Total Energy        Delta E     RMS |[F,P]|

   @DF-RHF iter SAD:   -75.45728771637918   -7.54573e+01   0.00000e+00 
   @DF-RHF iter   1:   -75.97456028924493   -5.17273e-01   7.65256e-04 DIIS/ADIIS
   @DF-RHF iter   2:   -76.02650183172558   -5.19415e-02   5.25708e-04 DIIS/ADIIS
   @DF-RHF iter   3:   -76.05842669821244   -3.19249e-02   3.57943e-05 DIIS
   @DF-RHF iter   4:   -76.05883737874524   -4.10681e-04   8.81516e-06 DIIS
   @DF-RHF iter   5:   -76.05886447423643   -2.70955e-05   2.01703e-06 DIIS
   @DF-RHF iter   6:   -76.05886675873566   -2.28450e-06   4.54050e-07 DIIS
   @DF-RHF iter   7:   -76.05886688679274   -1.28057e-07   8.59983e-08 DIIS
   @DF-RHF iter   8:   -76.05886689083290   -4.04016e-09   1.44266e-08 DIIS
   @DF-RHF iter   9:   -76.05886689092476   -9.18590e-11   3.69028e-09 DIIS
  Energy and wave function converged.


  ==> Post-Iterations <==

    Orbital Energies [Eh]
    ---------------------

    Doubly Occupied:                                                      

       1A    -20.566923     2A     -1.343031     3A     -0.720122  
       4A     -0.571982     5A     -0.507595  

    Virtual:                                                              

       6A      0.006556     7A      0.009037     8A      0.009413  
       9A      0.010755    10A      0.017893    11A      0.018019  
      12A      0.018252    13A      0.018775    14A      0.019097  
      15A      0.030905    16A      0.031756    17A      0.033695  
      18A      0.037852    19A      0.054917    20A      0.055912  
      21A      0.056934    22A      0.060156    23A      0.062154  
      24A      0.070882    25A      0.071371    26A      0.075356  
      27A      0.076258    28A      0.077835    29A      0.078855  
      30A      0.079687    31A      0.081899    32A      0.084114  
      33A      0.093566    34A      0.099426    35A      0.102218  
      36A      0.104637    37A      0.120579    38A      0.128735  
      39A      0.137507    40A      0.145216    41A      0.149420  
      42A      0.151465    43A      0.154639    44A      0.162971  
      45A      0.163747    46A      0.166747    47A      0.172597  
      48A      0.176701    49A      0.183267    50A      0.185331  
      51A      0.188841    52A      0.190667    53A      0.202913  
      54A      0.205664    55A      0.211699    56A      0.213652  
      57A      0.217104    58A      0.223050    59A      0.233811  
      60A      0.234305    61A      0.238538    62A      0.241746  
      63A      0.251823    64A      0.257275    65A      0.260798  
      66A      0.268716    67A      0.271650    68A      0.276969  
      69A      0.291377    70A      0.293337    71A      0.302284  
      72A      0.308652    73A      0.311090    74A      0.320526  
      75A      0.323039    76A      0.331067    77A      0.333949  
      78A      0.335917    79A      0.339937    80A      0.347536  
      81A      0.355221    82A      0.359044    83A      0.364174  
      84A      0.367076    85A      0.374731    86A      0.382179  
      87A      0.384252    88A      0.390682    89A      0.394346  
      90A      0.400567    91A      0.408636    92A      0.411810  
      93A      0.416629    94A      0.420463    95A      0.423322  
      96A      0.427218    97A      0.431385    98A      0.441180  
      99A      0.444394   100A      0.449209   101A      0.451959  
     102A      0.458436   103A      0.460486   104A      0.468755  
     105A      0.473135   106A      0.475837   107A      0.477242  
     108A      0.481093   109A      0.484835   110A      0.487589  
     111A      0.494588   112A      0.501755   113A      0.503705  
     114A      0.507010   115A      0.515553   116A      0.520672  
     117A      0.525028   118A      0.529453   119A      0.533345  
     120A      0.539018   121A      0.542813   122A      0.550661  
     123A      0.553766   124A      0.572211   125A      0.579293  
     126A      0.584521   127A      0.595889   128A      0.610752  
     129A      0.613435   130A      0.617258   131A      0.642996  
     132A      0.655032   133A      0.666224   134A      0.699930  
     135A      0.709920   136A      0.717374   137A      0.720113  
     138A      0.737689   139A      0.742339   140A      0.752871  
     141A      0.762984   142A      0.773037   143A      0.778083  
     144A      0.785978   145A      0.791983   146A      0.797650  
     147A      0.807752   148A      0.815449   149A      0.821308  
     150A      0.822560   151A      0.837809   152A      0.842120  
     153A      0.849649   154A      0.851961   155A      0.865363  
     156A      0.870205   157A      0.872871   158A      0.879849  
     159A      0.886408   160A      0.888231   161A      0.900441  
     162A      0.907605   163A      0.911261   164A      0.917510  
     165A      0.924708   166A      0.929083   167A      0.932431  
     168A      0.935693   169A      0.945896   170A      0.948171  
     171A      0.949992   172A      0.957255   173A      0.959870  
     174A      0.968915   175A      0.973439   176A      0.978178  
     177A      0.985513   178A      0.993442   179A      1.001437  
     180A      1.009492   181A      1.011788   182A      1.014907  
     183A      1.023314   184A      1.028880   185A      1.031115  
     186A      1.040134   187A      1.046962   188A      1.051003  
     189A      1.056375   190A      1.068434   191A      1.074764  
     192A      1.081326   193A      1.084700   194A      1.089170  
     195A      1.090252   196A      1.103218   197A      1.107272  
     198A      1.113086   199A      1.115280   200A      1.121370  
     201A      1.127580   202A      1.136046   203A      1.140666  
     204A      1.150529   205A      1.154744   206A      1.162554  
     207A      1.168953   208A      1.173313   209A      1.175957  
     210A      1.181710   211A      1.185608   212A      1.194268  
     213A      1.207259   214A      1.207417   215A      1.220832  
     216A      1.225475   217A      1.227343   218A      1.239334  
     219A      1.246958   220A      1.253459   221A      1.260870  
     222A      1.263419   223A      1.270538   224A      1.275022  
     225A      1.283660   226A      1.290103   227A      1.292297  
     228A      1.305594   229A      1.313301   230A      1.322207  
     231A      1.327226   232A      1.336334   233A      1.340690  
     234A      1.350551   235A      1.359855   236A      1.360540  
     237A      1.376800   238A      1.382009   239A      1.395928  
     240A      1.402826   241A      1.416672   242A      1.422720  
     243A      1.440251   244A      1.462923   245A      1.472027  
     246A      1.486833   247A      1.500952   248A      1.513548  
     249A      1.529564   250A      1.548294   251A      1.564003  
     252A      1.571511   253A      1.596325   254A      1.606368  
     255A      1.613861   256A      1.626023   257A      1.648884  
     258A      1.666537   259A      1.686646   260A      1.696994  
     261A      1.728003   262A      1.740549   263A      1.750945  
     264A      1.760899   265A      1.778352   266A      1.784342  
     267A      1.796001   268A      1.801391   269A      1.809587  
     270A      1.827789   271A      1.832442   272A      1.841432  
     273A      1.857812   274A      1.865164   275A      1.876496  
     276A      1.879440   277A      1.894399   278A      1.897220  
     279A      1.899322   280A      1.914893   281A      1.923202  
     282A      1.934287   283A      1.953257   284A      1.955939  
     285A      1.974205   286A      1.986375   287A      2.008688  
     288A      2.024897   289A      2.048599   290A      2.065289  
     291A      2.071904   292A      2.097035   293A      2.133996  
     294A      2.160814   295A      2.191979   296A      2.232826  
     297A      2.313702   298A      2.334591   299A      2.347975  
     300A      2.355998   301A      2.386227   302A      2.408718  
     303A      2.417974   304A      2.423129   305A      2.442199  
     306A      2.446528   307A      2.458626   308A      2.472540  
     309A      2.488985   310A      2.499410   311A      2.507802  
     312A      2.509146   313A      2.523397   314A      2.541517  
     315A      2.547175   316A      2.554811   317A      2.561889  
     318A      2.575961   319A      2.590192   320A      2.593524  
     321A      2.602535   322A      2.613010   323A      2.615184  
     324A      2.617803   325A      2.622993   326A      2.631457  
     327A      2.640885   328A      2.662041   329A      2.667472  
     330A      2.672711   331A      2.686000   332A      2.699631  
     333A      2.704384   334A      2.712522   335A      2.724162  
     336A      2.732582   337A      2.756613   338A      2.762351  
     339A      2.765821   340A      2.796625   341A      2.800805  
     342A      2.813596   343A      2.826046   344A      2.840728  
     345A      2.852634   346A      2.859281   347A      2.873164  
     348A      2.877900   349A      2.894450   350A      2.904228  
     351A      2.924062   352A      2.930851   353A      2.940157  
     354A      2.963085   355A      2.971226   356A      2.988365  
     357A      3.021868   358A      3.028113   359A      3.055452  
     360A      3.104900   361A      3.155246   362A      3.198294  
     363A      3.202898   364A      3.209257   365A      3.225217  
     366A      3.245974   367A      3.263221   368A      3.273449  
     369A      3.275980   370A      3.294977   371A      3.305860  
     372A      3.330678   373A      3.341282   374A      3.348922  
     375A      3.353480   376A      3.361976   377A      3.371954  
     378A      3.376023   379A      3.391817   380A      3.398568  
     381A      3.418679   382A      3.423946   383A      3.437489  
     384A      3.452398   385A      3.515468   386A      3.558327  
     387A      3.587654   388A      3.620324   389A      3.640541  
     390A      3.680530   391A      3.721657   392A      3.731569  
     393A      3.758012   394A      3.776151   395A      3.792539  
     396A      3.817788   397A      3.828850   398A      3.845366  
     399A      3.901339   400A      4.080042   401A      4.259256  
     402A      4.282476   403A      4.325220   404A      4.373025  
     405A      4.385502   406A      4.409971   407A      4.433550  
     408A      4.451097   409A      4.456931   410A      4.465843  
     411A      4.474149   412A      4.488675   413A      4.501259  
     414A      4.510987   415A      4.513078   416A      4.524614  
     417A      4.534186   418A      4.552422   419A      4.557944  
     420A      4.572214   421A      4.580929   422A      4.588628  
     423A      4.599057   424A      4.611221   425A      4.623924  
     426A      4.659672   427A      4.670246   428A      4.685440  
     429A      4.694984   430A      4.711820   431A      4.720886  
     432A      4.742293   433A      4.748331   434A      4.751966  
     435A      4.761959   436A      4.773483   437A      4.781445  
     438A      4.797298   439A      4.832488   440A      4.891366  
     441A      4.919713   442A      4.930120   443A      4.953063  
     444A      4.959180   445A      4.971760   446A      4.982242  
     447A      4.999412   448A      5.001089   449A      5.017595  
     450A      5.028982   451A      5.039871   452A      5.055506  
     453A      5.093903   454A      5.117254   455A      5.127053  
     456A      5.170320   457A      5.179724   458A      5.206060  
     459A      5.252582   460A      5.263426   461A      5.315156  
     462A      5.342393   463A      5.344760   464A      5.371564  
     465A      5.455081   466A      5.474141   467A      5.490878  
     468A      5.515341   469A      5.590402   470A      5.591949  
     471A      5.599667   472A      5.608951   473A      5.621624  
     474A      5.639892   475A      5.648305   476A      5.683894  
     477A      5.705720   478A      5.724496   479A      5.739535  
     480A      5.754970   481A      5.794516   482A      5.821344  
     483A      5.858665   484A      5.920453   485A      5.927500  
     486A      5.980632   487A      6.127337   488A      6.146837  
     489A      6.168061   490A      6.189941   491A      6.247700  
     492A      6.297565   493A      6.347768   494A      6.371536  
     495A      6.383374   496A      6.427545   497A      6.469547  
     498A      6.575747   499A      6.616617   500A      6.641663  
     501A      6.650095   502A      6.734245   503A      6.741385  
     504A      6.763114   505A      6.878326   506A      7.054164  
     507A      7.102354   508A      7.111588   509A      7.126182  
     510A      7.145651   511A      7.209129   512A      7.318043  
     513A      7.354705   514A      7.366406   515A      7.409627  
     516A      7.429549   517A      7.585566   518A      7.696923  
     519A      7.701008   520A      7.709126   521A      7.760027  
     522A      7.780708   523A      7.800741   524A      7.845938  
     525A      7.867432   526A      7.875510   527A      7.901389  
     528A      7.914847   529A      7.980677   530A      8.040198  
     531A      8.063388   532A      8.075860   533A      8.084451  
     534A      8.100796   535A      8.112157   536A      8.165520  
     537A      8.171564   538A      8.191851   539A      8.204166  
     540A      8.289471   541A      8.299103   542A      8.320514  
     543A      8.339753   544A      8.359063   545A      8.673624  
     546A      8.694882   547A      8.699273   548A      8.735304  
     549A      8.792448   550A      8.803769   551A      8.813799  
     552A      8.834244   553A      8.877788   554A      8.893527  
     555A      8.956460   556A      9.785222   557A      9.799274  
     558A      9.802431   559A      9.861212   560A      9.877282  
     561A      9.938060   562A      9.949618   563A      9.976766  
     564A      9.994606   565A     10.000800   566A     10.024479  
     567A     10.035377   568A     10.040511   569A     10.088769  
     570A     10.091201   571A     10.226894   572A     10.241762  
     573A     10.262623   574A     10.267588   575A     10.349739  
     576A     10.489947   577A     10.968009   578A     11.169442  
     579A     11.231079   580A     11.249615   581A     11.272146  
     582A     11.679781   583A     11.718355   584A     11.730739  
     585A     11.755028   586A     11.789159   587A     12.059860  
     588A     12.184670   589A     12.220260   590A     12.223807  
     591A     12.304128   592A     13.456997   593A     13.499573  
     594A     13.605028   595A     13.620090   596A     13.691218  
     597A     13.847658   598A     13.907923   599A     13.945511  
     600A     13.956269   601A     14.002460   602A     15.784880  
     603A     31.107571   604A     31.215114   605A     31.321415  
     606A     64.112260   607A     64.432455   608A     65.089413  
     609A     65.427727   610A     65.865097   611A    198.271733  

    Final Occupation by Irrep:
              A 
    DOCC [     5 ]
    NA   [     5 ]
    NB   [     5 ]

  @DF-RHF Final Energy:   -76.05886689092476

   => Energetics <=

    Nuclear Repulsion Energy =              9.0555340125027097
    One-Electron Energy =                -122.8094931220047670
    Two-Electron Energy =                  37.6950922185773081
    Total Energy =                        -76.0588668909247474

Computation Completed


Properties will be evaluated at   0.000000,   0.000000,   0.000000 [a0]

Properties computed using the SCF density matrix


 Multipole Moments:

 ------------------------------------------------------------------------------------
     Multipole            Electronic (a.u.)      Nuclear  (a.u.)        Total (a.u.)
 ------------------------------------------------------------------------------------

 L = 1.  Multiply by 2.5417464519 to convert [e a0] to [Debye]
 Dipole X            :        -48.8534703           49.1502269            0.2967566
 Dipole Y            :        -11.3879505           11.6693366            0.2813861
 Dipole Z            :         16.3666365          -15.7402810            0.6263555
 Magnitude           :                                                    0.7480400

 ------------------------------------------------------------------------------------

*** tstop() called on moses-razer at Wed Jan 24 16:55:31 2024
Module time:
	user time   =      64.78 seconds =       1.08 minutes
	system time =       3.12 seconds =       0.05 minutes
	total time  =         17 seconds =       0.28 minutes
Total time:
	user time   =      64.78 seconds =       1.08 minutes
	system time =       3.12 seconds =       0.05 minutes
	total time  =         17 seconds =       0.28 minutes

*** tstart() called on moses-razer
*** at Wed Jan 24 16:55:31 2024


  //>>>>>>>>>>>>>>>>>>>>>>>>>>>>>>>>>>>//
  //               DFMP2               //
  //<<<<<<<<<<<<<<<<<<<<<<<<<<<<<<<<<<<//

   => Loading Basis Set <=

    Name: (AUG-CC-PVTZ AUX)
    Role: RIFIT
    Keyword: DF_BASIS_MP2
    atoms 1                                   entry K          line  1282 file /home/kchung25/anaconda3/envs/p415env/share/psi4/basis/def2-qzvpp-ri.gbs 
    atoms 2, 5, 8, 11, 14, 17                 entry O          line   264 file /home/kchung25/anaconda3/envs/p415env/share/psi4/basis/aug-cc-pvtz-ri.gbs 
    atoms 3-4, 6-7, 9-10, 12-13, 15-16, 18-19 entry H          line    30 file /home/kchung25/anaconda3/envs/p415env/share/psi4/basis/aug-cc-pvtz-ri.gbs 

	 --------------------------------------------------------
	                          DF-MP2                         
	      2nd-Order Density-Fitted Moller-Plesset Theory     
	              RMP2 Wavefunction,   6 Threads             
	                                                         
	        Rob Parrish, Justin Turney, Andy Simmonett,      
	           Ed Hohenstein, and C. David Sherrill          
	 --------------------------------------------------------

   => Auxiliary Basis Set <=

  Basis Set: (AUG-CC-PVTZ AUX)
    Blend: AUG-CC-PVTZ-RI + DEF2-QZVPP-RI
    Number of shells: 385
    Number of basis functions: 1387
    Number of Cartesian functions: 1738
    Spherical Harmonics?: true
    Max angular momentum: 4

	 --------------------------------------------------------
	                 NBF =   611, NAUX =  1387
	 --------------------------------------------------------
	   CLASS    FOCC     OCC    AOCC    AVIR     VIR    FVIR
	   PAIRS       0       5       5     606     606       0
	 --------------------------------------------------------

	-----------------------------------------------------------
	 ==================> DF-MP2 Energies <==================== 
	-----------------------------------------------------------
	 Reference Energy          =     -76.0588668909247616 [Eh]
	 Singles Energy            =      -0.0000000000000000 [Eh]
	 Same-Spin Energy          =      -0.0685472177762445 [Eh]
	 Opposite-Spin Energy      =      -0.2160511434611744 [Eh]
	 Correlation Energy        =      -0.2845983612374189 [Eh]
	 Total Energy              =     -76.3434652521621757 [Eh]
	-----------------------------------------------------------
	 ================> DF-SCS-MP2 Energies <================== 
	-----------------------------------------------------------
	 SCS Same-Spin Scale       =       0.3333333333333333 [-]
	 SCS Opposite-Spin Scale   =       1.2000000000000000 [-]
	 SCS Same-Spin Energy      =      -0.0228490725920815 [Eh]
	 SCS Opposite-Spin Energy  =      -0.2592613721534092 [Eh]
	 SCS Correlation Energy    =      -0.2821104447454907 [Eh]
	 SCS Total Energy          =     -76.3409773356702459 [Eh]
	-----------------------------------------------------------


*** tstop() called on moses-razer at Wed Jan 24 16:55:41 2024
Module time:
	user time   =      23.93 seconds =       0.40 minutes
	system time =       1.78 seconds =       0.03 minutes
	total time  =         10 seconds =       0.17 minutes
Total time:
	user time   =      88.71 seconds =       1.48 minutes
	system time =       4.90 seconds =       0.08 minutes
	total time  =         27 seconds =       0.45 minutes

    Psi4 stopped on: Wednesday, 24 January 2024 04:55PM
    Psi4 wall time for execution: 0:00:26.84

*** Psi4 exiting successfully. Buy a developer a beer!
