
    -----------------------------------------------------------------------
          Psi4: An Open-Source Ab Initio Electronic Structure Package
                               Psi4 1.9 release

                         Git: Rev {} zzzzzzz 


    D. G. A. Smith, L. A. Burns, A. C. Simmonett, R. M. Parrish,
    M. C. Schieber, R. Galvelis, P. Kraus, H. Kruse, R. Di Remigio,
    A. Alenaizan, A. M. James, S. Lehtola, J. P. Misiewicz, M. Scheurer,
    R. A. Shaw, J. B. Schriber, Y. Xie, Z. L. Glick, D. A. Sirianni,
    J. S. O'Brien, J. M. Waldrop, A. Kumar, E. G. Hohenstein,
    B. P. Pritchard, B. R. Brooks, H. F. Schaefer III, A. Yu. Sokolov,
    K. Patkowski, A. E. DePrince III, U. Bozkaya, R. A. King,
    F. A. Evangelista, J. M. Turney, T. D. Crawford, C. D. Sherrill,
    J. Chem. Phys. 152(18) 184108 (2020). https://doi.org/10.1063/5.0006002

                            Additional Code Authors
    E. T. Seidl, C. L. Janssen, E. F. Valeev, M. L. Leininger,
    J. F. Gonthier, R. M. Richard, H. R. McAlexander, M. Saitow, X. Wang,
    P. Verma, M. H. Lechner, A. Jiang, S. Behnle, A. G. Heide,
    M. F. Herbst, and D. L. Poole

             Previous Authors, Complete List of Code Contributors,
                       and Citations for Specific Modules
    https://github.com/psi4/psi4/blob/master/codemeta.json
    https://github.com/psi4/psi4/graphs/contributors
    http://psicode.org/psi4manual/master/introduction.html#citing-psifour

    -----------------------------------------------------------------------


    Psi4 started on: Wednesday, 24 January 2024 03:45PM

    Process ID: 1227296
    Host:       moses-razer
    PSIDATADIR: /home/kchung25/anaconda3/envs/psi4_19/share/psi4
    Memory:     500.0 MiB
    Threads:    6
    
  ==> Input File <==

--------------------------------------------------------------------------
MEMORY 60 GB

molecule dimer {
0 1
Gh(K)      0.000000     0.000000     0.000000
Gh(O)     -1.476491    -0.756259     2.290019
Gh(H)     -1.759686    -1.376309     1.544947
Gh(H)     -2.291192    -0.305429     2.556178
O         -2.631532     1.181732    -0.243706
H         -2.245032     1.740452    -0.949982
H         -2.984989     1.700291     0.504715
Gh(O)      1.975492    -0.044738    -1.728567
Gh(H)      2.884251    -0.090974    -1.517372
Gh(H)      1.820966    -0.995882    -1.782993
Gh(O)      2.397673    -0.356089     1.291352
Gh(H)      2.935808    -0.353847     0.513619
Gh(H)      2.540992     0.514317     1.727057
Gh(O)     -0.114464     2.275923     1.666919
Gh(H)     -0.924524     2.782367     1.384837
Gh(H)      0.519910     2.828453     2.078350
Gh(O)     -1.132358    -0.800595    -2.392425
Gh(H)     -1.671831    -1.510047    -1.934175
Gh(H)     -1.222263    -0.893060    -3.357476

units ang
no_reorient
no_com
symmetry c1
}

set {
basis        aug-cc-pVTZ
scf_type     df
}

energy("mp2")
--------------------------------------------------------------------------

  Memory set to  55.879 GiB by Python driver.

Scratch directory: /scratch/
   => Libint2 <=

    Primary   basis highest AM E, G, H:  5, 4, 3
    Auxiliary basis highest AM E, G, H:  6, 5, 4
    Onebody   basis highest AM E, G, H:  6, 5, 4
    Solid Harmonics ordering:            gaussian

*** tstart() called on moses-razer
*** at Wed Jan 24 15:45:52 2024

   => Loading Basis Set <=

    Name: AUG-CC-PVTZ
    Role: ORBITAL
    Keyword: BASIS
    atoms 1                                   entry K          line  1152 file /home/kchung25/anaconda3/envs/p415env/share/psi4/basis/aug-cc-pvtz.gbs 
    atoms 2, 5, 8, 11, 14, 17                 entry O          line   331 file /home/kchung25/anaconda3/envs/p415env/share/psi4/basis/aug-cc-pvtz.gbs 
    atoms 3-4, 6-7, 9-10, 12-13, 15-16, 18-19 entry H          line    40 file /home/kchung25/anaconda3/envs/p415env/share/psi4/basis/aug-cc-pvtz.gbs 


         ---------------------------------------------------------
                                   SCF
               by Justin Turney, Rob Parrish, Andy Simmonett
                          and Daniel G. A. Smith
                              RHF Reference
                        6 Threads,  57220 MiB Core
         ---------------------------------------------------------

  ==> Geometry <==

    Molecular point group: c1
    Full point group: C1

    Geometry (in Angstrom), charge = 0, multiplicity = 1:

       Center              X                  Y                   Z               Mass       
    ------------   -----------------  -----------------  -----------------  -----------------
      Gh(K)           0.000000000000     0.000000000000     0.000000000000    38.963706486400
      Gh(O)          -1.476491000000    -0.756259000000     2.290019000000    15.994914619570
      Gh(H)          -1.759686000000    -1.376309000000     1.544947000000     1.007825032230
      Gh(H)          -2.291192000000    -0.305429000000     2.556178000000     1.007825032230
         O           -2.631532000000     1.181732000000    -0.243706000000    15.994914619570
         H           -2.245032000000     1.740452000000    -0.949982000000     1.007825032230
         H           -2.984989000000     1.700291000000     0.504715000000     1.007825032230
      Gh(O)           1.975492000000    -0.044738000000    -1.728567000000    15.994914619570
      Gh(H)           2.884251000000    -0.090974000000    -1.517372000000     1.007825032230
      Gh(H)           1.820966000000    -0.995882000000    -1.782993000000     1.007825032230
      Gh(O)           2.397673000000    -0.356089000000     1.291352000000    15.994914619570
      Gh(H)           2.935808000000    -0.353847000000     0.513619000000     1.007825032230
      Gh(H)           2.540992000000     0.514317000000     1.727057000000     1.007825032230
      Gh(O)          -0.114464000000     2.275923000000     1.666919000000    15.994914619570
      Gh(H)          -0.924524000000     2.782367000000     1.384837000000     1.007825032230
      Gh(H)           0.519910000000     2.828453000000     2.078350000000     1.007825032230
      Gh(O)          -1.132358000000    -0.800595000000    -2.392425000000    15.994914619570
      Gh(H)          -1.671831000000    -1.510047000000    -1.934175000000     1.007825032230
      Gh(H)          -1.222263000000    -0.893060000000    -3.357476000000     1.007825032230

  Running in c1 symmetry.

  Rotational constants: A =      0.03582  B =      0.03224  C =      0.02281 [cm^-1]
  Rotational constants: A =   1074.00181  B =    966.57437  C =    683.84990 [MHz]
  Nuclear repulsion =    8.978354295937818

  Charge       = 0
  Multiplicity = 1
  Electrons    = 10
  Nalpha       = 5
  Nbeta        = 5

  ==> Algorithm <==

  SCF Algorithm Type is DF.
  DIIS enabled.
  MOM disabled.
  Fractional occupation disabled.
  Guess Type is SAD.
  Energy threshold   = 1.00e-08
  Density threshold  = 1.00e-08
  Integral threshold = 1.00e-12

  ==> Primary Basis <==

  Basis Set: AUG-CC-PVTZ
    Blend: AUG-CC-PVTZ
    Number of shells: 211
    Number of basis functions: 611
    Number of Cartesian functions: 699
    Spherical Harmonics?: true
    Max angular momentum: 3

   => Loading Basis Set <=

    Name: (AUG-CC-PVTZ AUX)
    Role: JKFIT
    Keyword: DF_BASIS_SCF
    atoms 1                                   entry K          line  1152 file /home/kchung25/anaconda3/envs/p415env/share/psi4/basis/def2-universal-jkfit.gbs 
    atoms 2, 5, 8, 11, 14, 17                 entry O          line   286 file /home/kchung25/anaconda3/envs/p415env/share/psi4/basis/aug-cc-pvtz-jkfit.gbs 
    atoms 3-4, 6-7, 9-10, 12-13, 15-16, 18-19 entry H          line    70 file /home/kchung25/anaconda3/envs/p415env/share/psi4/basis/aug-cc-pvtz-jkfit.gbs 

  ==> Integral Setup <==

  DFHelper Memory: AOs need 3.360 GiB; user supplied 41.910 GiB. 
  Using in-core AOs.

  ==> MemDFJK: Density-Fitted J/K Matrices <==

    J tasked:                   Yes
    K tasked:                   Yes
    wK tasked:                   No
    OpenMP threads:               6
    Memory [MiB]:             42915
    Algorithm:                 Core
    Schwarz Cutoff:           1E-12
    Mask sparsity (%):      12.4177
    Fitting Condition:        1E-10

   => Auxiliary Basis Set <=

  Basis Set: (AUG-CC-PVTZ AUX)
    Blend: AUG-CC-PVTZ-JKFIT + DEF2-UNIVERSAL-JKFIT
    Number of shells: 392
    Number of basis functions: 1336
    Number of Cartesian functions: 1649
    Spherical Harmonics?: true
    Max angular momentum: 4

  Minimum eigenvalue in the overlap matrix is 4.4954801675E-05.
  Reciprocal condition number of the overlap matrix is 2.9785219868E-06.
    Using symmetric orthogonalization.

  ==> Pre-Iterations <==

  SCF Guess: Superposition of Atomic Densities via on-the-fly atomic UHF (no occupation information).

   -------------------------
    Irrep   Nso     Nmo    
   -------------------------
     A        611     611 
   -------------------------
    Total     611     611
   -------------------------

  ==> Iterations <==

                           Total Energy        Delta E     RMS |[F,P]|

   @DF-RHF iter SAD:   -75.44562805031914   -7.54456e+01   0.00000e+00 
   @DF-RHF iter   1:   -75.97251555527572   -5.26888e-01   7.64510e-04 DIIS/ADIIS
   @DF-RHF iter   2:   -76.02406763203804   -5.15521e-02   5.28351e-04 DIIS/ADIIS
   @DF-RHF iter   3:   -76.05640394822353   -3.23363e-02   3.59383e-05 DIIS
   @DF-RHF iter   4:   -76.05682840246538   -4.24454e-04   9.04935e-06 DIIS
   @DF-RHF iter   5:   -76.05685772845428   -2.93260e-05   2.09470e-06 DIIS
   @DF-RHF iter   6:   -76.05686027634701   -2.54789e-06   4.79297e-07 DIIS
   @DF-RHF iter   7:   -76.05686042356703   -1.47220e-07   9.25833e-08 DIIS
   @DF-RHF iter   8:   -76.05686042837679   -4.80976e-09   1.54449e-08 DIIS
   @DF-RHF iter   9:   -76.05686042848522   -1.08429e-10   3.97569e-09 DIIS
  Energy and wave function converged.


  ==> Post-Iterations <==

    Orbital Energies [Eh]
    ---------------------

    Doubly Occupied:                                                      

       1A    -20.566561     2A     -1.337144     3A     -0.721319  
       4A     -0.564411     5A     -0.505896  

    Virtual:                                                              

       6A      0.006772     7A      0.009142     8A      0.009599  
       9A      0.010803    10A      0.017521    11A      0.018029  
      12A      0.018215    13A      0.018649    14A      0.019006  
      15A      0.031112    16A      0.033052    17A      0.034315  
      18A      0.038158    19A      0.052613    20A      0.055689  
      21A      0.057327    22A      0.060310    23A      0.060849  
      24A      0.071903    25A      0.072573    26A      0.073611  
      27A      0.075187    28A      0.079651    29A      0.080101  
      30A      0.080996    31A      0.087326    32A      0.091570  
      33A      0.093619    34A      0.100477    35A      0.107844  
      36A      0.109173    37A      0.116367    38A      0.126852  
      39A      0.140575    40A      0.145601    41A      0.153597  
      42A      0.155156    43A      0.159994    44A      0.166135  
      45A      0.168450    46A      0.170117    47A      0.174964  
      48A      0.180240    49A      0.183747    50A      0.188453  
      51A      0.192498    52A      0.194828    53A      0.202677  
      54A      0.207470    55A      0.212091    56A      0.214487  
      57A      0.218610    58A      0.229352    59A      0.234046  
      60A      0.239754    61A      0.242366    62A      0.247206  
      63A      0.253910    64A      0.260081    65A      0.265120  
      66A      0.275581    67A      0.279358    68A      0.284121  
      69A      0.287098    70A      0.292282    71A      0.298184  
      72A      0.304676    73A      0.315535    74A      0.324306  
      75A      0.326741    76A      0.331890    77A      0.337325  
      78A      0.343794    79A      0.349418    80A      0.358240  
      81A      0.362046    82A      0.368244    83A      0.369787  
      84A      0.372949    85A      0.375781    86A      0.389599  
      87A      0.391767    88A      0.394544    89A      0.399801  
      90A      0.403614    91A      0.406279    92A      0.412636  
      93A      0.420391    94A      0.424253    95A      0.432550  
      96A      0.436163    97A      0.438093    98A      0.445006  
      99A      0.445344   100A      0.452294   101A      0.462186  
     102A      0.464081   103A      0.466409   104A      0.475530  
     105A      0.477464   106A      0.480241   107A      0.487255  
     108A      0.488635   109A      0.492227   110A      0.501584  
     111A      0.506985   112A      0.509145   113A      0.514063  
     114A      0.518722   115A      0.522518   116A      0.526446  
     117A      0.535321   118A      0.542579   119A      0.544406  
     120A      0.552602   121A      0.557493   122A      0.568657  
     123A      0.572950   124A      0.583717   125A      0.594205  
     126A      0.596361   127A      0.605403   128A      0.611344  
     129A      0.634717   130A      0.639659   131A      0.647513  
     132A      0.675368   133A      0.680155   134A      0.697902  
     135A      0.707219   136A      0.723579   137A      0.733506  
     138A      0.748714   139A      0.756172   140A      0.766176  
     141A      0.782251   142A      0.791022   143A      0.795962  
     144A      0.798144   145A      0.807106   146A      0.808838  
     147A      0.812572   148A      0.825445   149A      0.830793  
     150A      0.832775   151A      0.834908   152A      0.847866  
     153A      0.850637   154A      0.854691   155A      0.867527  
     156A      0.872766   157A      0.880010   158A      0.889778  
     159A      0.899597   160A      0.899915   161A      0.902105  
     162A      0.910213   163A      0.913003   164A      0.918270  
     165A      0.920858   166A      0.925051   167A      0.935550  
     168A      0.939118   169A      0.949141   170A      0.955507  
     171A      0.960034   172A      0.968309   173A      0.976142  
     174A      0.979826   175A      0.992851   176A      0.994396  
     177A      0.999069   178A      1.001460   179A      1.010114  
     180A      1.011832   181A      1.028579   182A      1.032383  
     183A      1.034579   184A      1.040752   185A      1.046126  
     186A      1.051419   187A      1.052835   188A      1.063455  
     189A      1.072831   190A      1.079222   191A      1.082635  
     192A      1.092720   193A      1.095044   194A      1.100094  
     195A      1.102929   196A      1.113003   197A      1.116889  
     198A      1.121367   199A      1.127525   200A      1.135912  
     201A      1.152112   202A      1.158230   203A      1.166804  
     204A      1.171487   205A      1.175480   206A      1.184207  
     207A      1.185318   208A      1.192689   209A      1.198706  
     210A      1.201050   211A      1.201726   212A      1.209770  
     213A      1.224249   214A      1.230903   215A      1.235143  
     216A      1.246674   217A      1.250437   218A      1.263719  
     219A      1.271634   220A      1.281796   221A      1.284642  
     222A      1.290677   223A      1.295071   224A      1.302421  
     225A      1.310036   226A      1.315999   227A      1.325063  
     228A      1.331318   229A      1.337113   230A      1.351628  
     231A      1.358094   232A      1.368698   233A      1.384552  
     234A      1.388788   235A      1.405485   236A      1.407628  
     237A      1.414668   238A      1.425152   239A      1.429263  
     240A      1.436147   241A      1.450862   242A      1.461946  
     243A      1.476735   244A      1.495091   245A      1.509142  
     246A      1.511840   247A      1.520194   248A      1.542572  
     249A      1.551334   250A      1.575441   251A      1.578466  
     252A      1.589103   253A      1.592083   254A      1.608801  
     255A      1.629446   256A      1.650166   257A      1.667927  
     258A      1.688693   259A      1.703158   260A      1.726518  
     261A      1.744267   262A      1.762845   263A      1.775718  
     264A      1.789902   265A      1.794397   266A      1.803858  
     267A      1.808222   268A      1.817081   269A      1.827923  
     270A      1.841173   271A      1.842100   272A      1.853745  
     273A      1.866477   274A      1.879078   275A      1.881353  
     276A      1.892391   277A      1.899574   278A      1.911180  
     279A      1.914914   280A      1.917324   281A      1.924050  
     282A      1.934958   283A      1.946916   284A      1.960639  
     285A      1.980122   286A      1.993194   287A      2.003382  
     288A      2.025165   289A      2.028683   290A      2.051205  
     291A      2.066803   292A      2.088659   293A      2.113702  
     294A      2.130669   295A      2.179263   296A      2.205270  
     297A      2.339806   298A      2.359424   299A      2.387131  
     300A      2.398339   301A      2.409812   302A      2.424983  
     303A      2.436356   304A      2.458757   305A      2.467387  
     306A      2.480325   307A      2.486594   308A      2.501935  
     309A      2.503311   310A      2.518455   311A      2.537032  
     312A      2.544015   313A      2.565097   314A      2.567017  
     315A      2.574836   316A      2.588438   317A      2.591164  
     318A      2.597572   319A      2.603519   320A      2.615279  
     321A      2.618955   322A      2.621759   323A      2.642133  
     324A      2.645474   325A      2.650112   326A      2.666191  
     327A      2.671917   328A      2.679424   329A      2.696928  
     330A      2.705106   331A      2.712045   332A      2.725527  
     333A      2.734223   334A      2.750410   335A      2.759668  
     336A      2.762044   337A      2.789199   338A      2.798815  
     339A      2.802048   340A      2.824544   341A      2.851196  
     342A      2.854589   343A      2.871457   344A      2.874828  
     345A      2.890817   346A      2.901331   347A      2.917144  
     348A      2.924761   349A      2.944091   350A      2.953498  
     351A      2.967436   352A      2.973359   353A      3.004050  
     354A      3.015701   355A      3.024659   356A      3.041126  
     357A      3.056003   358A      3.068494   359A      3.121613  
     360A      3.151207   361A      3.187899   362A      3.203248  
     363A      3.224832   364A      3.227542   365A      3.235243  
     366A      3.238545   367A      3.254321   368A      3.270069  
     369A      3.274486   370A      3.292136   371A      3.303925  
     372A      3.323289   373A      3.335252   374A      3.344724  
     375A      3.353663   376A      3.358093   377A      3.368018  
     378A      3.377837   379A      3.386300   380A      3.411464  
     381A      3.419648   382A      3.432062   383A      3.455030  
     384A      3.476421   385A      3.490106   386A      3.513048  
     387A      3.590549   388A      3.647032   389A      3.667405  
     390A      3.687885   391A      3.694399   392A      3.716655  
     393A      3.732732   394A      3.765343   395A      3.780202  
     396A      3.797461   397A      3.826070   398A      3.868511  
     399A      3.972332   400A      4.147448   401A      4.268877  
     402A      4.286567   403A      4.321237   404A      4.363472  
     405A      4.374933   406A      4.427659   407A      4.431128  
     408A      4.459297   409A      4.463331   410A      4.483660  
     411A      4.495625   412A      4.504775   413A      4.522003  
     414A      4.526910   415A      4.533348   416A      4.560127  
     417A      4.568633   418A      4.573397   419A      4.590497  
     420A      4.600394   421A      4.614182   422A      4.618407  
     423A      4.638458   424A      4.655521   425A      4.667932  
     426A      4.670694   427A      4.676533   428A      4.690175  
     429A      4.700515   430A      4.707692   431A      4.725355  
     432A      4.738863   433A      4.746418   434A      4.760085  
     435A      4.772613   436A      4.777112   437A      4.800210  
     438A      4.827661   439A      4.839067   440A      4.861845  
     441A      4.934419   442A      4.961666   443A      4.977478  
     444A      4.992161   445A      5.001042   446A      5.011808  
     447A      5.020751   448A      5.040137   449A      5.047034  
     450A      5.057771   451A      5.073022   452A      5.117265  
     453A      5.130313   454A      5.146043   455A      5.156198  
     456A      5.170599   457A      5.182249   458A      5.204925  
     459A      5.209666   460A      5.240785   461A      5.300497  
     462A      5.309208   463A      5.342681   464A      5.396693  
     465A      5.435104   466A      5.449854   467A      5.467342  
     468A      5.500448   469A      5.512489   470A      5.519890  
     471A      5.535250   472A      5.567494   473A      5.594368  
     474A      5.634039   475A      5.644533   476A      5.667422  
     477A      5.710049   478A      5.734310   479A      5.751683  
     480A      5.776871   481A      5.801184   482A      5.827214  
     483A      5.836728   484A      5.869225   485A      5.892089  
     486A      6.048844   487A      6.157528   488A      6.172052  
     489A      6.184547   490A      6.215458   491A      6.222484  
     492A      6.239658   493A      6.259393   494A      6.329276  
     495A      6.332513   496A      6.377273   497A      6.440363  
     498A      6.578292   499A      6.674084   500A      6.703928  
     501A      6.729028   502A      6.769346   503A      6.778241  
     504A      6.833089   505A      6.862730   506A      6.990131  
     507A      7.008717   508A      7.121845   509A      7.177281  
     510A      7.184221   511A      7.234302   512A      7.292958  
     513A      7.341062   514A      7.389747   515A      7.436739  
     516A      7.461109   517A      7.596108   518A      7.692876  
     519A      7.702660   520A      7.718682   521A      7.728195  
     522A      7.752161   523A      7.772028   524A      7.789674  
     525A      7.843282   526A      7.852054   527A      7.857686  
     528A      8.000116   529A      8.010761   530A      8.093965  
     531A      8.099592   532A      8.108125   533A      8.113782  
     534A      8.117447   535A      8.148499   536A      8.151658  
     537A      8.211674   538A      8.230152   539A      8.261933  
     540A      8.268250   541A      8.283060   542A      8.308875  
     543A      8.372665   544A      8.417183   545A      8.611186  
     546A      8.677335   547A      8.691043   548A      8.711566  
     549A      8.728133   550A      8.780572   551A      8.791560  
     552A      8.803897   553A      8.904307   554A      8.919809  
     555A      9.003924   556A      9.787737   557A      9.811811  
     558A      9.823852   559A      9.833058   560A      9.897112  
     561A      9.934341   562A      9.966199   563A      9.981647  
     564A      9.983489   565A      9.991848   566A     10.038286  
     567A     10.044473   568A     10.054275   569A     10.063348  
     570A     10.142375   571A     10.188615   572A     10.216976  
     573A     10.232505   574A     10.249812   575A     10.273908  
     576A     10.483852   577A     11.009148   578A     11.029283  
     579A     11.067955   580A     11.169274   581A     11.369185  
     582A     11.663736   583A     11.698771   584A     11.779853  
     585A     11.837407   586A     11.876468   587A     11.920488  
     588A     11.981784   589A     12.254360   590A     12.265631  
     591A     12.429332   592A     13.423308   593A     13.454329  
     594A     13.555006   595A     13.633185   596A     13.809035  
     597A     13.874526   598A     13.916564   599A     13.935843  
     600A     13.956042   601A     13.984707   602A     15.821446  
     603A     31.174335   604A     31.468857   605A     31.739710  
     606A     63.642230   607A     63.943638   608A     65.107195  
     609A     65.717224   610A     66.321862   611A    198.288063  

    Final Occupation by Irrep:
              A 
    DOCC [     5 ]
    NA   [     5 ]
    NB   [     5 ]

  @DF-RHF Final Energy:   -76.05686042848522

   => Energetics <=

    Nuclear Repulsion Energy =              8.9783542959378178
    One-Electron Energy =                -122.6797621674342054
    Two-Electron Energy =                  37.6445474430111631
    Total Energy =                        -76.0568604284852228

Computation Completed


Properties will be evaluated at   0.000000,   0.000000,   0.000000 [a0]

Properties computed using the SCF density matrix


 Multipole Moments:

 ------------------------------------------------------------------------------------
     Multipole            Electronic (a.u.)      Nuclear  (a.u.)        Total (a.u.)
 ------------------------------------------------------------------------------------

 L = 1.  Multiply by 2.5417464519 to convert [e a0] to [Debye]
 Dipole X            :         49.6881890          -49.6663055            0.0218835
 Dipole Y            :        -23.6410317           24.3672606            0.7262289
 Dipole Z            :          4.5544221           -4.5257334            0.0286887
 Magnitude           :                                                    0.7271247

 ------------------------------------------------------------------------------------

*** tstop() called on moses-razer at Wed Jan 24 15:46:09 2024
Module time:
	user time   =      66.57 seconds =       1.11 minutes
	system time =       3.25 seconds =       0.05 minutes
	total time  =         17 seconds =       0.28 minutes
Total time:
	user time   =      66.57 seconds =       1.11 minutes
	system time =       3.25 seconds =       0.05 minutes
	total time  =         17 seconds =       0.28 minutes

*** tstart() called on moses-razer
*** at Wed Jan 24 15:46:09 2024


  //>>>>>>>>>>>>>>>>>>>>>>>>>>>>>>>>>>>//
  //               DFMP2               //
  //<<<<<<<<<<<<<<<<<<<<<<<<<<<<<<<<<<<//

   => Loading Basis Set <=

    Name: (AUG-CC-PVTZ AUX)
    Role: RIFIT
    Keyword: DF_BASIS_MP2
    atoms 1                                   entry K          line  1282 file /home/kchung25/anaconda3/envs/p415env/share/psi4/basis/def2-qzvpp-ri.gbs 
    atoms 2, 5, 8, 11, 14, 17                 entry O          line   264 file /home/kchung25/anaconda3/envs/p415env/share/psi4/basis/aug-cc-pvtz-ri.gbs 
    atoms 3-4, 6-7, 9-10, 12-13, 15-16, 18-19 entry H          line    30 file /home/kchung25/anaconda3/envs/p415env/share/psi4/basis/aug-cc-pvtz-ri.gbs 

	 --------------------------------------------------------
	                          DF-MP2                         
	      2nd-Order Density-Fitted Moller-Plesset Theory     
	              RMP2 Wavefunction,   6 Threads             
	                                                         
	        Rob Parrish, Justin Turney, Andy Simmonett,      
	           Ed Hohenstein, and C. David Sherrill          
	 --------------------------------------------------------

   => Auxiliary Basis Set <=

  Basis Set: (AUG-CC-PVTZ AUX)
    Blend: AUG-CC-PVTZ-RI + DEF2-QZVPP-RI
    Number of shells: 385
    Number of basis functions: 1387
    Number of Cartesian functions: 1738
    Spherical Harmonics?: true
    Max angular momentum: 4

	 --------------------------------------------------------
	                 NBF =   611, NAUX =  1387
	 --------------------------------------------------------
	   CLASS    FOCC     OCC    AOCC    AVIR     VIR    FVIR
	   PAIRS       0       5       5     606     606       0
	 --------------------------------------------------------

	-----------------------------------------------------------
	 ==================> DF-MP2 Energies <==================== 
	-----------------------------------------------------------
	 Reference Energy          =     -76.0568604284852228 [Eh]
	 Singles Energy            =      -0.0000000000000000 [Eh]
	 Same-Spin Energy          =      -0.0686801637484248 [Eh]
	 Opposite-Spin Energy      =      -0.2165050725500601 [Eh]
	 Correlation Energy        =      -0.2851852362984849 [Eh]
	 Total Energy              =     -76.3420456647837113 [Eh]
	-----------------------------------------------------------
	 ================> DF-SCS-MP2 Energies <================== 
	-----------------------------------------------------------
	 SCS Same-Spin Scale       =       0.3333333333333333 [-]
	 SCS Opposite-Spin Scale   =       1.2000000000000000 [-]
	 SCS Same-Spin Energy      =      -0.0228933879161416 [Eh]
	 SCS Opposite-Spin Energy  =      -0.2598060870600721 [Eh]
	 SCS Correlation Energy    =      -0.2826994749762137 [Eh]
	 SCS Total Energy          =     -76.3395599034614349 [Eh]
	-----------------------------------------------------------


*** tstop() called on moses-razer at Wed Jan 24 15:46:19 2024
Module time:
	user time   =      23.93 seconds =       0.40 minutes
	system time =       1.83 seconds =       0.03 minutes
	total time  =         10 seconds =       0.17 minutes
Total time:
	user time   =      90.51 seconds =       1.51 minutes
	system time =       5.08 seconds =       0.08 minutes
	total time  =         27 seconds =       0.45 minutes

    Psi4 stopped on: Wednesday, 24 January 2024 03:46PM
    Psi4 wall time for execution: 0:00:27.35

*** Psi4 exiting successfully. Buy a developer a beer!
