
    -----------------------------------------------------------------------
          Psi4: An Open-Source Ab Initio Electronic Structure Package
                               Psi4 1.9 release

                         Git: Rev {} zzzzzzz 


    D. G. A. Smith, L. A. Burns, A. C. Simmonett, R. M. Parrish,
    M. C. Schieber, R. Galvelis, P. Kraus, H. Kruse, R. Di Remigio,
    A. Alenaizan, A. M. James, S. Lehtola, J. P. Misiewicz, M. Scheurer,
    R. A. Shaw, J. B. Schriber, Y. Xie, Z. L. Glick, D. A. Sirianni,
    J. S. O'Brien, J. M. Waldrop, A. Kumar, E. G. Hohenstein,
    B. P. Pritchard, B. R. Brooks, H. F. Schaefer III, A. Yu. Sokolov,
    K. Patkowski, A. E. DePrince III, U. Bozkaya, R. A. King,
    F. A. Evangelista, J. M. Turney, T. D. Crawford, C. D. Sherrill,
    J. Chem. Phys. 152(18) 184108 (2020). https://doi.org/10.1063/5.0006002

                            Additional Code Authors
    E. T. Seidl, C. L. Janssen, E. F. Valeev, M. L. Leininger,
    J. F. Gonthier, R. M. Richard, H. R. McAlexander, M. Saitow, X. Wang,
    P. Verma, M. H. Lechner, A. Jiang, S. Behnle, A. G. Heide,
    M. F. Herbst, and D. L. Poole

             Previous Authors, Complete List of Code Contributors,
                       and Citations for Specific Modules
    https://github.com/psi4/psi4/blob/master/codemeta.json
    https://github.com/psi4/psi4/graphs/contributors
    http://psicode.org/psi4manual/master/introduction.html#citing-psifour

    -----------------------------------------------------------------------


    Psi4 started on: Wednesday, 24 January 2024 07:34PM

    Process ID: 1249207
    Host:       moses-razer
    PSIDATADIR: /home/kchung25/anaconda3/envs/psi4_19/share/psi4
    Memory:     500.0 MiB
    Threads:    6
    
  ==> Input File <==

--------------------------------------------------------------------------
MEMORY 60 GB

molecule dimer {
0 1
Gh(K)      0.000000     0.000000     0.000000
Gh(O)     -1.065191    -0.359975    -2.461163
Gh(H)     -1.794196    -0.828061    -2.830220
Gh(H)     -1.027565     0.480586    -2.947244
O          2.344028     1.678726    -0.213882
H          3.157394     1.389741    -0.585666
H          2.557494     1.811841     0.674913
Gh(O)     -1.246221     2.415696    -0.621119
Gh(H)     -2.238963     2.335390    -0.711467
Gh(H)     -0.854818     2.401486    -1.478482
Gh(O)     -1.890709     0.266806     2.144480
Gh(H)     -1.944298     1.042797     2.694641
Gh(H)     -2.715672     0.216960     1.683755

units ang
no_reorient
no_com
symmetry c1
}

set {
basis        aug-cc-pVTZ
scf_type     df
}

energy("mp2")
--------------------------------------------------------------------------

  Memory set to  55.879 GiB by Python driver.

Scratch directory: /scratch/
   => Libint2 <=

    Primary   basis highest AM E, G, H:  5, 4, 3
    Auxiliary basis highest AM E, G, H:  6, 5, 4
    Onebody   basis highest AM E, G, H:  6, 5, 4
    Solid Harmonics ordering:            gaussian

*** tstart() called on moses-razer
*** at Wed Jan 24 19:34:56 2024

   => Loading Basis Set <=

    Name: AUG-CC-PVTZ
    Role: ORBITAL
    Keyword: BASIS
    atoms 1                     entry K          line  1152 file /home/kchung25/anaconda3/envs/p415env/share/psi4/basis/aug-cc-pvtz.gbs 
    atoms 2, 5, 8, 11           entry O          line   331 file /home/kchung25/anaconda3/envs/p415env/share/psi4/basis/aug-cc-pvtz.gbs 
    atoms 3-4, 6-7, 9-10, 12-13 entry H          line    40 file /home/kchung25/anaconda3/envs/p415env/share/psi4/basis/aug-cc-pvtz.gbs 


         ---------------------------------------------------------
                                   SCF
               by Justin Turney, Rob Parrish, Andy Simmonett
                          and Daniel G. A. Smith
                              RHF Reference
                        6 Threads,  57220 MiB Core
         ---------------------------------------------------------

  ==> Geometry <==

    Molecular point group: c1
    Full point group: C1

    Geometry (in Angstrom), charge = 0, multiplicity = 1:

       Center              X                  Y                   Z               Mass       
    ------------   -----------------  -----------------  -----------------  -----------------
      Gh(K)           0.000000000000     0.000000000000     0.000000000000    38.963706486400
      Gh(O)          -1.065191000000    -0.359975000000    -2.461163000000    15.994914619570
      Gh(H)          -1.794196000000    -0.828061000000    -2.830220000000     1.007825032230
      Gh(H)          -1.027565000000     0.480586000000    -2.947244000000     1.007825032230
         O            2.344028000000     1.678726000000    -0.213882000000    15.994914619570
         H            3.157394000000     1.389741000000    -0.585666000000     1.007825032230
         H            2.557494000000     1.811841000000     0.674913000000     1.007825032230
      Gh(O)          -1.246221000000     2.415696000000    -0.621119000000    15.994914619570
      Gh(H)          -2.238963000000     2.335390000000    -0.711467000000     1.007825032230
      Gh(H)          -0.854818000000     2.401486000000    -1.478482000000     1.007825032230
      Gh(O)          -1.890709000000     0.266806000000     2.144480000000    15.994914619570
      Gh(H)          -1.944298000000     1.042797000000     2.694641000000     1.007825032230
      Gh(H)          -2.715672000000     0.216960000000     1.683755000000     1.007825032230

  Running in c1 symmetry.

  Rotational constants: A =      0.04753  B =      0.04247  C =      0.03861 [cm^-1]
  Rotational constants: A =   1424.76653  B =   1273.21405  C =   1157.35834 [MHz]
  Nuclear repulsion =    9.450282705255718

  Charge       = 0
  Multiplicity = 1
  Electrons    = 10
  Nalpha       = 5
  Nbeta        = 5

  ==> Algorithm <==

  SCF Algorithm Type is DF.
  DIIS enabled.
  MOM disabled.
  Fractional occupation disabled.
  Guess Type is SAD.
  Energy threshold   = 1.00e-08
  Density threshold  = 1.00e-08
  Integral threshold = 1.00e-12

  ==> Primary Basis <==

  Basis Set: AUG-CC-PVTZ
    Blend: AUG-CC-PVTZ
    Number of shells: 147
    Number of basis functions: 427
    Number of Cartesian functions: 489
    Spherical Harmonics?: true
    Max angular momentum: 3

   => Loading Basis Set <=

    Name: (AUG-CC-PVTZ AUX)
    Role: JKFIT
    Keyword: DF_BASIS_SCF
    atoms 1                     entry K          line  1152 file /home/kchung25/anaconda3/envs/p415env/share/psi4/basis/def2-universal-jkfit.gbs 
    atoms 2, 5, 8, 11           entry O          line   286 file /home/kchung25/anaconda3/envs/p415env/share/psi4/basis/aug-cc-pvtz-jkfit.gbs 
    atoms 3-4, 6-7, 9-10, 12-13 entry H          line    70 file /home/kchung25/anaconda3/envs/p415env/share/psi4/basis/aug-cc-pvtz-jkfit.gbs 

  ==> Integral Setup <==

  DFHelper Memory: AOs need 1.208 GiB; user supplied 41.910 GiB. 
  Using in-core AOs.

  ==> MemDFJK: Density-Fitted J/K Matrices <==

    J tasked:                   Yes
    K tasked:                   Yes
    wK tasked:                   No
    OpenMP threads:               6
    Memory [MiB]:             42915
    Algorithm:                 Core
    Schwarz Cutoff:           1E-12
    Mask sparsity (%):       9.8372
    Fitting Condition:        1E-10

   => Auxiliary Basis Set <=

  Basis Set: (AUG-CC-PVTZ AUX)
    Blend: AUG-CC-PVTZ-JKFIT + DEF2-UNIVERSAL-JKFIT
    Number of shells: 276
    Number of basis functions: 944
    Number of Cartesian functions: 1167
    Spherical Harmonics?: true
    Max angular momentum: 4

  Minimum eigenvalue in the overlap matrix is 1.0196791712E-04.
  Reciprocal condition number of the overlap matrix is 8.0676894798E-06.
    Using symmetric orthogonalization.

  ==> Pre-Iterations <==

  SCF Guess: Superposition of Atomic Densities via on-the-fly atomic UHF (no occupation information).

   -------------------------
    Irrep   Nso     Nmo    
   -------------------------
     A        427     427 
   -------------------------
    Total     427     427
   -------------------------

  ==> Iterations <==

                           Total Energy        Delta E     RMS |[F,P]|

   @DF-RHF iter SAD:   -75.50803964223897   -7.55080e+01   0.00000e+00 
   @DF-RHF iter   1:   -75.97690362074343   -4.68864e-01   1.10548e-03 DIIS/ADIIS
   @DF-RHF iter   2:   -76.03049932383411   -5.35957e-02   7.31513e-04 DIIS/ADIIS
   @DF-RHF iter   3:   -76.06016331211849   -2.96640e-02   4.94804e-05 DIIS
   @DF-RHF iter   4:   -76.06051746513907   -3.54153e-04   1.10862e-05 DIIS
   @DF-RHF iter   5:   -76.06053649643881   -1.90313e-05   2.44780e-06 DIIS
   @DF-RHF iter   6:   -76.06053797229886   -1.47586e-06   5.27873e-07 DIIS
   @DF-RHF iter   7:   -76.06053804899250   -7.66936e-08   9.77445e-08 DIIS
   @DF-RHF iter   8:   -76.06053805136170   -2.36921e-09   1.60237e-08 DIIS
   @DF-RHF iter   9:   -76.06053805141028   -4.85727e-11   3.67944e-09 DIIS
  Energy and wave function converged.


  ==> Post-Iterations <==

    Orbital Energies [Eh]
    ---------------------

    Doubly Occupied:                                                      

       1A    -20.563101     2A     -1.368415     3A     -0.728926  
       4A     -0.592771     5A     -0.512971  

    Virtual:                                                              

       6A      0.006829     7A      0.009529     8A      0.009920  
       9A      0.010982    10A      0.018081    11A      0.018208  
      12A      0.018691    13A      0.019125    14A      0.019164  
      15A      0.031569    16A      0.034746    17A      0.036568  
      18A      0.040477    19A      0.056294    20A      0.058073  
      21A      0.060403    22A      0.061845    23A      0.062557  
      24A      0.073271    25A      0.076506    26A      0.077558  
      27A      0.080335    28A      0.080758    29A      0.086784  
      30A      0.092469    31A      0.096807    32A      0.100000  
      33A      0.109908    34A      0.119261    35A      0.129000  
      36A      0.143320    37A      0.148635    38A      0.153457  
      39A      0.156753    40A      0.161696    41A      0.167947  
      42A      0.174719    43A      0.178073    44A      0.180526  
      45A      0.182888    46A      0.187557    47A      0.196816  
      48A      0.198783    49A      0.207408    50A      0.211195  
      51A      0.216084    52A      0.217965    53A      0.224461  
      54A      0.232415    55A      0.235105    56A      0.251787  
      57A      0.259084    58A      0.264769    59A      0.272754  
      60A      0.283928    61A      0.292094    62A      0.298122  
      63A      0.303464    64A      0.318522    65A      0.326936  
      66A      0.331039    67A      0.344849    68A      0.348660  
      69A      0.352386    70A      0.365174    71A      0.371449  
      72A      0.373282    73A      0.377509    74A      0.385914  
      75A      0.392908    76A      0.399976    77A      0.405508  
      78A      0.411069    79A      0.413188    80A      0.416498  
      81A      0.424201    82A      0.434053    83A      0.441724  
      84A      0.449427    85A      0.453366    86A      0.458331  
      87A      0.464580    88A      0.466741    89A      0.469311  
      90A      0.475481    91A      0.483077    92A      0.485346  
      93A      0.496752    94A      0.503458    95A      0.511779  
      96A      0.516179    97A      0.520799    98A      0.531583  
      99A      0.542845   100A      0.556870   101A      0.574559  
     102A      0.577798   103A      0.592656   104A      0.602303  
     105A      0.624823   106A      0.667177   107A      0.706594  
     108A      0.708769   109A      0.718839   110A      0.740733  
     111A      0.761892   112A      0.771313   113A      0.787146  
     114A      0.796056   115A      0.804611   116A      0.815276  
     117A      0.822804   118A      0.830078   119A      0.835366  
     120A      0.840926   121A      0.852458   122A      0.858742  
     123A      0.863563   124A      0.871469   125A      0.881543  
     126A      0.887243   127A      0.891521   128A      0.898886  
     129A      0.910174   130A      0.913791   131A      0.918563  
     132A      0.921580   133A      0.931361   134A      0.941231  
     135A      0.947501   136A      0.952202   137A      0.960782  
     138A      0.975641   139A      0.984288   140A      0.994091  
     141A      0.999477   142A      1.000824   143A      1.010510  
     144A      1.020934   145A      1.041598   146A      1.054496  
     147A      1.061290   148A      1.071382   149A      1.074795  
     150A      1.083502   151A      1.085220   152A      1.090158  
     153A      1.100446   154A      1.107280   155A      1.113073  
     156A      1.122821   157A      1.135231   158A      1.149744  
     159A      1.159619   160A      1.166419   161A      1.177125  
     162A      1.183816   163A      1.188374   164A      1.198767  
     165A      1.201251   166A      1.216212   167A      1.222307  
     168A      1.223986   169A      1.238234   170A      1.254744  
     171A      1.270731   172A      1.280445   173A      1.283416  
     174A      1.292681   175A      1.310272   176A      1.321329  
     177A      1.345235   178A      1.350508   179A      1.367190  
     180A      1.393517   181A      1.429496   182A      1.444979  
     183A      1.507569   184A      1.514662   185A      1.546615  
     186A      1.552581   187A      1.562937   188A      1.591061  
     189A      1.615153   190A      1.622048   191A      1.644114  
     192A      1.666640   193A      1.728452   194A      1.750694  
     195A      1.769646   196A      1.783486   197A      1.796034  
     198A      1.812171   199A      1.835554   200A      1.853368  
     201A      1.864492   202A      1.873454   203A      1.886887  
     204A      1.889168   205A      1.899142   206A      1.915543  
     207A      1.922029   208A      1.933112   209A      1.973961  
     210A      2.038528   211A      2.058000   212A      2.079202  
     213A      2.104450   214A      2.111158   215A      2.172436  
     216A      2.198359   217A      2.220842   218A      2.282140  
     219A      2.332886   220A      2.354724   221A      2.368309  
     222A      2.385480   223A      2.391142   224A      2.416408  
     225A      2.433850   226A      2.452805   227A      2.463076  
     228A      2.478001   229A      2.502384   230A      2.509915  
     231A      2.517605   232A      2.535978   233A      2.548724  
     234A      2.557863   235A      2.567147   236A      2.575863  
     237A      2.593345   238A      2.596239   239A      2.608999  
     240A      2.616514   241A      2.625522   242A      2.636022  
     243A      2.652907   244A      2.692803   245A      2.701824  
     246A      2.719420   247A      2.732706   248A      2.751117  
     249A      2.768768   250A      2.775585   251A      2.807702  
     252A      2.840641   253A      2.852471   254A      2.873065  
     255A      2.902149   256A      2.919247   257A      2.932580  
     258A      2.942218   259A      2.959426   260A      2.983985  
     261A      3.052505   262A      3.077071   263A      3.217445  
     264A      3.221235   265A      3.239473   266A      3.243908  
     267A      3.250958   268A      3.284388   269A      3.313174  
     270A      3.334835   271A      3.351652   272A      3.356575  
     273A      3.384234   274A      3.386778   275A      3.408621  
     276A      3.420224   277A      3.465804   278A      3.590333  
     279A      3.608844   280A      3.635560   281A      3.691790  
     282A      3.757310   283A      3.758956   284A      3.784523  
     285A      3.852266   286A      4.088914   287A      4.207106  
     288A      4.274779   289A      4.315095   290A      4.323514  
     291A      4.384511   292A      4.401510   293A      4.414423  
     294A      4.442225   295A      4.460102   296A      4.483504  
     297A      4.500263   298A      4.513089   299A      4.535531  
     300A      4.544796   301A      4.566021   302A      4.568754  
     303A      4.626071   304A      4.657758   305A      4.670197  
     306A      4.679784   307A      4.688982   308A      4.699627  
     309A      4.723517   310A      4.742516   311A      4.763066  
     312A      4.768745   313A      4.839658   314A      4.910141  
     315A      4.933167   316A      4.941066   317A      4.950399  
     318A      4.961637   319A      4.971909   320A      4.986684  
     321A      5.021511   322A      5.057836   323A      5.121971  
     324A      5.182726   325A      5.211817   326A      5.212359  
     327A      5.237430   328A      5.259674   329A      5.330869  
     330A      5.473967   331A      5.499487   332A      5.525610  
     333A      5.572109   334A      5.576334   335A      5.625644  
     336A      5.627218   337A      5.662242   338A      5.705422  
     339A      5.724435   340A      5.769141   341A      5.775980  
     342A      5.805216   343A      5.875373   344A      5.896897  
     345A      6.135179   346A      6.179032   347A      6.197991  
     348A      6.294474   349A      6.360810   350A      6.436587  
     351A      6.445729   352A      6.579361   353A      6.718460  
     354A      6.736464   355A      6.747340   356A      6.752218  
     357A      7.009923   358A      7.100570   359A      7.138185  
     360A      7.147952   361A      7.200350   362A      7.351711  
     363A      7.363122   364A      7.379906   365A      7.445713  
     366A      7.460069   367A      7.659874   368A      7.688973  
     369A      7.724537   370A      7.744708   371A      7.812587  
     372A      7.840186   373A      7.849268   374A      7.949265  
     375A      8.064774   376A      8.102825   377A      8.118427  
     378A      8.129229   379A      8.219952   380A      8.236035  
     381A      8.254469   382A      8.309378   383A      8.322848  
     384A      8.340970   385A      8.753694   386A      8.804743  
     387A      8.840738   388A      8.851849   389A      8.878665  
     390A      8.886208   391A      8.986290   392A      9.750541  
     393A      9.758869   394A      9.800873   395A      9.938193  
     396A      9.947752   397A      9.951368   398A     10.039563  
     399A     10.050680   400A     10.079993   401A     10.209692  
     402A     10.228608   403A     10.256161   404A     10.363081  
     405A     11.065511   406A     11.246448   407A     11.294633  
     408A     11.704031   409A     11.725405   410A     11.744249  
     411A     12.179872   412A     12.244027   413A     12.290941  
     414A     13.523812   415A     13.604649   416A     13.638501  
     417A     13.807392   418A     13.894352   419A     13.921441  
     420A     16.832864   421A     30.683969   422A     30.774928  
     423A     30.847252   424A     64.782193   425A     65.240129  
     426A     65.601906   427A    198.014682  

    Final Occupation by Irrep:
              A 
    DOCC [     5 ]
    NA   [     5 ]
    NB   [     5 ]

  @DF-RHF Final Energy:   -76.06053805141028

   => Energetics <=

    Nuclear Repulsion Energy =              9.4502827052557183
    One-Electron Energy =                -123.4892732996920728
    Two-Electron Energy =                  37.9784525430260800
    Total Energy =                        -76.0605380514102762

Computation Completed


Properties will be evaluated at   0.000000,   0.000000,   0.000000 [a0]

Properties computed using the SCF density matrix


 Multipole Moments:

 ------------------------------------------------------------------------------------
     Multipole            Electronic (a.u.)      Nuclear  (a.u.)        Total (a.u.)
 ------------------------------------------------------------------------------------

 L = 1.  Multiply by 2.5417464519 to convert [e a0] to [Debye]
 Dipole X            :        -45.5460919           46.2361408            0.6900489
 Dipole Y            :        -31.5326770           31.4287722           -0.1039048
 Dipole Z            :          3.4152911           -3.0647748            0.3505163
 Magnitude           :                                                    0.7809131

 ------------------------------------------------------------------------------------

*** tstop() called on moses-razer at Wed Jan 24 19:35:05 2024
Module time:
	user time   =      27.17 seconds =       0.45 minutes
	system time =       1.97 seconds =       0.03 minutes
	total time  =          9 seconds =       0.15 minutes
Total time:
	user time   =      27.17 seconds =       0.45 minutes
	system time =       1.97 seconds =       0.03 minutes
	total time  =          9 seconds =       0.15 minutes

*** tstart() called on moses-razer
*** at Wed Jan 24 19:35:05 2024


  //>>>>>>>>>>>>>>>>>>>>>>>>>>>>>>>>>>>//
  //               DFMP2               //
  //<<<<<<<<<<<<<<<<<<<<<<<<<<<<<<<<<<<//

   => Loading Basis Set <=

    Name: (AUG-CC-PVTZ AUX)
    Role: RIFIT
    Keyword: DF_BASIS_MP2
    atoms 1                     entry K          line  1282 file /home/kchung25/anaconda3/envs/p415env/share/psi4/basis/def2-qzvpp-ri.gbs 
    atoms 2, 5, 8, 11           entry O          line   264 file /home/kchung25/anaconda3/envs/p415env/share/psi4/basis/aug-cc-pvtz-ri.gbs 
    atoms 3-4, 6-7, 9-10, 12-13 entry H          line    30 file /home/kchung25/anaconda3/envs/p415env/share/psi4/basis/aug-cc-pvtz-ri.gbs 

	 --------------------------------------------------------
	                          DF-MP2                         
	      2nd-Order Density-Fitted Moller-Plesset Theory     
	              RMP2 Wavefunction,   6 Threads             
	                                                         
	        Rob Parrish, Justin Turney, Andy Simmonett,      
	           Ed Hohenstein, and C. David Sherrill          
	 --------------------------------------------------------

   => Auxiliary Basis Set <=

  Basis Set: (AUG-CC-PVTZ AUX)
    Blend: AUG-CC-PVTZ-RI + DEF2-QZVPP-RI
    Number of shells: 273
    Number of basis functions: 991
    Number of Cartesian functions: 1246
    Spherical Harmonics?: true
    Max angular momentum: 4

	 --------------------------------------------------------
	                 NBF =   427, NAUX =   991
	 --------------------------------------------------------
	   CLASS    FOCC     OCC    AOCC    AVIR     VIR    FVIR
	   PAIRS       0       5       5     422     422       0
	 --------------------------------------------------------

	-----------------------------------------------------------
	 ==================> DF-MP2 Energies <==================== 
	-----------------------------------------------------------
	 Reference Energy          =     -76.0605380514102762 [Eh]
	 Singles Energy            =      -0.0000000000000000 [Eh]
	 Same-Spin Energy          =      -0.0679548176673098 [Eh]
	 Opposite-Spin Energy      =      -0.2141686825177086 [Eh]
	 Correlation Energy        =      -0.2821235001850184 [Eh]
	 Total Energy              =     -76.3426615515952989 [Eh]
	-----------------------------------------------------------
	 ================> DF-SCS-MP2 Energies <================== 
	-----------------------------------------------------------
	 SCS Same-Spin Scale       =       0.3333333333333333 [-]
	 SCS Opposite-Spin Scale   =       1.2000000000000000 [-]
	 SCS Same-Spin Energy      =      -0.0226516058891033 [Eh]
	 SCS Opposite-Spin Energy  =      -0.2570024190212503 [Eh]
	 SCS Correlation Energy    =      -0.2796540249103536 [Eh]
	 SCS Total Energy          =     -76.3401920763206334 [Eh]
	-----------------------------------------------------------


*** tstop() called on moses-razer at Wed Jan 24 19:35:12 2024
Module time:
	user time   =      12.83 seconds =       0.21 minutes
	system time =       1.11 seconds =       0.02 minutes
	total time  =          7 seconds =       0.12 minutes
Total time:
	user time   =      40.01 seconds =       0.67 minutes
	system time =       3.08 seconds =       0.05 minutes
	total time  =         16 seconds =       0.27 minutes

    Psi4 stopped on: Wednesday, 24 January 2024 07:35PM
    Psi4 wall time for execution: 0:00:15.24

*** Psi4 exiting successfully. Buy a developer a beer!
