
    -----------------------------------------------------------------------
          Psi4: An Open-Source Ab Initio Electronic Structure Package
                               Psi4 1.9 release

                         Git: Rev {} zzzzzzz 


    D. G. A. Smith, L. A. Burns, A. C. Simmonett, R. M. Parrish,
    M. C. Schieber, R. Galvelis, P. Kraus, H. Kruse, R. Di Remigio,
    A. Alenaizan, A. M. James, S. Lehtola, J. P. Misiewicz, M. Scheurer,
    R. A. Shaw, J. B. Schriber, Y. Xie, Z. L. Glick, D. A. Sirianni,
    J. S. O'Brien, J. M. Waldrop, A. Kumar, E. G. Hohenstein,
    B. P. Pritchard, B. R. Brooks, H. F. Schaefer III, A. Yu. Sokolov,
    K. Patkowski, A. E. DePrince III, U. Bozkaya, R. A. King,
    F. A. Evangelista, J. M. Turney, T. D. Crawford, C. D. Sherrill,
    J. Chem. Phys. 152(18) 184108 (2020). https://doi.org/10.1063/5.0006002

                            Additional Code Authors
    E. T. Seidl, C. L. Janssen, E. F. Valeev, M. L. Leininger,
    J. F. Gonthier, R. M. Richard, H. R. McAlexander, M. Saitow, X. Wang,
    P. Verma, M. H. Lechner, A. Jiang, S. Behnle, A. G. Heide,
    M. F. Herbst, and D. L. Poole

             Previous Authors, Complete List of Code Contributors,
                       and Citations for Specific Modules
    https://github.com/psi4/psi4/blob/master/codemeta.json
    https://github.com/psi4/psi4/graphs/contributors
    http://psicode.org/psi4manual/master/introduction.html#citing-psifour

    -----------------------------------------------------------------------


    Psi4 started on: Saturday, 06 January 2024 08:55PM

    Process ID: 555183
    Host:       moses-razer
    PSIDATADIR: /home/kchung25/anaconda3/envs/psi4_19/share/psi4
    Memory:     500.0 MiB
    Threads:    6
    
  ==> Input File <==

--------------------------------------------------------------------------
MEMORY 60 GB

molecule dimer {
1 1
K      0.000000     0.000000     0.000000
--
0 1
O      1.649798    -2.297513     0.068375
H      0.966347    -3.009432     0.268920
H      2.415982    -2.455505     0.666808
O     -1.651512     1.316542     1.618952
H     -2.531349     1.240121     2.010840
H     -1.216179     2.096571     2.037483
O     -2.184128    -0.807746    -0.773576
H     -2.827219    -1.529499    -0.681704
H     -2.210682    -0.412574    -1.661052
O      1.487946     1.247924     2.225563
H      1.142883     1.150397     3.114392
H      2.490161     1.303890     2.274317

units ang
no_reorient
no_com
symmetry c1
}

set {
basis        aug-cc-pVTZ
scf_type     df
}

energy("mp2", bsse_type="cp")
--------------------------------------------------------------------------

  Memory set to  55.879 GiB by Python driver.

Scratch directory: /scratch/

  //>>>>>>>>>>>>>>>>>>>>>>>>>>>>>>>>>>>>>//
  // ManyBody Setup: N-Body Levels [1, 2]//
  //<<<<<<<<<<<<<<<<<<<<<<<<<<<<<<<<<<<<<//

        Number of 1-body computations:     2
        Number of 2-body computations:     1

    -----------------------------------------------------------------------
          Psi4: An Open-Source Ab Initio Electronic Structure Package
                               Psi4 1.9 release

                         Git: Rev {} zzzzzzz 


    D. G. A. Smith, L. A. Burns, A. C. Simmonett, R. M. Parrish,
    M. C. Schieber, R. Galvelis, P. Kraus, H. Kruse, R. Di Remigio,
    A. Alenaizan, A. M. James, S. Lehtola, J. P. Misiewicz, M. Scheurer,
    R. A. Shaw, J. B. Schriber, Y. Xie, Z. L. Glick, D. A. Sirianni,
    J. S. O'Brien, J. M. Waldrop, A. Kumar, E. G. Hohenstein,
    B. P. Pritchard, B. R. Brooks, H. F. Schaefer III, A. Yu. Sokolov,
    K. Patkowski, A. E. DePrince III, U. Bozkaya, R. A. King,
    F. A. Evangelista, J. M. Turney, T. D. Crawford, C. D. Sherrill,
    J. Chem. Phys. 152(18) 184108 (2020). https://doi.org/10.1063/5.0006002

                            Additional Code Authors
    E. T. Seidl, C. L. Janssen, E. F. Valeev, M. L. Leininger,
    J. F. Gonthier, R. M. Richard, H. R. McAlexander, M. Saitow, X. Wang,
    P. Verma, M. H. Lechner, A. Jiang, S. Behnle, A. G. Heide,
    M. F. Herbst, and D. L. Poole

             Previous Authors, Complete List of Code Contributors,
                       and Citations for Specific Modules
    https://github.com/psi4/psi4/blob/master/codemeta.json
    https://github.com/psi4/psi4/graphs/contributors
    http://psicode.org/psi4manual/master/introduction.html#citing-psifour

    -----------------------------------------------------------------------


    Psi4 started on: Saturday, 06 January 2024 08:55PM

    Process ID: 555183
    Host:       moses-razer
    PSIDATADIR: /home/kchung25/anaconda3/envs/psi4_19/share/psi4
    Memory:     55.9 GiB
    Threads:    6
    
  ==> Input QCSchema <==

--------------------------------------------------------------------------
{'driver': 'energy',
 'extras': {'psiapi': True, 'wfn_qcvars_only': True},
 'id': None,
 'keywords': {'SCF_TYPE': 'DF', 'function_kwargs': {}},
 'model': {'basis': 'aug-cc-pvtz', 'method': 'mp2'},
 'molecule': {'atom_labels': ['', '', '', '', '', '', '', '', '', '', '', '', ''],
              'atomic_numbers': [19, 8, 1, 1, 8, 1, 1, 8, 1, 1, 8, 1, 1],
              'extras': {},
              'fix_com': True,
              'fix_orientation': True,
              'fix_symmetry': 'c1',
              'fragment_charges': [0.0, 0.0],
              'fragment_multiplicities': [1, 1],
              'fragments': [[0], [1, 2, 3, 4, 5, 6, 7, 8, 9, 10, 11, 12]],
              'geometry': [0.0, 0.0, 0.0, 3.1176663823280744, -4.341670339678991, 0.129210023828179, 1.8261311721577957,
                           -5.687002273188803, 0.5081851496581191, 4.565544304035853, -4.640231949692325,
                           1.2600844982642834, -3.120905372907109, 2.4879038126625, 3.0593758902622015,
                           -4.783556337951547, 2.3434890524288874, 3.799936882115619, -2.2982452295331757,
                           3.9619449925772443, 3.850284855276192, -4.127403742943955, -1.5264187189340588,
                           -1.461846777227165, -5.342669606690755, -2.8903342191616224, -1.2882338586291033,
                           -4.177583530479362, -0.779651866484638, -3.138933360143976, 2.8118104294704733,
                           2.358234585385835, 4.205704544952301, 2.159735863441619, 2.173935265548309,
                           5.8853479273168565, 4.705722298296191, 2.4639949977232076, 4.297836252472871],
              'mass_numbers': [39, 16, 1, 1, 16, 1, 1, 16, 1, 1, 16, 1, 1],
              'masses': [38.9637064864, 15.99491461957, 1.00782503223, 1.00782503223, 15.99491461957, 1.00782503223,
                         1.00782503223, 15.99491461957, 1.00782503223, 1.00782503223, 15.99491461957, 1.00782503223,
                         1.00782503223],
              'molecular_charge': 0.0,
              'molecular_multiplicity': 1,
              'name': 'dimer',
              'provenance': {'creator': 'QCElemental',
                             'routine': 'qcelemental.molparse.from_string',
                             'version': '0.27.1'},
              'real': [False, True, True, True, True, True, True, True, True, True, True, True, True],
              'schema_name': 'qcschema_molecule',
              'schema_version': 2,
              'symbols': ['K', 'O', 'H', 'H', 'O', 'H', 'H', 'O', 'H', 'H', 'O', 'H', 'H'],
              'validated': True},
 'protocols': {'stdout': True},
 'provenance': {'creator': 'QCElemental', 'routine': 'qcelemental.models.results', 'version': '0.27.1'},
 'schema_name': 'qcschema_input',
 'schema_version': 1}
--------------------------------------------------------------------------

Scratch directory: /scratch/
   => Libint2 <=

    Primary   basis highest AM E, G, H:  5, 4, 3
    Auxiliary basis highest AM E, G, H:  6, 5, 4
    Onebody   basis highest AM E, G, H:  6, 5, 4
    Solid Harmonics ordering:            gaussian

*** tstart() called on moses-razer
*** at Sat Jan  6 20:55:33 2024

   => Loading Basis Set <=

    Name: AUG-CC-PVTZ
    Role: ORBITAL
    Keyword: BASIS
    atoms 1                     entry K          line  1152 file /home/kchung25/anaconda3/envs/p415env/share/psi4/basis/aug-cc-pvtz.gbs 
    atoms 2, 5, 8, 11           entry O          line   331 file /home/kchung25/anaconda3/envs/p415env/share/psi4/basis/aug-cc-pvtz.gbs 
    atoms 3-4, 6-7, 9-10, 12-13 entry H          line    40 file /home/kchung25/anaconda3/envs/p415env/share/psi4/basis/aug-cc-pvtz.gbs 


         ---------------------------------------------------------
                                   SCF
               by Justin Turney, Rob Parrish, Andy Simmonett
                          and Daniel G. A. Smith
                              RHF Reference
                        6 Threads,  57220 MiB Core
         ---------------------------------------------------------

  ==> Geometry <==

    Molecular point group: c1
    Full point group: C1

    Geometry (in Bohr), charge = 0, multiplicity = 1:

       Center              X                  Y                   Z               Mass       
    ------------   -----------------  -----------------  -----------------  -----------------
      Gh(K)           0.000000000000     0.000000000000     0.000000000000    38.963706486400
         O            3.117666382328    -4.341670339679     0.129210023828    15.994914619570
         H            1.826131172158    -5.687002273189     0.508185149658     1.007825032230
         H            4.565544304036    -4.640231949692     1.260084498264     1.007825032230
         O           -3.120905372907     2.487903812663     3.059375890262    15.994914619570
         H           -4.783556337952     2.343489052429     3.799936882116     1.007825032230
         H           -2.298245229533     3.961944992577     3.850284855276     1.007825032230
         O           -4.127403742944    -1.526418718934    -1.461846777227    15.994914619570
         H           -5.342669606691    -2.890334219162    -1.288233858629     1.007825032230
         H           -4.177583530479    -0.779651866485    -3.138933360144     1.007825032230
         O            2.811810429470     2.358234585386     4.205704544952    15.994914619570
         H            2.159735863442     2.173935265548     5.885347927317     1.007825032230
         H            4.705722298296     2.463994997723     4.297836252473     1.007825032230

  Running in c1 symmetry.

  Rotational constants: A =      0.05601  B =      0.05428  C =      0.03236 [cm^-1]
  Rotational constants: A =   1679.19967  B =   1627.33094  C =    969.99516 [MHz]
  Nuclear repulsion =  111.801323648263860

  Charge       = 0
  Multiplicity = 1
  Electrons    = 40
  Nalpha       = 20
  Nbeta        = 20

  ==> Algorithm <==

  SCF Algorithm Type is DF.
  DIIS enabled.
  MOM disabled.
  Fractional occupation disabled.
  Guess Type is SAD.
  Energy threshold   = 1.00e-08
  Density threshold  = 1.00e-08
  Integral threshold = 1.00e-12

  ==> Primary Basis <==

  Basis Set: AUG-CC-PVTZ
    Blend: AUG-CC-PVTZ
    Number of shells: 147
    Number of basis functions: 427
    Number of Cartesian functions: 489
    Spherical Harmonics?: true
    Max angular momentum: 3

   => Loading Basis Set <=

    Name: (AUG-CC-PVTZ AUX)
    Role: JKFIT
    Keyword: DF_BASIS_SCF
    atoms 1                     entry K          line  1152 file /home/kchung25/anaconda3/envs/p415env/share/psi4/basis/def2-universal-jkfit.gbs 
    atoms 2, 5, 8, 11           entry O          line   286 file /home/kchung25/anaconda3/envs/p415env/share/psi4/basis/aug-cc-pvtz-jkfit.gbs 
    atoms 3-4, 6-7, 9-10, 12-13 entry H          line    70 file /home/kchung25/anaconda3/envs/p415env/share/psi4/basis/aug-cc-pvtz-jkfit.gbs 

  ==> Integral Setup <==

  DFHelper Memory: AOs need 1.196 GiB; user supplied 41.910 GiB. 
  Using in-core AOs.

  ==> MemDFJK: Density-Fitted J/K Matrices <==

    J tasked:                   Yes
    K tasked:                   Yes
    wK tasked:                   No
    OpenMP threads:               6
    Memory [MiB]:             42915
    Algorithm:                 Core
    Schwarz Cutoff:           1E-12
    Mask sparsity (%):      10.7509
    Fitting Condition:        1E-10

   => Auxiliary Basis Set <=

  Basis Set: (AUG-CC-PVTZ AUX)
    Blend: AUG-CC-PVTZ-JKFIT + DEF2-UNIVERSAL-JKFIT
    Number of shells: 276
    Number of basis functions: 944
    Number of Cartesian functions: 1167
    Spherical Harmonics?: true
    Max angular momentum: 4

  Minimum eigenvalue in the overlap matrix is 6.8438317320E-05.
  Reciprocal condition number of the overlap matrix is 5.7252210685E-06.
    Using symmetric orthogonalization.

  ==> Pre-Iterations <==

  SCF Guess: Superposition of Atomic Densities via on-the-fly atomic UHF (no occupation information).

   -------------------------
    Irrep   Nso     Nmo    
   -------------------------
     A        427     427 
   -------------------------
    Total     427     427
   -------------------------

  ==> Iterations <==

                           Total Energy        Delta E     RMS |[F,P]|

   @DF-RHF iter SAD:  -301.80961320293289   -3.01810e+02   0.00000e+00 
   @DF-RHF iter   1:  -303.86662931854170   -2.05702e+00   2.21222e-03 DIIS/ADIIS
   @DF-RHF iter   2:  -304.07653980395480   -2.09910e-01   1.56461e-03 DIIS/ADIIS
   @DF-RHF iter   3:  -304.21736251765554   -1.40823e-01   1.06449e-04 DIIS/ADIIS
   @DF-RHF iter   4:  -304.21916354105684   -1.80102e-03   2.75510e-05 DIIS
   @DF-RHF iter   5:  -304.21929269016755   -1.29149e-04   7.17464e-06 DIIS
   @DF-RHF iter   6:  -304.21930433384034   -1.16437e-05   3.06936e-06 DIIS
   @DF-RHF iter   7:  -304.21930547231239   -1.13847e-06   8.82735e-07 DIIS
   @DF-RHF iter   8:  -304.21930565399668   -1.81684e-07   1.55241e-07 DIIS
   @DF-RHF iter   9:  -304.21930566012463   -6.12795e-09   3.34403e-08 DIIS
   @DF-RHF iter  10:  -304.21930566029698   -1.72349e-10   1.52564e-08 DIIS
   @DF-RHF iter  11:  -304.21930566032239   -2.54090e-11   4.37654e-09 DIIS
  Energy and wave function converged.


  ==> Post-Iterations <==

    Orbital Energies [Eh]
    ---------------------

    Doubly Occupied:                                                      

       1A    -20.556404     2A    -20.552473     3A    -20.543826  
       4A    -20.541606     5A     -1.326195     6A     -1.319165  
       7A     -1.314184     8A     -1.312575     9A     -0.700868  
      10A     -0.700289    11A     -0.682991    12A     -0.681411  
      13A     -0.558456    14A     -0.551697    15A     -0.551131  
      16A     -0.537812    17A     -0.494150    18A     -0.485614  
      19A     -0.484365    20A     -0.478840  

    Virtual:                                                              

      21A      0.007623    22A      0.008986    23A      0.009662  
      24A      0.012764    25A      0.017737    26A      0.018513  
      27A      0.018757    28A      0.019598    29A      0.019706  
      30A      0.034527    31A      0.037198    32A      0.039540  
      33A      0.049252    34A      0.058805    35A      0.063450  
      36A      0.064210    37A      0.066751    38A      0.067459  
      39A      0.071306    40A      0.072559    41A      0.079503  
      42A      0.081171    43A      0.084256    44A      0.086068  
      45A      0.091794    46A      0.101721    47A      0.125344  
      48A      0.130802    49A      0.134910    50A      0.138376  
      51A      0.145959    52A      0.164727    53A      0.171603  
      54A      0.173025    55A      0.179052    56A      0.183644  
      57A      0.191215    58A      0.191985    59A      0.201020  
      60A      0.204953    61A      0.205711    62A      0.211375  
      63A      0.221755    64A      0.224861    65A      0.230762  
      66A      0.234989    67A      0.236697    68A      0.251305  
      69A      0.254671    70A      0.259377    71A      0.274202  
      72A      0.276759    73A      0.289701    74A      0.291145  
      75A      0.294466    76A      0.300746    77A      0.308430  
      78A      0.310109    79A      0.315168    80A      0.332518  
      81A      0.341563    82A      0.346632    83A      0.358853  
      84A      0.362397    85A      0.369115    86A      0.386310  
      87A      0.392974    88A      0.405489    89A      0.407944  
      90A      0.410504    91A      0.418506    92A      0.424024  
      93A      0.427313    94A      0.438148    95A      0.446069  
      96A      0.452512    97A      0.459402    98A      0.462398  
      99A      0.466652   100A      0.468450   101A      0.473739  
     102A      0.475903   103A      0.480349   104A      0.488082  
     105A      0.490332   106A      0.494261   107A      0.499084  
     108A      0.504817   109A      0.507446   110A      0.526340  
     111A      0.536516   112A      0.540751   113A      0.557094  
     114A      0.567724   115A      0.579179   116A      0.588124  
     117A      0.594557   118A      0.620617   119A      0.626347  
     120A      0.668309   121A      0.688362   122A      0.699272  
     123A      0.705931   124A      0.729066   125A      0.743401  
     126A      0.749365   127A      0.754376   128A      0.763851  
     129A      0.775928   130A      0.795580   131A      0.799975  
     132A      0.811346   133A      0.817658   134A      0.825006  
     135A      0.838177   136A      0.849062   137A      0.851277  
     138A      0.857143   139A      0.873232   140A      0.887581  
     141A      0.895972   142A      0.902906   143A      0.910249  
     144A      0.917306   145A      0.930967   146A      0.946141  
     147A      0.956539   148A      0.971693   149A      0.973691  
     150A      0.977323   151A      0.984880   152A      0.992111  
     153A      1.000857   154A      1.008344   155A      1.027378  
     156A      1.029516   157A      1.034492   158A      1.038204  
     159A      1.043855   160A      1.052139   161A      1.060583  
     162A      1.063348   163A      1.071876   164A      1.076418  
     165A      1.083770   166A      1.089597   167A      1.100699  
     168A      1.105422   169A      1.113757   170A      1.119720  
     171A      1.127363   172A      1.138557   173A      1.144415  
     174A      1.150209   175A      1.164323   176A      1.165908  
     177A      1.181605   178A      1.191194   179A      1.198867  
     180A      1.206964   181A      1.218265   182A      1.221920  
     183A      1.234241   184A      1.247693   185A      1.250341  
     186A      1.253908   187A      1.279031   188A      1.283443  
     189A      1.299557   190A      1.302320   191A      1.321258  
     192A      1.325010   193A      1.333977   194A      1.349545  
     195A      1.357071   196A      1.365173   197A      1.396818  
     198A      1.416099   199A      1.440326   200A      1.474345  
     201A      1.507939   202A      1.582481   203A      1.612170  
     204A      1.617967   205A      1.633381   206A      1.644347  
     207A      1.652770   208A      1.675734   209A      1.682088  
     210A      1.705783   211A      1.713849   212A      1.738488  
     213A      1.748572   214A      1.786470   215A      1.799021  
     216A      1.808933   217A      1.870228   218A      1.934201  
     219A      1.941478   220A      1.946415   221A      1.973666  
     222A      1.989988   223A      2.020054   224A      2.035811  
     225A      2.045289   226A      2.072412   227A      2.124468  
     228A      2.141038   229A      2.173332   230A      2.195182  
     231A      2.264144   232A      2.275658   233A      2.317786  
     234A      2.328810   235A      2.336356   236A      2.351556  
     237A      2.362408   238A      2.367318   239A      2.371533  
     240A      2.383772   241A      2.388641   242A      2.415989  
     243A      2.425620   244A      2.432287   245A      2.446134  
     246A      2.459941   247A      2.474490   248A      2.490696  
     249A      2.505325   250A      2.509287   251A      2.525131  
     252A      2.536283   253A      2.548031   254A      2.559049  
     255A      2.580057   256A      2.587589   257A      2.597777  
     258A      2.644242   259A      2.649280   260A      2.666984  
     261A      2.700071   262A      2.755826   263A      2.769627  
     264A      2.776975   265A      2.779651   266A      2.795097  
     267A      2.807660   268A      2.816366   269A      2.822126  
     270A      2.827743   271A      2.836228   272A      2.854830  
     273A      2.883733   274A      2.889273   275A      2.910334  
     276A      2.923087   277A      2.930675   278A      2.935490  
     279A      2.938126   280A      2.968961   281A      3.017932  
     282A      3.027880   283A      3.071028   284A      3.086240  
     285A      3.139439   286A      3.490351   287A      3.685653  
     288A      3.699414   289A      3.736909   290A      3.776894  
     291A      3.806491   292A      3.846405   293A      3.867411  
     294A      3.911809   295A      4.037296   296A      4.042302  
     297A      4.075731   298A      4.100454   299A      4.170295  
     300A      4.205295   301A      4.210389   302A      4.224850  
     303A      4.234459   304A      4.241313   305A      4.258297  
     306A      4.268069   307A      4.282611   308A      4.294122  
     309A      4.304145   310A      4.308643   311A      4.349528  
     312A      4.362573   313A      4.407379   314A      4.419457  
     315A      4.435882   316A      4.438536   317A      4.453185  
     318A      4.458346   319A      4.469039   320A      4.477305  
     321A      4.501303   322A      4.501894   323A      4.504839  
     324A      4.516476   325A      4.524645   326A      4.537658  
     327A      4.561386   328A      4.589346   329A      4.600156  
     330A      4.627948   331A      4.733405   332A      4.757378  
     333A      4.771561   334A      4.776910   335A      4.787607  
     336A      4.799468   337A      4.805414   338A      4.848302  
     339A      5.056648   340A      5.077505   341A      5.096988  
     342A      5.118500   343A      5.124278   344A      5.143391  
     345A      5.169047   346A      5.187325   347A      5.230941  
     348A      5.278127   349A      5.293069   350A      5.314766  
     351A      5.325062   352A      5.339483   353A      5.361171  
     354A      5.381988   355A      5.435294   356A      5.476907  
     357A      5.489624   358A      5.505152   359A      5.715153  
     360A      5.786777   361A      5.816533   362A      5.891673  
     363A      6.186988   364A      6.208027   365A      6.224780  
     366A      6.267095   367A      6.616380   368A      6.636518  
     369A      6.640970   370A      6.680689   371A      6.739070  
     372A      6.746426   373A      6.775850   374A      6.794110  
     375A      6.854174   376A      6.858774   377A      6.866575  
     378A      6.916923   379A      7.145579   380A      7.158201  
     381A      7.185324   382A      7.217765   383A      7.263214  
     384A      7.287676   385A      7.295319   386A      7.310277  
     387A      7.318926   388A      7.337213   389A      7.346265  
     390A      7.354548   391A      7.361051   392A      7.371356  
     393A      7.375317   394A      7.393309   395A      7.397824  
     396A      7.405817   397A      7.415067   398A      7.416791  
     399A      7.423597   400A      7.434301   401A      7.458675  
     402A      7.483961   403A      7.520249   404A      7.567352  
     405A      7.607936   406A      7.616968   407A      7.845561  
     408A      7.857771   409A      7.870757   410A      7.913117  
     411A      7.925025   412A      7.956587   413A      7.973074  
     414A      8.015367   415A      8.631417   416A      8.689859  
     417A      8.732263   418A      8.765634   419A     10.509314  
     420A     14.890382   421A     15.347504   422A     15.485152  
     423A     15.656846   424A     30.612393   425A     30.931718  
     426A     31.235632   427A    198.202366  

    Final Occupation by Irrep:
              A 
    DOCC [    20 ]
    NA   [    20 ]
    NB   [    20 ]

  @DF-RHF Final Energy:  -304.21930566032239

   => Energetics <=

    Nuclear Repulsion Energy =            111.8013236482638604
    One-Electron Energy =                -643.2931457702597982
    Two-Electron Energy =                 227.2725164616735469
    Total Energy =                       -304.2193056603223908

Computation Completed


Properties will be evaluated at   0.000000,   0.000000,   0.000000 [a0]

Properties computed using the SCF density matrix


 Multipole Moments:

 ------------------------------------------------------------------------------------
     Multipole            Electronic (a.u.)      Nuclear  (a.u.)        Total (a.u.)
 ------------------------------------------------------------------------------------

 L = 1.  Multiply by 2.5417464519 to convert [e a0] to [Debye]
 Dipole X            :         13.6613510          -13.8955795           -0.2342285
 Dipole Y            :         10.8839965          -11.2294613           -0.3454648
 Dipole Z            :        -61.5513530           62.6340578            1.0827048
 Magnitude           :                                                    1.1603701

 ------------------------------------------------------------------------------------

*** tstop() called on moses-razer at Sat Jan  6 20:55:43 2024
Module time:
	user time   =      33.24 seconds =       0.55 minutes
	system time =       2.29 seconds =       0.04 minutes
	total time  =         10 seconds =       0.17 minutes
Total time:
	user time   =      33.24 seconds =       0.55 minutes
	system time =       2.29 seconds =       0.04 minutes
	total time  =         10 seconds =       0.17 minutes

*** tstart() called on moses-razer
*** at Sat Jan  6 20:55:43 2024


  //>>>>>>>>>>>>>>>>>>>>>>>>>>>>>>>>>>>//
  //               DFMP2               //
  //<<<<<<<<<<<<<<<<<<<<<<<<<<<<<<<<<<<//

   => Loading Basis Set <=

    Name: (AUG-CC-PVTZ AUX)
    Role: RIFIT
    Keyword: DF_BASIS_MP2
    atoms 1                     entry K          line  1282 file /home/kchung25/anaconda3/envs/p415env/share/psi4/basis/def2-qzvpp-ri.gbs 
    atoms 2, 5, 8, 11           entry O          line   264 file /home/kchung25/anaconda3/envs/p415env/share/psi4/basis/aug-cc-pvtz-ri.gbs 
    atoms 3-4, 6-7, 9-10, 12-13 entry H          line    30 file /home/kchung25/anaconda3/envs/p415env/share/psi4/basis/aug-cc-pvtz-ri.gbs 

	 --------------------------------------------------------
	                          DF-MP2                         
	      2nd-Order Density-Fitted Moller-Plesset Theory     
	              RMP2 Wavefunction,   6 Threads             
	                                                         
	        Rob Parrish, Justin Turney, Andy Simmonett,      
	           Ed Hohenstein, and C. David Sherrill          
	 --------------------------------------------------------

   => Auxiliary Basis Set <=

  Basis Set: (AUG-CC-PVTZ AUX)
    Blend: AUG-CC-PVTZ-RI + DEF2-QZVPP-RI
    Number of shells: 273
    Number of basis functions: 991
    Number of Cartesian functions: 1246
    Spherical Harmonics?: true
    Max angular momentum: 4

	 --------------------------------------------------------
	                 NBF =   427, NAUX =   991
	 --------------------------------------------------------
	   CLASS    FOCC     OCC    AOCC    AVIR     VIR    FVIR
	   PAIRS       0      20      20     407     407       0
	 --------------------------------------------------------

	-----------------------------------------------------------
	 ==================> DF-MP2 Energies <==================== 
	-----------------------------------------------------------
	 Reference Energy          =    -304.2193056603223908 [Eh]
	 Singles Energy            =      -0.0000000000000000 [Eh]
	 Same-Spin Energy          =      -0.2762942188605677 [Eh]
	 Opposite-Spin Energy      =      -0.8682826347573585 [Eh]
	 Correlation Energy        =      -1.1445768536179262 [Eh]
	 Total Energy              =    -305.3638825139403252 [Eh]
	-----------------------------------------------------------
	 ================> DF-SCS-MP2 Energies <================== 
	-----------------------------------------------------------
	 SCS Same-Spin Scale       =       0.3333333333333333 [-]
	 SCS Opposite-Spin Scale   =       1.2000000000000000 [-]
	 SCS Same-Spin Energy      =      -0.0920980729535226 [Eh]
	 SCS Opposite-Spin Energy  =      -1.0419391617088301 [Eh]
	 SCS Correlation Energy    =      -1.1340372346623526 [Eh]
	 SCS Total Energy          =    -305.3533428949847348 [Eh]
	-----------------------------------------------------------


*** tstop() called on moses-razer at Sat Jan  6 20:55:50 2024
Module time:
	user time   =      15.81 seconds =       0.26 minutes
	system time =       1.32 seconds =       0.02 minutes
	total time  =          7 seconds =       0.12 minutes
Total time:
	user time   =      49.06 seconds =       0.82 minutes
	system time =       3.61 seconds =       0.06 minutes
	total time  =         17 seconds =       0.28 minutes

    Psi4 stopped on: Saturday, 06 January 2024 08:55PM
    Psi4 wall time for execution: 0:00:16.83


    -----------------------------------------------------------------------
          Psi4: An Open-Source Ab Initio Electronic Structure Package
                               Psi4 1.9 release

                         Git: Rev {} zzzzzzz 


    D. G. A. Smith, L. A. Burns, A. C. Simmonett, R. M. Parrish,
    M. C. Schieber, R. Galvelis, P. Kraus, H. Kruse, R. Di Remigio,
    A. Alenaizan, A. M. James, S. Lehtola, J. P. Misiewicz, M. Scheurer,
    R. A. Shaw, J. B. Schriber, Y. Xie, Z. L. Glick, D. A. Sirianni,
    J. S. O'Brien, J. M. Waldrop, A. Kumar, E. G. Hohenstein,
    B. P. Pritchard, B. R. Brooks, H. F. Schaefer III, A. Yu. Sokolov,
    K. Patkowski, A. E. DePrince III, U. Bozkaya, R. A. King,
    F. A. Evangelista, J. M. Turney, T. D. Crawford, C. D. Sherrill,
    J. Chem. Phys. 152(18) 184108 (2020). https://doi.org/10.1063/5.0006002

                            Additional Code Authors
    E. T. Seidl, C. L. Janssen, E. F. Valeev, M. L. Leininger,
    J. F. Gonthier, R. M. Richard, H. R. McAlexander, M. Saitow, X. Wang,
    P. Verma, M. H. Lechner, A. Jiang, S. Behnle, A. G. Heide,
    M. F. Herbst, and D. L. Poole

             Previous Authors, Complete List of Code Contributors,
                       and Citations for Specific Modules
    https://github.com/psi4/psi4/blob/master/codemeta.json
    https://github.com/psi4/psi4/graphs/contributors
    http://psicode.org/psi4manual/master/introduction.html#citing-psifour

    -----------------------------------------------------------------------


    Psi4 started on: Saturday, 06 January 2024 08:55PM

    Process ID: 555183
    Host:       moses-razer
    PSIDATADIR: /home/kchung25/anaconda3/envs/psi4_19/share/psi4
    Memory:     55.9 GiB
    Threads:    6
    
  ==> Input QCSchema <==

--------------------------------------------------------------------------
{'driver': 'energy',
 'extras': {'psiapi': True, 'wfn_qcvars_only': True},
 'id': None,
 'keywords': {'SCF_TYPE': 'DF', 'function_kwargs': {}},
 'model': {'basis': 'aug-cc-pvtz', 'method': 'mp2'},
 'molecule': {'atom_labels': ['', '', '', '', '', '', '', '', '', '', '', '', ''],
              'atomic_numbers': [19, 8, 1, 1, 8, 1, 1, 8, 1, 1, 8, 1, 1],
              'extras': {},
              'fix_com': True,
              'fix_orientation': True,
              'fix_symmetry': 'c1',
              'fragment_charges': [1.0, 0.0],
              'fragment_multiplicities': [1, 1],
              'fragments': [[0], [1, 2, 3, 4, 5, 6, 7, 8, 9, 10, 11, 12]],
              'geometry': [0.0, 0.0, 0.0, 3.1176663823280744, -4.341670339678991, 0.129210023828179, 1.8261311721577957,
                           -5.687002273188803, 0.5081851496581191, 4.565544304035853, -4.640231949692325,
                           1.2600844982642834, -3.120905372907109, 2.4879038126625, 3.0593758902622015,
                           -4.783556337951547, 2.3434890524288874, 3.799936882115619, -2.2982452295331757,
                           3.9619449925772443, 3.850284855276192, -4.127403742943955, -1.5264187189340588,
                           -1.461846777227165, -5.342669606690755, -2.8903342191616224, -1.2882338586291033,
                           -4.177583530479362, -0.779651866484638, -3.138933360143976, 2.8118104294704733,
                           2.358234585385835, 4.205704544952301, 2.159735863441619, 2.173935265548309,
                           5.8853479273168565, 4.705722298296191, 2.4639949977232076, 4.297836252472871],
              'mass_numbers': [39, 16, 1, 1, 16, 1, 1, 16, 1, 1, 16, 1, 1],
              'masses': [38.9637064864, 15.99491461957, 1.00782503223, 1.00782503223, 15.99491461957, 1.00782503223,
                         1.00782503223, 15.99491461957, 1.00782503223, 1.00782503223, 15.99491461957, 1.00782503223,
                         1.00782503223],
              'molecular_charge': 1.0,
              'molecular_multiplicity': 1,
              'name': 'dimer',
              'provenance': {'creator': 'QCElemental',
                             'routine': 'qcelemental.molparse.from_string',
                             'version': '0.27.1'},
              'real': [True, False, False, False, False, False, False, False, False, False, False, False, False],
              'schema_name': 'qcschema_molecule',
              'schema_version': 2,
              'symbols': ['K', 'O', 'H', 'H', 'O', 'H', 'H', 'O', 'H', 'H', 'O', 'H', 'H'],
              'validated': True},
 'protocols': {'stdout': True},
 'provenance': {'creator': 'QCElemental', 'routine': 'qcelemental.models.results', 'version': '0.27.1'},
 'schema_name': 'qcschema_input',
 'schema_version': 1}
--------------------------------------------------------------------------

Scratch directory: /scratch/
   => Libint2 <=

    Primary   basis highest AM E, G, H:  5, 4, 3
    Auxiliary basis highest AM E, G, H:  6, 5, 4
    Onebody   basis highest AM E, G, H:  6, 5, 4
    Solid Harmonics ordering:            gaussian

*** tstart() called on moses-razer
*** at Sat Jan  6 20:55:50 2024

   => Loading Basis Set <=

    Name: AUG-CC-PVTZ
    Role: ORBITAL
    Keyword: BASIS
    atoms 1                     entry K          line  1152 file /home/kchung25/anaconda3/envs/p415env/share/psi4/basis/aug-cc-pvtz.gbs 
    atoms 2, 5, 8, 11           entry O          line   331 file /home/kchung25/anaconda3/envs/p415env/share/psi4/basis/aug-cc-pvtz.gbs 
    atoms 3-4, 6-7, 9-10, 12-13 entry H          line    40 file /home/kchung25/anaconda3/envs/p415env/share/psi4/basis/aug-cc-pvtz.gbs 


         ---------------------------------------------------------
                                   SCF
               by Justin Turney, Rob Parrish, Andy Simmonett
                          and Daniel G. A. Smith
                              RHF Reference
                        6 Threads,  57220 MiB Core
         ---------------------------------------------------------

  ==> Geometry <==

    Molecular point group: c1
    Full point group: C1

    Geometry (in Bohr), charge = 1, multiplicity = 1:

       Center              X                  Y                   Z               Mass       
    ------------   -----------------  -----------------  -----------------  -----------------
         K            0.000000000000     0.000000000000     0.000000000000    38.963706486400
      Gh(O)           3.117666382328    -4.341670339679     0.129210023828    15.994914619570
      Gh(H)           1.826131172158    -5.687002273189     0.508185149658     1.007825032230
      Gh(H)           4.565544304036    -4.640231949692     1.260084498264     1.007825032230
      Gh(O)          -3.120905372907     2.487903812663     3.059375890262    15.994914619570
      Gh(H)          -4.783556337952     2.343489052429     3.799936882116     1.007825032230
      Gh(H)          -2.298245229533     3.961944992577     3.850284855276     1.007825032230
      Gh(O)          -4.127403742944    -1.526418718934    -1.461846777227    15.994914619570
      Gh(H)          -5.342669606691    -2.890334219162    -1.288233858629     1.007825032230
      Gh(H)          -4.177583530479    -0.779651866485    -3.138933360144     1.007825032230
      Gh(O)           2.811810429470     2.358234585386     4.205704544952    15.994914619570
      Gh(H)           2.159735863442     2.173935265548     5.885347927317     1.007825032230
      Gh(H)           4.705722298296     2.463994997723     4.297836252473     1.007825032230

  Running in c1 symmetry.

  Rotational constants: A =      0.05601  B =      0.05428  C =      0.03236 [cm^-1]
  Rotational constants: A =   1679.19967  B =   1627.33094  C =    969.99516 [MHz]
  Nuclear repulsion =    0.000000000000000

  Charge       = 1
  Multiplicity = 1
  Electrons    = 18
  Nalpha       = 9
  Nbeta        = 9

  ==> Algorithm <==

  SCF Algorithm Type is DF.
  DIIS enabled.
  MOM disabled.
  Fractional occupation disabled.
  Guess Type is SAD.
  Energy threshold   = 1.00e-08
  Density threshold  = 1.00e-08
  Integral threshold = 1.00e-12

  ==> Primary Basis <==

  Basis Set: AUG-CC-PVTZ
    Blend: AUG-CC-PVTZ
    Number of shells: 147
    Number of basis functions: 427
    Number of Cartesian functions: 489
    Spherical Harmonics?: true
    Max angular momentum: 3

   => Loading Basis Set <=

    Name: (AUG-CC-PVTZ AUX)
    Role: JKFIT
    Keyword: DF_BASIS_SCF
    atoms 1                     entry K          line  1152 file /home/kchung25/anaconda3/envs/p415env/share/psi4/basis/def2-universal-jkfit.gbs 
    atoms 2, 5, 8, 11           entry O          line   286 file /home/kchung25/anaconda3/envs/p415env/share/psi4/basis/aug-cc-pvtz-jkfit.gbs 
    atoms 3-4, 6-7, 9-10, 12-13 entry H          line    70 file /home/kchung25/anaconda3/envs/p415env/share/psi4/basis/aug-cc-pvtz-jkfit.gbs 

  ==> Integral Setup <==

  DFHelper Memory: AOs need 1.196 GiB; user supplied 41.910 GiB. 
  Using in-core AOs.

  ==> MemDFJK: Density-Fitted J/K Matrices <==

    J tasked:                   Yes
    K tasked:                   Yes
    wK tasked:                   No
    OpenMP threads:               6
    Memory [MiB]:             42915
    Algorithm:                 Core
    Schwarz Cutoff:           1E-12
    Mask sparsity (%):      10.7509
    Fitting Condition:        1E-10

   => Auxiliary Basis Set <=

  Basis Set: (AUG-CC-PVTZ AUX)
    Blend: AUG-CC-PVTZ-JKFIT + DEF2-UNIVERSAL-JKFIT
    Number of shells: 276
    Number of basis functions: 944
    Number of Cartesian functions: 1167
    Spherical Harmonics?: true
    Max angular momentum: 4

  Minimum eigenvalue in the overlap matrix is 6.8438317320E-05.
  Reciprocal condition number of the overlap matrix is 5.7252210685E-06.
    Using symmetric orthogonalization.

  ==> Pre-Iterations <==

  SCF Guess: Superposition of Atomic Densities via on-the-fly atomic UHF (no occupation information).

   -------------------------
    Irrep   Nso     Nmo    
   -------------------------
     A        427     427 
   -------------------------
    Total     427     427
   -------------------------

  ==> Iterations <==

                           Total Energy        Delta E     RMS |[F,P]|

   @DF-RHF iter SAD:  -599.05183728480699   -5.99052e+02   0.00000e+00 
   @DF-RHF iter   1:  -599.01747008655320    3.43672e-02   2.21112e-05 DIIS
   @DF-RHF iter   2:  -599.01751316265086   -4.30761e-05   2.59681e-06 DIIS
   @DF-RHF iter   3:  -599.01751417389346   -1.01124e-06   3.62982e-07 DIIS
   @DF-RHF iter   4:  -599.01751418873300   -1.48395e-08   2.30137e-08 DIIS
   @DF-RHF iter   5:  -599.01751418880485   -7.18501e-11   3.99445e-09 DIIS
  Energy and wave function converged.


  ==> Post-Iterations <==

    Orbital Energies [Eh]
    ---------------------

    Doubly Occupied:                                                      

       1A   -133.752922     2A    -14.708531     3A    -11.738597  
       4A    -11.738595     5A    -11.738593     6A     -1.964032  
       7A     -1.170730     8A     -1.170721     9A     -1.170662  

    Virtual:                                                              

      10A     -0.146962    11A     -0.095557    12A     -0.095556  
      13A     -0.095547    14A     -0.060663    15A     -0.057979  
      16A     -0.057935    17A     -0.057884    18A     -0.057878  
      19A     -0.057851    20A     -0.045541    21A     -0.045540  
      22A     -0.045535    23A     -0.031357    24A     -0.031288  
      25A     -0.031274    26A     -0.031272    27A     -0.031256  
      28A     -0.019019    29A     -0.018707    30A     -0.017803  
      31A     -0.016769    32A     -0.014919    33A     -0.013550  
      34A     -0.010225    35A     -0.007928    36A     -0.004741  
      37A     -0.002129    38A      0.005556    39A      0.008092  
      40A      0.010081    41A      0.012221    42A      0.012287  
      43A      0.013955    44A      0.029398    45A      0.034995  
      46A      0.040978    47A      0.046080    48A      0.051840  
      49A      0.054383    50A      0.057914    51A      0.061175  
      52A      0.074761    53A      0.083468    54A      0.085354  
      55A      0.089130    56A      0.090992    57A      0.096267  
      58A      0.098448    59A      0.100286    60A      0.105491  
      61A      0.108768    62A      0.115066    63A      0.124122  
      64A      0.130443    65A      0.131891    66A      0.140516  
      67A      0.150672    68A      0.168460    69A      0.173646  
      70A      0.180223    71A      0.190562    72A      0.199241  
      73A      0.204377    74A      0.206609    75A      0.213312  
      76A      0.222194    77A      0.227630    78A      0.227880  
      79A      0.233123    80A      0.240914    81A      0.243751  
      82A      0.246915    83A      0.252668    84A      0.256346  
      85A      0.263370    86A      0.269954    87A      0.278209  
      88A      0.279359    89A      0.287973    90A      0.291624  
      91A      0.293718    92A      0.298939    93A      0.304805  
      94A      0.310071    95A      0.314158    96A      0.319195  
      97A      0.323350    98A      0.328962    99A      0.333012  
     100A      0.338472   101A      0.347053   102A      0.349138  
     103A      0.355892   104A      0.363279   105A      0.370322  
     106A      0.376072   107A      0.381822   108A      0.391625  
     109A      0.406044   110A      0.413087   111A      0.413837  
     112A      0.432640   113A      0.449527   114A      0.459187  
     115A      0.536333   116A      0.570360   117A      0.579825  
     118A      0.590548   119A      0.595862   120A      0.607264  
     121A      0.629503   122A      0.638101   123A      0.647457  
     124A      0.650774   125A      0.655129   126A      0.664514  
     127A      0.671780   128A      0.687959   129A      0.699777  
     130A      0.704943   131A      0.712207   132A      0.716767  
     133A      0.719300   134A      0.743428   135A      0.747831  
     136A      0.751249   137A      0.754579   138A      0.763268  
     139A      0.769559   140A      0.776521   141A      0.782598  
     142A      0.793632   143A      0.797501   144A      0.802329  
     145A      0.814367   146A      0.821875   147A      0.828090  
     148A      0.835490   149A      0.839963   150A      0.849359  
     151A      0.857479   152A      0.885379   153A      0.886340  
     154A      0.894363   155A      0.899274   156A      0.905700  
     157A      0.915760   158A      0.922246   159A      0.923209  
     160A      0.935917   161A      0.942306   162A      0.950999  
     163A      0.958781   164A      0.971315   165A      0.980498  
     166A      0.986276   167A      0.989627   168A      1.011592  
     169A      1.017340   170A      1.022247   171A      1.033465  
     172A      1.040950   173A      1.051607   174A      1.060491  
     175A      1.072723   176A      1.079637   177A      1.088074  
     178A      1.095435   179A      1.109193   180A      1.110585  
     181A      1.133019   182A      1.138213   183A      1.155927  
     184A      1.160577   185A      1.170996   186A      1.179882  
     187A      1.188844   188A      1.213612   189A      1.242572  
     190A      1.277977   191A      1.317783   192A      1.334831  
     193A      1.338968   194A      1.368316   195A      1.383507  
     196A      1.423293   197A      1.456870   198A      1.486134  
     199A      1.509580   200A      1.571128   201A      1.589906  
     202A      1.602611   203A      1.614688   204A      1.620025  
     205A      1.629522   206A      1.644142   207A      1.657122  
     208A      1.672304   209A      1.676710   210A      1.688468  
     211A      1.703433   212A      1.713155   213A      1.718011  
     214A      1.731297   215A      1.753309   216A      1.768800  
     217A      1.811848   218A      1.832087   219A      1.837198  
     220A      1.849654   221A      1.863994   222A      1.876576  
     223A      1.913651   224A      2.176813   225A      2.199341  
     226A      2.209598   227A      2.234854   228A      2.249154  
     229A      2.273419   230A      2.289488   231A      2.302831  
     232A      2.331278   233A      2.338448   234A      2.347289  
     235A      2.351193   236A      2.360992   237A      2.369450  
     238A      2.377233   239A      2.383379   240A      2.395710  
     241A      2.398378   242A      2.409829   243A      2.413159  
     244A      2.438989   245A      2.442123   246A      2.465828  
     247A      2.480983   248A      2.494278   249A      2.521124  
     250A      2.560441   251A      2.564497   252A      2.579203  
     253A      2.620231   254A      2.662413   255A      2.680650  
     256A      2.707523   257A      2.728096   258A      2.753939  
     259A      2.759639   260A      2.986121   261A      2.992716  
     262A      3.010836   263A      3.019128   264A      3.029718  
     265A      3.063155   266A      3.063831   267A      3.069118  
     268A      3.073214   269A      3.092445   270A      3.102825  
     271A      3.114319   272A      3.125597   273A      3.131693  
     274A      3.144419   275A      3.156543   276A      3.163200  
     277A      3.173201   278A      3.174370   279A      3.200582  
     280A      3.384062   281A      3.402820   282A      3.415041  
     283A      3.441040   284A      3.508196   285A      3.533451  
     286A      3.562410   287A      3.578439   288A      4.164310  
     289A      4.185514   290A      4.193571   291A      4.235013  
     292A      4.306710   293A      4.327332   294A      4.330916  
     295A      4.343367   296A      4.351507   297A      4.363607  
     298A      4.371035   299A      4.391130   300A      4.432479  
     301A      4.459710   302A      4.475158   303A      4.483566  
     304A      4.489488   305A      4.499534   306A      4.513038  
     307A      4.541121   308A      4.554529   309A      4.577658  
     310A      4.584365   311A      4.623428   312A      4.757242  
     313A      4.769180   314A      4.771937   315A      4.789955  
     316A      4.794841   317A      4.827070   318A      4.827424  
     319A      4.838742   320A      4.860071   321A      4.895650  
     322A      4.915730   323A      4.928821   324A      4.941669  
     325A      5.001051   326A      5.001532   327A      5.032175  
     328A      5.222852   329A      5.281348   330A      5.289568  
     331A      5.293136   332A      5.296054   333A      5.353321  
     334A      5.369544   335A      5.398124   336A      5.404113  
     337A      5.472472   338A      5.472994   339A      5.494310  
     340A      5.562714   341A      5.573561   342A      5.611140  
     343A      5.645285   344A      5.939343   345A      5.946210  
     346A      5.968221   347A      5.987404   348A      6.058865  
     349A      6.098873   350A      6.125083   351A      6.170179  
     352A      6.405729   353A      6.506243   354A      6.529057  
     355A      6.603774   356A      6.748320   357A      6.851249  
     358A      6.862645   359A      6.864803   360A      7.458669  
     361A      7.468735   362A      7.477828   363A      7.505850  
     364A      7.526380   365A      7.565094   366A      7.579783  
     367A      7.600312   368A      7.855272   369A      7.875699  
     370A      7.896466   371A      7.914228   372A      7.948295  
     373A      8.010320   374A      8.018120   375A      8.020076  
     376A      8.028327   377A      8.056265   378A      8.059816  
     379A      8.068908   380A      8.369780   381A      8.475954  
     382A      8.494364   383A      8.510685   384A      8.525885  
     385A      8.556907   386A      8.559130   387A      8.581147  
     388A      9.516471   389A      9.544581   390A      9.576168  
     391A      9.595932   392A      9.690710   393A      9.723197  
     394A      9.741613   395A      9.749391   396A      9.810034  
     397A      9.826104   398A      9.830611   399A      9.845179  
     400A      9.953160   401A      9.998938   402A     10.008288  
     403A     10.022881   404A     10.791917   405A     10.848910  
     406A     10.871890   407A     10.911947   408A     11.427156  
     409A     11.430039   410A     11.442546   411A     11.451842  
     412A     11.587954   413A     11.797133   414A     11.829525  
     415A     11.876022   416A     13.145498   417A     13.222446  
     418A     13.251517   419A     13.295785   420A     13.669987  
     421A     13.695614   422A     13.715972   423A     13.731137  
     424A     62.781422   425A     63.611868   426A     63.858300  
     427A     64.133700  

    Final Occupation by Irrep:
              A 
    DOCC [     9 ]
    NA   [     9 ]
    NB   [     9 ]

  @DF-RHF Final Energy:  -599.01751418880485

   => Energetics <=

    Nuclear Repulsion Energy =              0.0000000000000000
    One-Electron Energy =                -819.7282651443877057
    Two-Electron Energy =                 220.7107509555827960
    Total Energy =                       -599.0175141888048529

Computation Completed


Properties will be evaluated at   0.000000,   0.000000,   0.000000 [a0]

Properties computed using the SCF density matrix


 Multipole Moments:

 ------------------------------------------------------------------------------------
     Multipole            Electronic (a.u.)      Nuclear  (a.u.)        Total (a.u.)
 ------------------------------------------------------------------------------------

 L = 1.  Multiply by 2.5417464519 to convert [e a0] to [Debye]
 Dipole X            :         -0.0001982            0.0000000           -0.0001982
 Dipole Y            :         -0.0001042            0.0000000           -0.0001042
 Dipole Z            :          0.0001699            0.0000000            0.0001699
 Magnitude           :                                                    0.0002811

 ------------------------------------------------------------------------------------

*** tstop() called on moses-razer at Sat Jan  6 20:56:00 2024
Module time:
	user time   =      28.58 seconds =       0.48 minutes
	system time =       2.95 seconds =       0.05 minutes
	total time  =         10 seconds =       0.17 minutes
Total time:
	user time   =      77.89 seconds =       1.30 minutes
	system time =       6.58 seconds =       0.11 minutes
	total time  =         27 seconds =       0.45 minutes

*** tstart() called on moses-razer
*** at Sat Jan  6 20:56:00 2024


  //>>>>>>>>>>>>>>>>>>>>>>>>>>>>>>>>>>>//
  //               DFMP2               //
  //<<<<<<<<<<<<<<<<<<<<<<<<<<<<<<<<<<<//

   => Loading Basis Set <=

    Name: (AUG-CC-PVTZ AUX)
    Role: RIFIT
    Keyword: DF_BASIS_MP2
    atoms 1                     entry K          line  1282 file /home/kchung25/anaconda3/envs/p415env/share/psi4/basis/def2-qzvpp-ri.gbs 
    atoms 2, 5, 8, 11           entry O          line   264 file /home/kchung25/anaconda3/envs/p415env/share/psi4/basis/aug-cc-pvtz-ri.gbs 
    atoms 3-4, 6-7, 9-10, 12-13 entry H          line    30 file /home/kchung25/anaconda3/envs/p415env/share/psi4/basis/aug-cc-pvtz-ri.gbs 

	 --------------------------------------------------------
	                          DF-MP2                         
	      2nd-Order Density-Fitted Moller-Plesset Theory     
	              RMP2 Wavefunction,   6 Threads             
	                                                         
	        Rob Parrish, Justin Turney, Andy Simmonett,      
	           Ed Hohenstein, and C. David Sherrill          
	 --------------------------------------------------------

   => Auxiliary Basis Set <=

  Basis Set: (AUG-CC-PVTZ AUX)
    Blend: AUG-CC-PVTZ-RI + DEF2-QZVPP-RI
    Number of shells: 273
    Number of basis functions: 991
    Number of Cartesian functions: 1246
    Spherical Harmonics?: true
    Max angular momentum: 4

	 --------------------------------------------------------
	                 NBF =   427, NAUX =   991
	 --------------------------------------------------------
	   CLASS    FOCC     OCC    AOCC    AVIR     VIR    FVIR
	   PAIRS       0       9       9     418     418       0
	 --------------------------------------------------------

	-----------------------------------------------------------
	 ==================> DF-MP2 Energies <==================== 
	-----------------------------------------------------------
	 Reference Energy          =    -599.0175141888048529 [Eh]
	 Singles Energy            =      -0.0000000000000000 [Eh]
	 Same-Spin Energy          =      -0.0353221150969296 [Eh]
	 Opposite-Spin Energy      =      -0.0855162737134709 [Eh]
	 Correlation Energy        =      -0.1208383888104004 [Eh]
	 Total Energy              =    -599.1383525776152510 [Eh]
	-----------------------------------------------------------
	 ================> DF-SCS-MP2 Energies <================== 
	-----------------------------------------------------------
	 SCS Same-Spin Scale       =       0.3333333333333333 [-]
	 SCS Opposite-Spin Scale   =       1.2000000000000000 [-]
	 SCS Same-Spin Energy      =      -0.0117740383656432 [Eh]
	 SCS Opposite-Spin Energy  =      -0.1026195284561650 [Eh]
	 SCS Correlation Energy    =      -0.1143935668218082 [Eh]
	 SCS Total Energy          =    -599.1319077556266848 [Eh]
	-----------------------------------------------------------


*** tstop() called on moses-razer at Sat Jan  6 20:56:07 2024
Module time:
	user time   =      13.51 seconds =       0.23 minutes
	system time =       1.15 seconds =       0.02 minutes
	total time  =          7 seconds =       0.12 minutes
Total time:
	user time   =      91.40 seconds =       1.52 minutes
	system time =       7.73 seconds =       0.13 minutes
	total time  =         34 seconds =       0.57 minutes

    Psi4 stopped on: Saturday, 06 January 2024 08:56PM
    Psi4 wall time for execution: 0:00:17.00


    -----------------------------------------------------------------------
          Psi4: An Open-Source Ab Initio Electronic Structure Package
                               Psi4 1.9 release

                         Git: Rev {} zzzzzzz 


    D. G. A. Smith, L. A. Burns, A. C. Simmonett, R. M. Parrish,
    M. C. Schieber, R. Galvelis, P. Kraus, H. Kruse, R. Di Remigio,
    A. Alenaizan, A. M. James, S. Lehtola, J. P. Misiewicz, M. Scheurer,
    R. A. Shaw, J. B. Schriber, Y. Xie, Z. L. Glick, D. A. Sirianni,
    J. S. O'Brien, J. M. Waldrop, A. Kumar, E. G. Hohenstein,
    B. P. Pritchard, B. R. Brooks, H. F. Schaefer III, A. Yu. Sokolov,
    K. Patkowski, A. E. DePrince III, U. Bozkaya, R. A. King,
    F. A. Evangelista, J. M. Turney, T. D. Crawford, C. D. Sherrill,
    J. Chem. Phys. 152(18) 184108 (2020). https://doi.org/10.1063/5.0006002

                            Additional Code Authors
    E. T. Seidl, C. L. Janssen, E. F. Valeev, M. L. Leininger,
    J. F. Gonthier, R. M. Richard, H. R. McAlexander, M. Saitow, X. Wang,
    P. Verma, M. H. Lechner, A. Jiang, S. Behnle, A. G. Heide,
    M. F. Herbst, and D. L. Poole

             Previous Authors, Complete List of Code Contributors,
                       and Citations for Specific Modules
    https://github.com/psi4/psi4/blob/master/codemeta.json
    https://github.com/psi4/psi4/graphs/contributors
    http://psicode.org/psi4manual/master/introduction.html#citing-psifour

    -----------------------------------------------------------------------


    Psi4 started on: Saturday, 06 January 2024 08:55PM

    Process ID: 555183
    Host:       moses-razer
    PSIDATADIR: /home/kchung25/anaconda3/envs/psi4_19/share/psi4
    Memory:     55.9 GiB
    Threads:    6
    
  ==> Input QCSchema <==

--------------------------------------------------------------------------
{'driver': 'energy',
 'extras': {'psiapi': True, 'wfn_qcvars_only': True},
 'id': None,
 'keywords': {'SCF_TYPE': 'DF', 'function_kwargs': {}},
 'model': {'basis': 'aug-cc-pvtz', 'method': 'mp2'},
 'molecule': {'atom_labels': ['', '', '', '', '', '', '', '', '', '', '', '', ''],
              'atomic_numbers': [19, 8, 1, 1, 8, 1, 1, 8, 1, 1, 8, 1, 1],
              'extras': {},
              'fix_com': True,
              'fix_orientation': True,
              'fix_symmetry': 'c1',
              'fragment_charges': [1.0, 0.0],
              'fragment_multiplicities': [1, 1],
              'fragments': [[0], [1, 2, 3, 4, 5, 6, 7, 8, 9, 10, 11, 12]],
              'geometry': [0.0, 0.0, 0.0, 3.1176663823280744, -4.341670339678991, 0.129210023828179, 1.8261311721577957,
                           -5.687002273188803, 0.5081851496581191, 4.565544304035853, -4.640231949692325,
                           1.2600844982642834, -3.120905372907109, 2.4879038126625, 3.0593758902622015,
                           -4.783556337951547, 2.3434890524288874, 3.799936882115619, -2.2982452295331757,
                           3.9619449925772443, 3.850284855276192, -4.127403742943955, -1.5264187189340588,
                           -1.461846777227165, -5.342669606690755, -2.8903342191616224, -1.2882338586291033,
                           -4.177583530479362, -0.779651866484638, -3.138933360143976, 2.8118104294704733,
                           2.358234585385835, 4.205704544952301, 2.159735863441619, 2.173935265548309,
                           5.8853479273168565, 4.705722298296191, 2.4639949977232076, 4.297836252472871],
              'mass_numbers': [39, 16, 1, 1, 16, 1, 1, 16, 1, 1, 16, 1, 1],
              'masses': [38.9637064864, 15.99491461957, 1.00782503223, 1.00782503223, 15.99491461957, 1.00782503223,
                         1.00782503223, 15.99491461957, 1.00782503223, 1.00782503223, 15.99491461957, 1.00782503223,
                         1.00782503223],
              'molecular_charge': 1.0,
              'molecular_multiplicity': 1,
              'name': 'dimer',
              'provenance': {'creator': 'QCElemental',
                             'routine': 'qcelemental.molparse.from_string',
                             'version': '0.27.1'},
              'real': [True, True, True, True, True, True, True, True, True, True, True, True, True],
              'schema_name': 'qcschema_molecule',
              'schema_version': 2,
              'symbols': ['K', 'O', 'H', 'H', 'O', 'H', 'H', 'O', 'H', 'H', 'O', 'H', 'H'],
              'validated': True},
 'protocols': {'stdout': True},
 'provenance': {'creator': 'QCElemental', 'routine': 'qcelemental.models.results', 'version': '0.27.1'},
 'schema_name': 'qcschema_input',
 'schema_version': 1}
--------------------------------------------------------------------------

Scratch directory: /scratch/
   => Libint2 <=

    Primary   basis highest AM E, G, H:  5, 4, 3
    Auxiliary basis highest AM E, G, H:  6, 5, 4
    Onebody   basis highest AM E, G, H:  6, 5, 4
    Solid Harmonics ordering:            gaussian

*** tstart() called on moses-razer
*** at Sat Jan  6 20:56:07 2024

   => Loading Basis Set <=

    Name: AUG-CC-PVTZ
    Role: ORBITAL
    Keyword: BASIS
    atoms 1                     entry K          line  1152 file /home/kchung25/anaconda3/envs/p415env/share/psi4/basis/aug-cc-pvtz.gbs 
    atoms 2, 5, 8, 11           entry O          line   331 file /home/kchung25/anaconda3/envs/p415env/share/psi4/basis/aug-cc-pvtz.gbs 
    atoms 3-4, 6-7, 9-10, 12-13 entry H          line    40 file /home/kchung25/anaconda3/envs/p415env/share/psi4/basis/aug-cc-pvtz.gbs 


         ---------------------------------------------------------
                                   SCF
               by Justin Turney, Rob Parrish, Andy Simmonett
                          and Daniel G. A. Smith
                              RHF Reference
                        6 Threads,  57220 MiB Core
         ---------------------------------------------------------

  ==> Geometry <==

    Molecular point group: c1
    Full point group: C1

    Geometry (in Bohr), charge = 1, multiplicity = 1:

       Center              X                  Y                   Z               Mass       
    ------------   -----------------  -----------------  -----------------  -----------------
         K            0.000000000000     0.000000000000     0.000000000000    38.963706486400
         O            3.117666382328    -4.341670339679     0.129210023828    15.994914619570
         H            1.826131172158    -5.687002273189     0.508185149658     1.007825032230
         H            4.565544304036    -4.640231949692     1.260084498264     1.007825032230
         O           -3.120905372907     2.487903812663     3.059375890262    15.994914619570
         H           -4.783556337952     2.343489052429     3.799936882116     1.007825032230
         H           -2.298245229533     3.961944992577     3.850284855276     1.007825032230
         O           -4.127403742944    -1.526418718934    -1.461846777227    15.994914619570
         H           -5.342669606691    -2.890334219162    -1.288233858629     1.007825032230
         H           -4.177583530479    -0.779651866485    -3.138933360144     1.007825032230
         O            2.811810429470     2.358234585386     4.205704544952    15.994914619570
         H            2.159735863442     2.173935265548     5.885347927317     1.007825032230
         H            4.705722298296     2.463994997723     4.297836252473     1.007825032230

  Running in c1 symmetry.

  Rotational constants: A =      0.05601  B =      0.05428  C =      0.03236 [cm^-1]
  Rotational constants: A =   1679.19967  B =   1627.33094  C =    969.99516 [MHz]
  Nuclear repulsion =  254.881410925108895

  Charge       = 1
  Multiplicity = 1
  Electrons    = 58
  Nalpha       = 29
  Nbeta        = 29

  ==> Algorithm <==

  SCF Algorithm Type is DF.
  DIIS enabled.
  MOM disabled.
  Fractional occupation disabled.
  Guess Type is SAD.
  Energy threshold   = 1.00e-08
  Density threshold  = 1.00e-08
  Integral threshold = 1.00e-12

  ==> Primary Basis <==

  Basis Set: AUG-CC-PVTZ
    Blend: AUG-CC-PVTZ
    Number of shells: 147
    Number of basis functions: 427
    Number of Cartesian functions: 489
    Spherical Harmonics?: true
    Max angular momentum: 3

   => Loading Basis Set <=

    Name: (AUG-CC-PVTZ AUX)
    Role: JKFIT
    Keyword: DF_BASIS_SCF
    atoms 1                     entry K          line  1152 file /home/kchung25/anaconda3/envs/p415env/share/psi4/basis/def2-universal-jkfit.gbs 
    atoms 2, 5, 8, 11           entry O          line   286 file /home/kchung25/anaconda3/envs/p415env/share/psi4/basis/aug-cc-pvtz-jkfit.gbs 
    atoms 3-4, 6-7, 9-10, 12-13 entry H          line    70 file /home/kchung25/anaconda3/envs/p415env/share/psi4/basis/aug-cc-pvtz-jkfit.gbs 

  ==> Integral Setup <==

  DFHelper Memory: AOs need 1.196 GiB; user supplied 41.910 GiB. 
  Using in-core AOs.

  ==> MemDFJK: Density-Fitted J/K Matrices <==

    J tasked:                   Yes
    K tasked:                   Yes
    wK tasked:                   No
    OpenMP threads:               6
    Memory [MiB]:             42915
    Algorithm:                 Core
    Schwarz Cutoff:           1E-12
    Mask sparsity (%):      10.7509
    Fitting Condition:        1E-10

   => Auxiliary Basis Set <=

  Basis Set: (AUG-CC-PVTZ AUX)
    Blend: AUG-CC-PVTZ-JKFIT + DEF2-UNIVERSAL-JKFIT
    Number of shells: 276
    Number of basis functions: 944
    Number of Cartesian functions: 1167
    Spherical Harmonics?: true
    Max angular momentum: 4

  Minimum eigenvalue in the overlap matrix is 6.8438317320E-05.
  Reciprocal condition number of the overlap matrix is 5.7252210685E-06.
    Using symmetric orthogonalization.

  ==> Pre-Iterations <==

  SCF Guess: Superposition of Atomic Densities via on-the-fly atomic UHF (no occupation information).

   -------------------------
    Irrep   Nso     Nmo    
   -------------------------
     A        427     427 
   -------------------------
    Total     427     427
   -------------------------

  ==> Iterations <==

                           Total Energy        Delta E     RMS |[F,P]|

   @DF-RHF iter SAD:  -901.01635293282129   -9.01016e+02   0.00000e+00 
   @DF-RHF iter   1:  -902.96271347180345   -1.94636e+00   2.25589e-03 DIIS/ADIIS
   @DF-RHF iter   2:  -903.18467291493062   -2.21959e-01   1.53287e-03 DIIS/ADIIS
   @DF-RHF iter   3:  -903.31789924582597   -1.33226e-01   1.06044e-04 DIIS/ADIIS
   @DF-RHF iter   4:  -903.31957485792168   -1.67561e-03   2.75921e-05 DIIS
   @DF-RHF iter   5:  -903.31969200393758   -1.17146e-04   7.38716e-06 DIIS
   @DF-RHF iter   6:  -903.31970175993615   -9.75600e-06   3.32795e-06 DIIS
   @DF-RHF iter   7:  -903.31970296207396   -1.20214e-06   7.40382e-07 DIIS
   @DF-RHF iter   8:  -903.31970308970836   -1.27634e-07   1.45851e-07 DIIS
   @DF-RHF iter   9:  -903.31970309411508   -4.40673e-09   4.18139e-08 DIIS
   @DF-RHF iter  10:  -903.31970309436394   -2.48860e-10   1.45714e-08 DIIS
   @DF-RHF iter  11:  -903.31970309438589   -2.19416e-11   4.45109e-09 DIIS
  Energy and wave function converged.


  ==> Post-Iterations <==

    Orbital Energies [Eh]
    ---------------------

    Doubly Occupied:                                                      

       1A   -133.613604     2A    -20.724582     3A    -20.716275  
       4A    -20.713066     5A    -20.711162     6A    -14.571665  
       7A    -11.601617     8A    -11.601442     9A    -11.601364  
      10A     -1.835306    11A     -1.507379    12A     -1.488617  
      13A     -1.484416    14A     -1.479398    15A     -1.046775  
      16A     -1.046454    17A     -1.043438    18A     -0.885996  
      19A     -0.860893    20A     -0.852648    21A     -0.846962  
      22A     -0.741649    23A     -0.728793    24A     -0.723900  
      25A     -0.723051    26A     -0.672743    27A     -0.656239  
      28A     -0.654645    29A     -0.652861  

    Virtual:                                                              

      30A     -0.091846    31A     -0.073543    32A     -0.070170  
      33A     -0.067660    34A     -0.051306    35A     -0.049438  
      36A     -0.047863    37A     -0.047025    38A     -0.045875  
      39A     -0.041129    40A     -0.037002    41A     -0.036174  
      42A     -0.034550    43A     -0.023348    44A     -0.022261  
      45A     -0.020567    46A     -0.019778    47A     -0.019423  
      48A     -0.016742    49A     -0.013566    50A     -0.009659  
      51A     -0.007089    52A     -0.003376    53A     -0.001640  
      54A      0.000288    55A      0.001378    56A      0.007267  
      57A      0.014056    58A      0.019917    59A      0.028927  
      60A      0.031134    61A      0.046896    62A      0.054870  
      63A      0.057668    64A      0.062679    65A      0.067165  
      66A      0.068665    67A      0.071615    68A      0.082468  
      69A      0.083924    70A      0.087023    71A      0.091016  
      72A      0.101242    73A      0.107896    74A      0.108370  
      75A      0.111340    76A      0.117323    77A      0.121145  
      78A      0.128913    79A      0.130372    80A      0.135804  
      81A      0.138172    82A      0.144125    83A      0.147926  
      84A      0.154865    85A      0.163764    86A      0.169855  
      87A      0.173120    88A      0.180197    89A      0.191875  
      90A      0.201721    91A      0.205500    92A      0.214795  
      93A      0.218447    94A      0.221465    95A      0.231031  
      96A      0.242076    97A      0.253467    98A      0.261338  
      99A      0.263321   100A      0.271099   101A      0.279856  
     102A      0.284576   103A      0.287052   104A      0.293979  
     105A      0.302418   106A      0.304420   107A      0.308633  
     108A      0.314578   109A      0.325964   110A      0.329986  
     111A      0.334616   112A      0.341644   113A      0.343105  
     114A      0.347379   115A      0.352762   116A      0.355310  
     117A      0.357721   118A      0.362263   119A      0.365933  
     120A      0.373185   121A      0.373323   122A      0.384554  
     123A      0.387963   124A      0.394012   125A      0.403921  
     126A      0.409824   127A      0.416004   128A      0.433068  
     129A      0.438478   130A      0.446193   131A      0.451791  
     132A      0.465795   133A      0.494610   134A      0.517626  
     135A      0.533400   136A      0.552306   137A      0.562472  
     138A      0.593991   139A      0.598850   140A      0.599254  
     141A      0.609985   142A      0.624166   143A      0.635801  
     144A      0.645881   145A      0.661293   146A      0.668764  
     147A      0.680538   148A      0.697513   149A      0.701602  
     150A      0.717144   151A      0.725684   152A      0.735606  
     153A      0.743019   154A      0.751841   155A      0.763143  
     156A      0.770089   157A      0.773009   158A      0.777781  
     159A      0.802362   160A      0.812732   161A      0.817376  
     162A      0.824945   163A      0.830857   164A      0.840380  
     165A      0.842702   166A      0.851118   167A      0.876693  
     168A      0.879399   169A      0.886540   170A      0.894662  
     171A      0.903524   172A      0.911253   173A      0.914894  
     174A      0.920657   175A      0.928267   176A      0.930535  
     177A      0.937884   178A      0.941561   179A      0.950618  
     180A      0.956204   181A      0.963564   182A      0.969078  
     183A      0.980577   184A      0.984026   185A      0.994210  
     186A      0.998078   187A      1.015114   188A      1.021930  
     189A      1.031310   190A      1.037783   191A      1.044744  
     192A      1.050112   193A      1.058539   194A      1.069466  
     195A      1.079476   196A      1.088295   197A      1.093293  
     198A      1.104943   199A      1.111870   200A      1.127095  
     201A      1.132640   202A      1.142614   203A      1.156186  
     204A      1.165460   205A      1.179831   206A      1.190087  
     207A      1.196983   208A      1.205220   209A      1.217547  
     210A      1.246483   211A      1.258987   212A      1.270730  
     213A      1.327128   214A      1.352717   215A      1.429889  
     216A      1.448267   217A      1.465433   218A      1.472642  
     219A      1.490312   220A      1.508411   221A      1.523269  
     222A      1.542658   223A      1.545807   224A      1.562588  
     225A      1.584197   226A      1.618692   227A      1.623277  
     228A      1.655733   229A      1.657422   230A      1.713945  
     231A      1.724544   232A      1.775323   233A      1.795334  
     234A      1.809114   235A      1.834396   236A      1.843997  
     237A      1.875889   238A      1.880511   239A      1.889752  
     240A      1.964423   241A      1.984269   242A      1.994131  
     243A      2.018648   244A      2.156128   245A      2.175376  
     246A      2.178024   247A      2.182528   248A      2.186434  
     249A      2.194888   250A      2.202428   251A      2.211718  
     252A      2.241173   253A      2.256722   254A      2.264550  
     255A      2.276625   256A      2.294651   257A      2.300853  
     258A      2.307610   259A      2.327226   260A      2.342825  
     261A      2.347221   262A      2.373503   263A      2.375215  
     264A      2.381014   265A      2.408631   266A      2.428250  
     267A      2.452873   268A      2.490149   269A      2.508592  
     270A      2.534873   271A      2.580420   272A      2.597615  
     273A      2.609681   274A      2.614849   275A      2.615531  
     276A      2.637109   277A      2.639554   278A      2.647871  
     279A      2.662094   280A      2.664952   281A      2.676377  
     282A      2.710503   283A      2.733849   284A      2.736933  
     285A      2.752035   286A      2.756462   287A      2.763440  
     288A      2.775411   289A      2.794662   290A      2.831370  
     291A      2.878532   292A      3.520751   293A      3.537016  
     294A      3.552505   295A      3.601878   296A      3.641927  
     297A      3.677428   298A      3.691965   299A      3.703221  
     300A      3.869547   301A      3.885751   302A      3.901305  
     303A      3.937946   304A      4.001009   305A      4.041083  
     306A      4.043349   307A      4.051019   308A      4.063934  
     309A      4.076773   310A      4.079929   311A      4.093877  
     312A      4.115576   313A      4.116468   314A      4.127171  
     315A      4.143818   316A      4.179722   317A      4.203456  
     318A      4.222791   319A      4.255662   320A      4.267370  
     321A      4.275139   322A      4.284427   323A      4.288342  
     324A      4.301750   325A      4.312211   326A      4.327455  
     327A      4.339887   328A      4.344649   329A      4.347077  
     330A      4.359740   331A      4.365660   332A      4.391465  
     333A      4.417514   334A      4.427805   335A      4.433988  
     336A      4.568754   337A      4.581950   338A      4.601507  
     339A      4.608349   340A      4.614476   341A      4.630371  
     342A      4.646311   343A      4.681771   344A      4.896980  
     345A      4.924979   346A      4.933157   347A      4.941002  
     348A      4.958068   349A      4.978488   350A      4.999527  
     351A      5.005386   352A      5.069396   353A      5.112364  
     354A      5.129785   355A      5.134241   356A      5.161883  
     357A      5.164695   358A      5.182179   359A      5.196340  
     360A      5.270942   361A      5.308083   362A      5.321621  
     363A      5.337390   364A      5.545243   365A      5.614091  
     366A      5.645776   367A      5.699089   368A      6.011666  
     369A      6.024087   370A      6.054633   371A      6.088541  
     372A      6.447643   373A      6.452532   374A      6.473968  
     375A      6.507307   376A      6.568963   377A      6.576400  
     378A      6.582806   379A      6.615428   380A      6.660312  
     381A      6.688888   382A      6.700898   383A      6.737244  
     384A      6.977323   385A      6.995432   386A      7.011543  
     387A      7.028580   388A      7.094907   389A      7.105225  
     390A      7.125683   391A      7.140913   392A      7.144033  
     393A      7.158326   394A      7.171001   395A      7.183516  
     396A      7.187097   397A      7.191379   398A      7.209697  
     399A      7.217032   400A      7.223083   401A      7.231447  
     402A      7.245059   403A      7.248913   404A      7.256835  
     405A      7.261608   406A      7.270305   407A      7.299515  
     408A      7.351735   409A      7.402927   410A      7.423125  
     411A      7.439557   412A      7.664749   413A      7.678311  
     414A      7.707167   415A      7.745655   416A      7.752057  
     417A      7.787250   418A      7.806710   419A      7.828085  
     420A      8.467279   421A      8.532942   422A      8.547486  
     423A      8.594529   424A     14.726288   425A     15.190936  
     426A     15.315982   427A     15.475080  

    Final Occupation by Irrep:
              A 
    DOCC [    29 ]
    NA   [    29 ]
    NB   [    29 ]

  @DF-RHF Final Energy:  -903.31970309438589

   => Energetics <=

    Nuclear Repulsion Energy =            254.8814109251088951
    One-Electron Energy =               -1744.8283379161171069
    Two-Electron Energy =                 586.6272238966223540
    Total Energy =                       -903.3197030943858863

Computation Completed


Properties will be evaluated at   0.000000,   0.000000,   0.000000 [a0]

Properties computed using the SCF density matrix


 Multipole Moments:

 ------------------------------------------------------------------------------------
     Multipole            Electronic (a.u.)      Nuclear  (a.u.)        Total (a.u.)
 ------------------------------------------------------------------------------------

 L = 1.  Multiply by 2.5417464519 to convert [e a0] to [Debye]
 Dipole X            :         13.4723307          -13.8955795           -0.4232488
 Dipole Y            :         10.7834387          -11.2294613           -0.4460226
 Dipole Z            :        -61.2372600           62.6340578            1.3967978
 Magnitude           :                                                    1.5261454

 ------------------------------------------------------------------------------------

*** tstop() called on moses-razer at Sat Jan  6 20:56:19 2024
Module time:
	user time   =      38.93 seconds =       0.65 minutes
	system time =       3.22 seconds =       0.05 minutes
	total time  =         12 seconds =       0.20 minutes
Total time:
	user time   =     130.58 seconds =       2.18 minutes
	system time =      10.96 seconds =       0.18 minutes
	total time  =         46 seconds =       0.77 minutes

*** tstart() called on moses-razer
*** at Sat Jan  6 20:56:19 2024


  //>>>>>>>>>>>>>>>>>>>>>>>>>>>>>>>>>>>//
  //               DFMP2               //
  //<<<<<<<<<<<<<<<<<<<<<<<<<<<<<<<<<<<//

   => Loading Basis Set <=

    Name: (AUG-CC-PVTZ AUX)
    Role: RIFIT
    Keyword: DF_BASIS_MP2
    atoms 1                     entry K          line  1282 file /home/kchung25/anaconda3/envs/p415env/share/psi4/basis/def2-qzvpp-ri.gbs 
    atoms 2, 5, 8, 11           entry O          line   264 file /home/kchung25/anaconda3/envs/p415env/share/psi4/basis/aug-cc-pvtz-ri.gbs 
    atoms 3-4, 6-7, 9-10, 12-13 entry H          line    30 file /home/kchung25/anaconda3/envs/p415env/share/psi4/basis/aug-cc-pvtz-ri.gbs 

	 --------------------------------------------------------
	                          DF-MP2                         
	      2nd-Order Density-Fitted Moller-Plesset Theory     
	              RMP2 Wavefunction,   6 Threads             
	                                                         
	        Rob Parrish, Justin Turney, Andy Simmonett,      
	           Ed Hohenstein, and C. David Sherrill          
	 --------------------------------------------------------

   => Auxiliary Basis Set <=

  Basis Set: (AUG-CC-PVTZ AUX)
    Blend: AUG-CC-PVTZ-RI + DEF2-QZVPP-RI
    Number of shells: 273
    Number of basis functions: 991
    Number of Cartesian functions: 1246
    Spherical Harmonics?: true
    Max angular momentum: 4

	 --------------------------------------------------------
	                 NBF =   427, NAUX =   991
	 --------------------------------------------------------
	   CLASS    FOCC     OCC    AOCC    AVIR     VIR    FVIR
	   PAIRS       0      29      29     398     398       0
	 --------------------------------------------------------

	-----------------------------------------------------------
	 ==================> DF-MP2 Energies <==================== 
	-----------------------------------------------------------
	 Reference Energy          =    -903.3197030943858863 [Eh]
	 Singles Energy            =      -0.0000000000000000 [Eh]
	 Same-Spin Energy          =      -0.3144015212910167 [Eh]
	 Opposite-Spin Energy      =      -0.9530067258193651 [Eh]
	 Correlation Energy        =      -1.2674082471103818 [Eh]
	 Total Energy              =    -904.5871113414963247 [Eh]
	-----------------------------------------------------------
	 ================> DF-SCS-MP2 Energies <================== 
	-----------------------------------------------------------
	 SCS Same-Spin Scale       =       0.3333333333333333 [-]
	 SCS Opposite-Spin Scale   =       1.2000000000000000 [-]
	 SCS Same-Spin Energy      =      -0.1048005070970056 [Eh]
	 SCS Opposite-Spin Energy  =      -1.1436080709832381 [Eh]
	 SCS Correlation Energy    =      -1.2484085780802436 [Eh]
	 SCS Total Energy          =    -904.5681116724661024 [Eh]
	-----------------------------------------------------------


*** tstop() called on moses-razer at Sat Jan  6 20:56:27 2024
Module time:
	user time   =      18.47 seconds =       0.31 minutes
	system time =       1.31 seconds =       0.02 minutes
	total time  =          8 seconds =       0.13 minutes
Total time:
	user time   =     149.05 seconds =       2.48 minutes
	system time =      12.27 seconds =       0.20 minutes
	total time  =         54 seconds =       0.90 minutes

    Psi4 stopped on: Saturday, 06 January 2024 08:56PM
    Psi4 wall time for execution: 0:00:19.63


  //>>>>>>>>>>>>>>>>>>>>>>>>>>>>>>>>>>>//
  //          ManyBody Results         //
  //<<<<<<<<<<<<<<<<<<<<<<<<<<<<<<<<<<<//


   ==> N-Body: Counterpoise Corrected (CP) energies <==

        n-Body     Total Energy            Interaction Energy                          N-body Contribution to Interaction Energy
                   [Eh]                    [Eh]                  [kcal/mol]            [Eh]                  [kcal/mol]
             1  N/A                         0.000000000000        0.000000000000        0.000000000000        0.000000000000
  FULL/RTN   2  N/A                        -0.084876249941      -53.260650936530       -0.084876249941      -53.260650936530


    Psi4 stopped on: Saturday, 06 January 2024 08:56PM
    Psi4 wall time for execution: 0:00:55.10

*** Psi4 exiting successfully. Buy a developer a beer!
