
    -----------------------------------------------------------------------
          Psi4: An Open-Source Ab Initio Electronic Structure Package
                               Psi4 1.9 release

                         Git: Rev {} zzzzzzz 


    D. G. A. Smith, L. A. Burns, A. C. Simmonett, R. M. Parrish,
    M. C. Schieber, R. Galvelis, P. Kraus, H. Kruse, R. Di Remigio,
    A. Alenaizan, A. M. James, S. Lehtola, J. P. Misiewicz, M. Scheurer,
    R. A. Shaw, J. B. Schriber, Y. Xie, Z. L. Glick, D. A. Sirianni,
    J. S. O'Brien, J. M. Waldrop, A. Kumar, E. G. Hohenstein,
    B. P. Pritchard, B. R. Brooks, H. F. Schaefer III, A. Yu. Sokolov,
    K. Patkowski, A. E. DePrince III, U. Bozkaya, R. A. King,
    F. A. Evangelista, J. M. Turney, T. D. Crawford, C. D. Sherrill,
    J. Chem. Phys. 152(18) 184108 (2020). https://doi.org/10.1063/5.0006002

                            Additional Code Authors
    E. T. Seidl, C. L. Janssen, E. F. Valeev, M. L. Leininger,
    J. F. Gonthier, R. M. Richard, H. R. McAlexander, M. Saitow, X. Wang,
    P. Verma, M. H. Lechner, A. Jiang, S. Behnle, A. G. Heide,
    M. F. Herbst, and D. L. Poole

             Previous Authors, Complete List of Code Contributors,
                       and Citations for Specific Modules
    https://github.com/psi4/psi4/blob/master/codemeta.json
    https://github.com/psi4/psi4/graphs/contributors
    http://psicode.org/psi4manual/master/introduction.html#citing-psifour

    -----------------------------------------------------------------------


    Psi4 started on: Wednesday, 24 January 2024 06:15PM

    Process ID: 1247233
    Host:       moses-razer
    PSIDATADIR: /home/kchung25/anaconda3/envs/psi4_19/share/psi4
    Memory:     500.0 MiB
    Threads:    6
    
  ==> Input File <==

--------------------------------------------------------------------------
MEMORY 60 GB

molecule dimer {
0 1
Gh(K)      0.000000     0.000000     0.000000
Gh(O)     -1.653313    -1.051616     1.936869
Gh(H)     -2.526557    -0.873487     1.449054
Gh(H)     -1.779450    -0.761161     2.807517
Gh(O)     -2.044736    -1.095313    -1.390693
Gh(H)     -2.246528    -2.079962    -1.231368
Gh(H)     -2.476560    -0.777780    -2.210273
O         -0.390290     2.428068    -1.109074
H         -0.638411     2.714222    -0.228935
H         -0.928560     2.744767    -1.830555
Gh(O)      2.661841    -0.753804    -0.332134
Gh(H)      2.712180    -1.521938    -0.975578
Gh(H)      3.496474    -0.827065     0.075169
Gh(O)      0.849537     0.318983     2.782234
Gh(H)      0.338813    -0.012639     3.567669
Gh(H)      0.431354     1.159593     2.522927
Gh(O)      0.745160    -1.502289    -2.481552
Gh(H)      1.369940    -1.936199    -3.034574
Gh(H)      0.164672    -2.234902    -2.237506

units ang
no_reorient
no_com
symmetry c1
}

set {
basis        aug-cc-pVTZ
scf_type     df
}

energy("mp2")
--------------------------------------------------------------------------

  Memory set to  55.879 GiB by Python driver.

Scratch directory: /scratch/
   => Libint2 <=

    Primary   basis highest AM E, G, H:  5, 4, 3
    Auxiliary basis highest AM E, G, H:  6, 5, 4
    Onebody   basis highest AM E, G, H:  6, 5, 4
    Solid Harmonics ordering:            gaussian

*** tstart() called on moses-razer
*** at Wed Jan 24 18:15:59 2024

   => Loading Basis Set <=

    Name: AUG-CC-PVTZ
    Role: ORBITAL
    Keyword: BASIS
    atoms 1                                   entry K          line  1152 file /home/kchung25/anaconda3/envs/p415env/share/psi4/basis/aug-cc-pvtz.gbs 
    atoms 2, 5, 8, 11, 14, 17                 entry O          line   331 file /home/kchung25/anaconda3/envs/p415env/share/psi4/basis/aug-cc-pvtz.gbs 
    atoms 3-4, 6-7, 9-10, 12-13, 15-16, 18-19 entry H          line    40 file /home/kchung25/anaconda3/envs/p415env/share/psi4/basis/aug-cc-pvtz.gbs 


         ---------------------------------------------------------
                                   SCF
               by Justin Turney, Rob Parrish, Andy Simmonett
                          and Daniel G. A. Smith
                              RHF Reference
                        6 Threads,  57220 MiB Core
         ---------------------------------------------------------

  ==> Geometry <==

    Molecular point group: c1
    Full point group: C1

    Geometry (in Angstrom), charge = 0, multiplicity = 1:

       Center              X                  Y                   Z               Mass       
    ------------   -----------------  -----------------  -----------------  -----------------
      Gh(K)           0.000000000000     0.000000000000     0.000000000000    38.963706486400
      Gh(O)          -1.653313000000    -1.051616000000     1.936869000000    15.994914619570
      Gh(H)          -2.526557000000    -0.873487000000     1.449054000000     1.007825032230
      Gh(H)          -1.779450000000    -0.761161000000     2.807517000000     1.007825032230
      Gh(O)          -2.044736000000    -1.095313000000    -1.390693000000    15.994914619570
      Gh(H)          -2.246528000000    -2.079962000000    -1.231368000000     1.007825032230
      Gh(H)          -2.476560000000    -0.777780000000    -2.210273000000     1.007825032230
         O           -0.390290000000     2.428068000000    -1.109074000000    15.994914619570
         H           -0.638411000000     2.714222000000    -0.228935000000     1.007825032230
         H           -0.928560000000     2.744767000000    -1.830555000000     1.007825032230
      Gh(O)           2.661841000000    -0.753804000000    -0.332134000000    15.994914619570
      Gh(H)           2.712180000000    -1.521938000000    -0.975578000000     1.007825032230
      Gh(H)           3.496474000000    -0.827065000000     0.075169000000     1.007825032230
      Gh(O)           0.849537000000     0.318983000000     2.782234000000    15.994914619570
      Gh(H)           0.338813000000    -0.012639000000     3.567669000000     1.007825032230
      Gh(H)           0.431354000000     1.159593000000     2.522927000000     1.007825032230
      Gh(O)           0.745160000000    -1.502289000000    -2.481552000000    15.994914619570
      Gh(H)           1.369940000000    -1.936199000000    -3.034574000000     1.007825032230
      Gh(H)           0.164672000000    -2.234902000000    -2.237506000000     1.007825032230

  Running in c1 symmetry.

  Rotational constants: A =      0.03403  B =      0.02799  C =      0.02452 [cm^-1]
  Rotational constants: A =   1020.15823  B =    839.11422  C =    735.05737 [MHz]
  Nuclear repulsion =    9.179721199978502

  Charge       = 0
  Multiplicity = 1
  Electrons    = 10
  Nalpha       = 5
  Nbeta        = 5

  ==> Algorithm <==

  SCF Algorithm Type is DF.
  DIIS enabled.
  MOM disabled.
  Fractional occupation disabled.
  Guess Type is SAD.
  Energy threshold   = 1.00e-08
  Density threshold  = 1.00e-08
  Integral threshold = 1.00e-12

  ==> Primary Basis <==

  Basis Set: AUG-CC-PVTZ
    Blend: AUG-CC-PVTZ
    Number of shells: 211
    Number of basis functions: 611
    Number of Cartesian functions: 699
    Spherical Harmonics?: true
    Max angular momentum: 3

   => Loading Basis Set <=

    Name: (AUG-CC-PVTZ AUX)
    Role: JKFIT
    Keyword: DF_BASIS_SCF
    atoms 1                                   entry K          line  1152 file /home/kchung25/anaconda3/envs/p415env/share/psi4/basis/def2-universal-jkfit.gbs 
    atoms 2, 5, 8, 11, 14, 17                 entry O          line   286 file /home/kchung25/anaconda3/envs/p415env/share/psi4/basis/aug-cc-pvtz-jkfit.gbs 
    atoms 3-4, 6-7, 9-10, 12-13, 15-16, 18-19 entry H          line    70 file /home/kchung25/anaconda3/envs/p415env/share/psi4/basis/aug-cc-pvtz-jkfit.gbs 

  ==> Integral Setup <==

  DFHelper Memory: AOs need 3.316 GiB; user supplied 41.910 GiB. 
  Using in-core AOs.

  ==> MemDFJK: Density-Fitted J/K Matrices <==

    J tasked:                   Yes
    K tasked:                   Yes
    wK tasked:                   No
    OpenMP threads:               6
    Memory [MiB]:             42915
    Algorithm:                 Core
    Schwarz Cutoff:           1E-12
    Mask sparsity (%):      13.5899
    Fitting Condition:        1E-10

   => Auxiliary Basis Set <=

  Basis Set: (AUG-CC-PVTZ AUX)
    Blend: AUG-CC-PVTZ-JKFIT + DEF2-UNIVERSAL-JKFIT
    Number of shells: 392
    Number of basis functions: 1336
    Number of Cartesian functions: 1649
    Spherical Harmonics?: true
    Max angular momentum: 4

  Minimum eigenvalue in the overlap matrix is 4.3760323366E-05.
  Reciprocal condition number of the overlap matrix is 3.0156768320E-06.
    Using symmetric orthogonalization.

  ==> Pre-Iterations <==

  SCF Guess: Superposition of Atomic Densities via on-the-fly atomic UHF (no occupation information).

   -------------------------
    Irrep   Nso     Nmo    
   -------------------------
     A        611     611 
   -------------------------
    Total     611     611
   -------------------------

  ==> Iterations <==

                           Total Energy        Delta E     RMS |[F,P]|

   @DF-RHF iter SAD:   -75.46836047161035   -7.54684e+01   0.00000e+00 
   @DF-RHF iter   1:   -75.97478022374557   -5.06420e-01   7.68003e-04 DIIS/ADIIS
   @DF-RHF iter   2:   -76.02685062022168   -5.20704e-02   5.16760e-04 DIIS/ADIIS
   @DF-RHF iter   3:   -76.05742529302798   -3.05747e-02   3.48382e-05 DIIS
   @DF-RHF iter   4:   -76.05781866171598   -3.93369e-04   8.44888e-06 DIIS
   @DF-RHF iter   5:   -76.05784353274217   -2.48710e-05   1.93084e-06 DIIS
   @DF-RHF iter   6:   -76.05784567526516   -2.14252e-06   4.45994e-07 DIIS
   @DF-RHF iter   7:   -76.05784580257777   -1.27313e-07   8.83656e-08 DIIS
   @DF-RHF iter   8:   -76.05784580701068   -4.43291e-09   1.40057e-08 DIIS
   @DF-RHF iter   9:   -76.05784580709805   -8.73683e-11   3.39674e-09 DIIS
  Energy and wave function converged.


  ==> Post-Iterations <==

    Orbital Energies [Eh]
    ---------------------

    Doubly Occupied:                                                      

       1A    -20.561118     2A     -1.345728     3A     -0.740054  
       4A     -0.561688     5A     -0.506675  

    Virtual:                                                              

       6A      0.006969     7A      0.009192     8A      0.009667  
       9A      0.010693    10A      0.017728    11A      0.017928  
      12A      0.018506    13A      0.018770    14A      0.018862  
      15A      0.031490    16A      0.032540    17A      0.034343  
      18A      0.038668    19A      0.054334    20A      0.056120  
      21A      0.058346    22A      0.059397    23A      0.061590  
      24A      0.072167    25A      0.073133    26A      0.075034  
      27A      0.075249    28A      0.077925    29A      0.078837  
      30A      0.079869    31A      0.080802    32A      0.082928  
      33A      0.093783    34A      0.101675    35A      0.106749  
      36A      0.110732    37A      0.119924    38A      0.134592  
      39A      0.138012    40A      0.143615    41A      0.149955  
      42A      0.151697    43A      0.153299    44A      0.160324  
      45A      0.168587    46A      0.170144    47A      0.173000  
      48A      0.178527    49A      0.182431    50A      0.187946  
      51A      0.190401    52A      0.191927    53A      0.201831  
      54A      0.202211    55A      0.208660    56A      0.212760  
      57A      0.215946    58A      0.219923    59A      0.225818  
      60A      0.234584    61A      0.239583    62A      0.246547  
      63A      0.253268    64A      0.261739    65A      0.268241  
      66A      0.277905    67A      0.282584    68A      0.285348  
      69A      0.295615    70A      0.298731    71A      0.303639  
      72A      0.310771    73A      0.312904    74A      0.324030  
      75A      0.331113    76A      0.332243    77A      0.339116  
      78A      0.344142    79A      0.349266    80A      0.354852  
      81A      0.359289    82A      0.364276    83A      0.369842  
      84A      0.376203    85A      0.377543    86A      0.380967  
      87A      0.384042    88A      0.392158    89A      0.398131  
      90A      0.399489    91A      0.402077    92A      0.411675  
      93A      0.415919    94A      0.416857    95A      0.427528  
      96A      0.429403    97A      0.432937    98A      0.440570  
      99A      0.441911   100A      0.447112   101A      0.451536  
     102A      0.457350   103A      0.458958   104A      0.465409  
     105A      0.467449   106A      0.476095   107A      0.478571  
     108A      0.485395   109A      0.487931   110A      0.493001  
     111A      0.494370   112A      0.502362   113A      0.504103  
     114A      0.508254   115A      0.514464   116A      0.520783  
     117A      0.527175   118A      0.528141   119A      0.540852  
     120A      0.548128   121A      0.559568   122A      0.566098  
     123A      0.572196   124A      0.584895   125A      0.595561  
     126A      0.600499   127A      0.606583   128A      0.610950  
     129A      0.620611   130A      0.626297   131A      0.647246  
     132A      0.660497   133A      0.679587   134A      0.698093  
     135A      0.719415   136A      0.728292   137A      0.740749  
     138A      0.746267   139A      0.757333   140A      0.763737  
     141A      0.769135   142A      0.784181   143A      0.790555  
     144A      0.797041   145A      0.799634   146A      0.805717  
     147A      0.811029   148A      0.821263   149A      0.830724  
     150A      0.837842   151A      0.839121   152A      0.850907  
     153A      0.860908   154A      0.862061   155A      0.865625  
     156A      0.869044   157A      0.875616   158A      0.879373  
     159A      0.886962   160A      0.895033   161A      0.896168  
     162A      0.907641   163A      0.913173   164A      0.916564  
     165A      0.919915   166A      0.922840   167A      0.935331  
     168A      0.942958   169A      0.945050   170A      0.949096  
     171A      0.954864   172A      0.957809   173A      0.961338  
     174A      0.967680   175A      0.974851   176A      0.976835  
     177A      0.986200   178A      0.989282   179A      0.993952  
     180A      0.999241   181A      1.010345   182A      1.014308  
     183A      1.019396   184A      1.029393   185A      1.032772  
     186A      1.040242   187A      1.046374   188A      1.049149  
     189A      1.059831   190A      1.065514   191A      1.071964  
     192A      1.076453   193A      1.082118   194A      1.085493  
     195A      1.092908   196A      1.100693   197A      1.104979  
     198A      1.118078   199A      1.123988   200A      1.130414  
     201A      1.136657   202A      1.137315   203A      1.149186  
     204A      1.154443   205A      1.159996   206A      1.165870  
     207A      1.171598   208A      1.179839   209A      1.184853  
     210A      1.189501   211A      1.195805   212A      1.199687  
     213A      1.207295   214A      1.214257   215A      1.223158  
     216A      1.228164   217A      1.231778   218A      1.234395  
     219A      1.246087   220A      1.251385   221A      1.258391  
     222A      1.263861   223A      1.277495   224A      1.283368  
     225A      1.288592   226A      1.293232   227A      1.300641  
     228A      1.302649   229A      1.311808   230A      1.327358  
     231A      1.342064   232A      1.348492   233A      1.364694  
     234A      1.374035   235A      1.377473   236A      1.386057  
     237A      1.393522   238A      1.403833   239A      1.408148  
     240A      1.434382   241A      1.440128   242A      1.453385  
     243A      1.462599   244A      1.474775   245A      1.479742  
     246A      1.484490   247A      1.495756   248A      1.524915  
     249A      1.537822   250A      1.551917   251A      1.562705  
     252A      1.584063   253A      1.605737   254A      1.615723  
     255A      1.621850   256A      1.642680   257A      1.655262  
     258A      1.675681   259A      1.686956   260A      1.693826  
     261A      1.718697   262A      1.729753   263A      1.740508  
     264A      1.777788   265A      1.788923   266A      1.792395  
     267A      1.798920   268A      1.817488   269A      1.823365  
     270A      1.825804   271A      1.851075   272A      1.857358  
     273A      1.862484   274A      1.875481   275A      1.880034  
     276A      1.888455   277A      1.892519   278A      1.908371  
     279A      1.921880   280A      1.932940   281A      1.940965  
     282A      1.948517   283A      1.954512   284A      1.960291  
     285A      1.986171   286A      1.992994   287A      2.004008  
     288A      2.010513   289A      2.035991   290A      2.060536  
     291A      2.076180   292A      2.085354   293A      2.167928  
     294A      2.174542   295A      2.210826   296A      2.228900  
     297A      2.290351   298A      2.334413   299A      2.350703  
     300A      2.375095   301A      2.390111   302A      2.407872  
     303A      2.410698   304A      2.430711   305A      2.446146  
     306A      2.452585   307A      2.471113   308A      2.472262  
     309A      2.485656   310A      2.497017   311A      2.507021  
     312A      2.522206   313A      2.534500   314A      2.540204  
     315A      2.554282   316A      2.558658   317A      2.574258  
     318A      2.586842   319A      2.592942   320A      2.594569  
     321A      2.606498   322A      2.615200   323A      2.626493  
     324A      2.634372   325A      2.644694   326A      2.657520  
     327A      2.658973   328A      2.663073   329A      2.678308  
     330A      2.683954   331A      2.695749   332A      2.704820  
     333A      2.712644   334A      2.724635   335A      2.733321  
     336A      2.743953   337A      2.753432   338A      2.773831  
     339A      2.779828   340A      2.811837   341A      2.815610  
     342A      2.829826   343A      2.838266   344A      2.856320  
     345A      2.866089   346A      2.898154   347A      2.912408  
     348A      2.926921   349A      2.930534   350A      2.935904  
     351A      2.944097   352A      2.968747   353A      2.979802  
     354A      3.001539   355A      3.014070   356A      3.020108  
     357A      3.040609   358A      3.058396   359A      3.077004  
     360A      3.124854   361A      3.136555   362A      3.197134  
     363A      3.205269   364A      3.212921   365A      3.214710  
     366A      3.240355   367A      3.247330   368A      3.255152  
     369A      3.263868   370A      3.281946   371A      3.288700  
     372A      3.313421   373A      3.317606   374A      3.329997  
     375A      3.342676   376A      3.356687   377A      3.365361  
     378A      3.373517   379A      3.387777   380A      3.398998  
     381A      3.402728   382A      3.415312   383A      3.432882  
     384A      3.465984   385A      3.486072   386A      3.512163  
     387A      3.546023   388A      3.621167   389A      3.643668  
     390A      3.656773   391A      3.685754   392A      3.742405  
     393A      3.748483   394A      3.768915   395A      3.781562  
     396A      3.810509   397A      3.816311   398A      3.858436  
     399A      3.908646   400A      4.088268   401A      4.251079  
     402A      4.293701   403A      4.329815   404A      4.361535  
     405A      4.403909   406A      4.412945   407A      4.437184  
     408A      4.437539   409A      4.449732   410A      4.464522  
     411A      4.474369   412A      4.499583   413A      4.507373  
     414A      4.512953   415A      4.529179   416A      4.530813  
     417A      4.548086   418A      4.570541   419A      4.580071  
     420A      4.583415   421A      4.605054   422A      4.611685  
     423A      4.628169   424A      4.641140   425A      4.645900  
     426A      4.656430   427A      4.662893   428A      4.682888  
     429A      4.703920   430A      4.724253   431A      4.740892  
     432A      4.746179   433A      4.759344   434A      4.761295  
     435A      4.777176   436A      4.781895   437A      4.789109  
     438A      4.799081   439A      4.821241   440A      4.828460  
     441A      4.917063   442A      4.928405   443A      4.955610  
     444A      4.967884   445A      4.985599   446A      5.005258  
     447A      5.011598   448A      5.017562   449A      5.051526  
     450A      5.076867   451A      5.105741   452A      5.119872  
     453A      5.160385   454A      5.170575   455A      5.188426  
     456A      5.197215   457A      5.211538   458A      5.214626  
     459A      5.232886   460A      5.299733   461A      5.337604  
     462A      5.343541   463A      5.386373   464A      5.411167  
     465A      5.448933   466A      5.450233   467A      5.465263  
     468A      5.503355   469A      5.510860   470A      5.525269  
     471A      5.533437   472A      5.568682   473A      5.593871  
     474A      5.623364   475A      5.636348   476A      5.663552  
     477A      5.694277   478A      5.754035   479A      5.767767  
     480A      5.777095   481A      5.781835   482A      5.816051  
     483A      5.885067   484A      5.908639   485A      5.923884  
     486A      5.998542   487A      6.094946   488A      6.159061  
     489A      6.167819   490A      6.195658   491A      6.234343  
     492A      6.246058   493A      6.275702   494A      6.328709  
     495A      6.378236   496A      6.412121   497A      6.464597  
     498A      6.602586   499A      6.634045   500A      6.641698  
     501A      6.653151   502A      6.719927   503A      6.743457  
     504A      6.750977   505A      6.820635   506A      6.986426  
     507A      6.991113   508A      7.145336   509A      7.175571  
     510A      7.178747   511A      7.245159   512A      7.281993  
     513A      7.339427   514A      7.368724   515A      7.419965  
     516A      7.564024   517A      7.657473   518A      7.697004  
     519A      7.703880   520A      7.721009   521A      7.740848  
     522A      7.748909   523A      7.778540   524A      7.815830  
     525A      7.825581   526A      7.845774   527A      7.905253  
     528A      7.933357   529A      8.050239   530A      8.069165  
     531A      8.081625   532A      8.090927   533A      8.098693  
     534A      8.108345   535A      8.134766   536A      8.181084  
     537A      8.190116   538A      8.195470   539A      8.225792  
     540A      8.235192   541A      8.280669   542A      8.316405  
     543A      8.324531   544A      8.362684   545A      8.598854  
     546A      8.637109   547A      8.655175   548A      8.731790  
     549A      8.773752   550A      8.797115   551A      8.804202  
     552A      8.872036   553A      8.879459   554A      8.895352  
     555A      8.941348   556A      9.779062   557A      9.796248  
     558A      9.821046   559A      9.866476   560A      9.881693  
     561A      9.934767   562A      9.958083   563A      9.964633  
     564A      9.984055   565A      9.996618   566A     10.032960  
     567A     10.039480   568A     10.051342   569A     10.063809  
     570A     10.079084   571A     10.157144   572A     10.217376  
     573A     10.252179   574A     10.301579   575A     10.311398  
     576A     10.533400   577A     10.922464   578A     11.018649  
     579A     11.064562   580A     11.139962   581A     11.320008  
     582A     11.712246   583A     11.721847   584A     11.736380  
     585A     11.764717   586A     11.858266   587A     11.915074  
     588A     11.929203   589A     12.264511   590A     12.315628  
     591A     12.342392   592A     13.366394   593A     13.499520  
     594A     13.526640   595A     13.611562   596A     13.717961  
     597A     13.887652   598A     13.913045   599A     13.931073  
     600A     13.978119   601A     14.022672   602A     16.343133  
     603A     30.983895   604A     31.131396   605A     31.459079  
     606A     63.376807   607A     64.044792   608A     64.951178  
     609A     65.090782   610A     65.961349   611A    198.376120  

    Final Occupation by Irrep:
              A 
    DOCC [     5 ]
    NA   [     5 ]
    NB   [     5 ]

  @DF-RHF Final Energy:   -76.05784580709805

   => Energetics <=

    Nuclear Repulsion Energy =              9.1797211999785020
    One-Electron Energy =                -123.0446040459873132
    Two-Electron Energy =                  37.8070370389107637
    Total Energy =                        -76.0578458070980474

Computation Completed


Properties will be evaluated at   0.000000,   0.000000,   0.000000 [a0]

Properties computed using the SCF density matrix


 Multipole Moments:

 ------------------------------------------------------------------------------------
     Multipole            Electronic (a.u.)      Nuclear  (a.u.)        Total (a.u.)
 ------------------------------------------------------------------------------------

 L = 1.  Multiply by 2.5417464519 to convert [e a0] to [Debye]
 Dipole X            :          8.3168391           -8.8614757           -0.5446366
 Dipole Y            :        -46.6054191           47.0230624            0.4176433
 Dipole Z            :         20.7680783          -20.6586410            0.1094374
 Magnitude           :                                                    0.6950047

 ------------------------------------------------------------------------------------

*** tstop() called on moses-razer at Wed Jan 24 18:16:16 2024
Module time:
	user time   =      63.41 seconds =       1.06 minutes
	system time =       3.22 seconds =       0.05 minutes
	total time  =         17 seconds =       0.28 minutes
Total time:
	user time   =      63.41 seconds =       1.06 minutes
	system time =       3.22 seconds =       0.05 minutes
	total time  =         17 seconds =       0.28 minutes

*** tstart() called on moses-razer
*** at Wed Jan 24 18:16:16 2024


  //>>>>>>>>>>>>>>>>>>>>>>>>>>>>>>>>>>>//
  //               DFMP2               //
  //<<<<<<<<<<<<<<<<<<<<<<<<<<<<<<<<<<<//

   => Loading Basis Set <=

    Name: (AUG-CC-PVTZ AUX)
    Role: RIFIT
    Keyword: DF_BASIS_MP2
    atoms 1                                   entry K          line  1282 file /home/kchung25/anaconda3/envs/p415env/share/psi4/basis/def2-qzvpp-ri.gbs 
    atoms 2, 5, 8, 11, 14, 17                 entry O          line   264 file /home/kchung25/anaconda3/envs/p415env/share/psi4/basis/aug-cc-pvtz-ri.gbs 
    atoms 3-4, 6-7, 9-10, 12-13, 15-16, 18-19 entry H          line    30 file /home/kchung25/anaconda3/envs/p415env/share/psi4/basis/aug-cc-pvtz-ri.gbs 

	 --------------------------------------------------------
	                          DF-MP2                         
	      2nd-Order Density-Fitted Moller-Plesset Theory     
	              RMP2 Wavefunction,   6 Threads             
	                                                         
	        Rob Parrish, Justin Turney, Andy Simmonett,      
	           Ed Hohenstein, and C. David Sherrill          
	 --------------------------------------------------------

   => Auxiliary Basis Set <=

  Basis Set: (AUG-CC-PVTZ AUX)
    Blend: AUG-CC-PVTZ-RI + DEF2-QZVPP-RI
    Number of shells: 385
    Number of basis functions: 1387
    Number of Cartesian functions: 1738
    Spherical Harmonics?: true
    Max angular momentum: 4

	 --------------------------------------------------------
	                 NBF =   611, NAUX =  1387
	 --------------------------------------------------------
	   CLASS    FOCC     OCC    AOCC    AVIR     VIR    FVIR
	   PAIRS       0       5       5     606     606       0
	 --------------------------------------------------------

	-----------------------------------------------------------
	 ==================> DF-MP2 Energies <==================== 
	-----------------------------------------------------------
	 Reference Energy          =     -76.0578458070980474 [Eh]
	 Singles Energy            =      -0.0000000000000000 [Eh]
	 Same-Spin Energy          =      -0.0683020808945810 [Eh]
	 Opposite-Spin Energy      =      -0.2150929978933583 [Eh]
	 Correlation Energy        =      -0.2833950787879393 [Eh]
	 Total Energy              =     -76.3412408858859806 [Eh]
	-----------------------------------------------------------
	 ================> DF-SCS-MP2 Energies <================== 
	-----------------------------------------------------------
	 SCS Same-Spin Scale       =       0.3333333333333333 [-]
	 SCS Opposite-Spin Scale   =       1.2000000000000000 [-]
	 SCS Same-Spin Energy      =      -0.0227673602981937 [Eh]
	 SCS Opposite-Spin Energy  =      -0.2581115974720299 [Eh]
	 SCS Correlation Energy    =      -0.2808789577702236 [Eh]
	 SCS Total Energy          =     -76.3387247648682745 [Eh]
	-----------------------------------------------------------


*** tstop() called on moses-razer at Wed Jan 24 18:16:26 2024
Module time:
	user time   =      23.84 seconds =       0.40 minutes
	system time =       1.80 seconds =       0.03 minutes
	total time  =         10 seconds =       0.17 minutes
Total time:
	user time   =      87.26 seconds =       1.45 minutes
	system time =       5.02 seconds =       0.08 minutes
	total time  =         27 seconds =       0.45 minutes

    Psi4 stopped on: Wednesday, 24 January 2024 06:16PM
    Psi4 wall time for execution: 0:00:26.52

*** Psi4 exiting successfully. Buy a developer a beer!
