
    -----------------------------------------------------------------------
          Psi4: An Open-Source Ab Initio Electronic Structure Package
                               Psi4 1.9 release

                         Git: Rev {} zzzzzzz 


    D. G. A. Smith, L. A. Burns, A. C. Simmonett, R. M. Parrish,
    M. C. Schieber, R. Galvelis, P. Kraus, H. Kruse, R. Di Remigio,
    A. Alenaizan, A. M. James, S. Lehtola, J. P. Misiewicz, M. Scheurer,
    R. A. Shaw, J. B. Schriber, Y. Xie, Z. L. Glick, D. A. Sirianni,
    J. S. O'Brien, J. M. Waldrop, A. Kumar, E. G. Hohenstein,
    B. P. Pritchard, B. R. Brooks, H. F. Schaefer III, A. Yu. Sokolov,
    K. Patkowski, A. E. DePrince III, U. Bozkaya, R. A. King,
    F. A. Evangelista, J. M. Turney, T. D. Crawford, C. D. Sherrill,
    J. Chem. Phys. 152(18) 184108 (2020). https://doi.org/10.1063/5.0006002

                            Additional Code Authors
    E. T. Seidl, C. L. Janssen, E. F. Valeev, M. L. Leininger,
    J. F. Gonthier, R. M. Richard, H. R. McAlexander, M. Saitow, X. Wang,
    P. Verma, M. H. Lechner, A. Jiang, S. Behnle, A. G. Heide,
    M. F. Herbst, and D. L. Poole

             Previous Authors, Complete List of Code Contributors,
                       and Citations for Specific Modules
    https://github.com/psi4/psi4/blob/master/codemeta.json
    https://github.com/psi4/psi4/graphs/contributors
    http://psicode.org/psi4manual/master/introduction.html#citing-psifour

    -----------------------------------------------------------------------


    Psi4 started on: Wednesday, 24 January 2024 04:00PM

    Process ID: 1229137
    Host:       moses-razer
    PSIDATADIR: /home/kchung25/anaconda3/envs/psi4_19/share/psi4
    Memory:     500.0 MiB
    Threads:    6
    
  ==> Input File <==

--------------------------------------------------------------------------
MEMORY 60 GB

molecule dimer {
0 1
Gh(K)      0.000000     0.000000     0.000000
Gh(O)     -0.347802    -2.893565    -0.197304
Gh(H)     -0.264219    -2.627410    -1.107839
Gh(H)     -1.076793    -3.520369    -0.191568
Gh(O)      0.677953     2.028113    -2.098824
Gh(H)      1.086568     2.053260    -2.956022
Gh(H)     -0.287647     1.928353    -2.270876
Gh(O)      0.133021    -0.422807     2.580598
Gh(H)      0.877410    -0.317211     3.203899
Gh(H)     -0.629250     0.024130     3.083095
Gh(O)     -2.438966     0.372415     0.851527
Gh(H)     -2.595398     1.157685     1.350948
Gh(H)     -3.271474     0.106554     0.425933
Gh(O)     -2.066921     1.281430    -1.668738
Gh(H)     -2.570671     0.992410    -2.390640
Gh(H)     -2.616813     1.957975    -1.327306
O          0.369724    -1.327390    -2.368648
H         -0.386802    -1.039991    -2.929204
H          1.195348    -0.840736    -2.656566

units ang
no_reorient
no_com
symmetry c1
}

set {
basis        aug-cc-pVTZ
scf_type     df
}

energy("mp2")
--------------------------------------------------------------------------

  Memory set to  55.879 GiB by Python driver.

Scratch directory: /scratch/
   => Libint2 <=

    Primary   basis highest AM E, G, H:  5, 4, 3
    Auxiliary basis highest AM E, G, H:  6, 5, 4
    Onebody   basis highest AM E, G, H:  6, 5, 4
    Solid Harmonics ordering:            gaussian

*** tstart() called on moses-razer
*** at Wed Jan 24 16:00:44 2024

   => Loading Basis Set <=

    Name: AUG-CC-PVTZ
    Role: ORBITAL
    Keyword: BASIS
    atoms 1                                   entry K          line  1152 file /home/kchung25/anaconda3/envs/p415env/share/psi4/basis/aug-cc-pvtz.gbs 
    atoms 2, 5, 8, 11, 14, 17                 entry O          line   331 file /home/kchung25/anaconda3/envs/p415env/share/psi4/basis/aug-cc-pvtz.gbs 
    atoms 3-4, 6-7, 9-10, 12-13, 15-16, 18-19 entry H          line    40 file /home/kchung25/anaconda3/envs/p415env/share/psi4/basis/aug-cc-pvtz.gbs 


         ---------------------------------------------------------
                                   SCF
               by Justin Turney, Rob Parrish, Andy Simmonett
                          and Daniel G. A. Smith
                              RHF Reference
                        6 Threads,  57220 MiB Core
         ---------------------------------------------------------

  ==> Geometry <==

    Molecular point group: c1
    Full point group: C1

    Geometry (in Angstrom), charge = 0, multiplicity = 1:

       Center              X                  Y                   Z               Mass       
    ------------   -----------------  -----------------  -----------------  -----------------
      Gh(K)           0.000000000000     0.000000000000     0.000000000000    38.963706486400
      Gh(O)          -0.347802000000    -2.893565000000    -0.197304000000    15.994914619570
      Gh(H)          -0.264219000000    -2.627410000000    -1.107839000000     1.007825032230
      Gh(H)          -1.076793000000    -3.520369000000    -0.191568000000     1.007825032230
      Gh(O)           0.677953000000     2.028113000000    -2.098824000000    15.994914619570
      Gh(H)           1.086568000000     2.053260000000    -2.956022000000     1.007825032230
      Gh(H)          -0.287647000000     1.928353000000    -2.270876000000     1.007825032230
      Gh(O)           0.133021000000    -0.422807000000     2.580598000000    15.994914619570
      Gh(H)           0.877410000000    -0.317211000000     3.203899000000     1.007825032230
      Gh(H)          -0.629250000000     0.024130000000     3.083095000000     1.007825032230
      Gh(O)          -2.438966000000     0.372415000000     0.851527000000    15.994914619570
      Gh(H)          -2.595398000000     1.157685000000     1.350948000000     1.007825032230
      Gh(H)          -3.271474000000     0.106554000000     0.425933000000     1.007825032230
      Gh(O)          -2.066921000000     1.281430000000    -1.668738000000    15.994914619570
      Gh(H)          -2.570671000000     0.992410000000    -2.390640000000     1.007825032230
      Gh(H)          -2.616813000000     1.957975000000    -1.327306000000     1.007825032230
         O            0.369724000000    -1.327390000000    -2.368648000000    15.994914619570
         H           -0.386802000000    -1.039991000000    -2.929204000000     1.007825032230
         H            1.195348000000    -0.840736000000    -2.656566000000     1.007825032230

  Running in c1 symmetry.

  Rotational constants: A =      0.03550  B =      0.02759  C =      0.02426 [cm^-1]
  Rotational constants: A =   1064.13865  B =    827.08309  C =    727.22158 [MHz]
  Nuclear repulsion =    8.857853762176241

  Charge       = 0
  Multiplicity = 1
  Electrons    = 10
  Nalpha       = 5
  Nbeta        = 5

  ==> Algorithm <==

  SCF Algorithm Type is DF.
  DIIS enabled.
  MOM disabled.
  Fractional occupation disabled.
  Guess Type is SAD.
  Energy threshold   = 1.00e-08
  Density threshold  = 1.00e-08
  Integral threshold = 1.00e-12

  ==> Primary Basis <==

  Basis Set: AUG-CC-PVTZ
    Blend: AUG-CC-PVTZ
    Number of shells: 211
    Number of basis functions: 611
    Number of Cartesian functions: 699
    Spherical Harmonics?: true
    Max angular momentum: 3

   => Loading Basis Set <=

    Name: (AUG-CC-PVTZ AUX)
    Role: JKFIT
    Keyword: DF_BASIS_SCF
    atoms 1                                   entry K          line  1152 file /home/kchung25/anaconda3/envs/p415env/share/psi4/basis/def2-universal-jkfit.gbs 
    atoms 2, 5, 8, 11, 14, 17                 entry O          line   286 file /home/kchung25/anaconda3/envs/p415env/share/psi4/basis/aug-cc-pvtz-jkfit.gbs 
    atoms 3-4, 6-7, 9-10, 12-13, 15-16, 18-19 entry H          line    70 file /home/kchung25/anaconda3/envs/p415env/share/psi4/basis/aug-cc-pvtz-jkfit.gbs 

  ==> Integral Setup <==

  DFHelper Memory: AOs need 3.386 GiB; user supplied 41.910 GiB. 
  Using in-core AOs.

  ==> MemDFJK: Density-Fitted J/K Matrices <==

    J tasked:                   Yes
    K tasked:                   Yes
    wK tasked:                   No
    OpenMP threads:               6
    Memory [MiB]:             42915
    Algorithm:                 Core
    Schwarz Cutoff:           1E-12
    Mask sparsity (%):      11.7191
    Fitting Condition:        1E-10

   => Auxiliary Basis Set <=

  Basis Set: (AUG-CC-PVTZ AUX)
    Blend: AUG-CC-PVTZ-JKFIT + DEF2-UNIVERSAL-JKFIT
    Number of shells: 392
    Number of basis functions: 1336
    Number of Cartesian functions: 1649
    Spherical Harmonics?: true
    Max angular momentum: 4

  Minimum eigenvalue in the overlap matrix is 2.7900112167E-05.
  Reciprocal condition number of the overlap matrix is 1.7666722069E-06.
    Using symmetric orthogonalization.

  ==> Pre-Iterations <==

  SCF Guess: Superposition of Atomic Densities via on-the-fly atomic UHF (no occupation information).

   -------------------------
    Irrep   Nso     Nmo    
   -------------------------
     A        611     611 
   -------------------------
    Total     611     611
   -------------------------

  ==> Iterations <==

                           Total Energy        Delta E     RMS |[F,P]|

   @DF-RHF iter SAD:   -75.43209422510523   -7.54321e+01   0.00000e+00 
   @DF-RHF iter   1:   -75.96998843485729   -5.37894e-01   7.63020e-04 ADIIS/DIIS
   @DF-RHF iter   2:   -76.02128338747789   -5.12950e-02   5.37513e-04 ADIIS/DIIS
   @DF-RHF iter   3:   -76.05502376377423   -3.37404e-02   3.67557e-05 DIIS
   @DF-RHF iter   4:   -76.05546843929618   -4.44676e-04   9.48133e-06 DIIS
   @DF-RHF iter   5:   -76.05550108907386   -3.26498e-05   2.21116e-06 DIIS
   @DF-RHF iter   6:   -76.05550391857525   -2.82950e-06   4.96644e-07 DIIS
   @DF-RHF iter   7:   -76.05550407419945   -1.55624e-07   9.23737e-08 DIIS
   @DF-RHF iter   8:   -76.05550407888067   -4.68123e-09   1.61765e-08 DIIS
   @DF-RHF iter   9:   -76.05550407899995   -1.19272e-10   4.30153e-09 DIIS
  Energy and wave function converged.


  ==> Post-Iterations <==

    Orbital Energies [Eh]
    ---------------------

    Doubly Occupied:                                                      

       1A    -20.570834     2A     -1.332978     3A     -0.706928  
       4A     -0.569184     5A     -0.506033  

    Virtual:                                                              

       6A      0.006463     7A      0.009280     8A      0.009452  
       9A      0.010773    10A      0.017652    11A      0.017837  
      12A      0.018554    13A      0.018678    14A      0.019028  
      15A      0.029967    16A      0.033217    17A      0.034326  
      18A      0.038324    19A      0.052727    20A      0.055348  
      21A      0.058071    22A      0.059102    23A      0.061381  
      24A      0.069795    25A      0.072255    26A      0.073107  
      27A      0.075240    28A      0.076584    29A      0.078430  
      30A      0.079954    31A      0.085139    32A      0.088756  
      33A      0.094276    34A      0.100863    35A      0.101267  
      36A      0.107005    37A      0.117461    38A      0.124963  
      39A      0.138396    40A      0.146631    41A      0.147848  
      42A      0.155599    43A      0.159385    44A      0.162091  
      45A      0.164778    46A      0.166146    47A      0.173497  
      48A      0.176598    49A      0.181427    50A      0.184998  
      51A      0.188814    52A      0.193235    53A      0.199006  
      54A      0.203909    55A      0.206096    56A      0.214093  
      57A      0.215785    58A      0.223237    59A      0.225979  
      60A      0.230186    61A      0.240256    62A      0.242961  
      63A      0.249958    64A      0.251478    65A      0.256822  
      66A      0.266573    67A      0.274932    68A      0.280308  
      69A      0.289048    70A      0.292847    71A      0.302038  
      72A      0.304392    73A      0.318476    74A      0.319609  
      75A      0.330229    76A      0.331701    77A      0.338059  
      78A      0.341876    79A      0.349903    80A      0.352240  
      81A      0.357029    82A      0.362875    83A      0.365714  
      84A      0.372358    85A      0.375902    86A      0.383778  
      87A      0.390973    88A      0.391561    89A      0.395451  
      90A      0.402919    91A      0.409883    92A      0.415404  
      93A      0.419772    94A      0.424313    95A      0.425010  
      96A      0.430189    97A      0.436451    98A      0.438472  
      99A      0.445056   100A      0.456552   101A      0.460635  
     102A      0.463735   103A      0.466162   104A      0.471755  
     105A      0.473849   106A      0.479368   107A      0.483758  
     108A      0.489725   109A      0.495838   110A      0.497583  
     111A      0.501244   112A      0.505642   113A      0.509392  
     114A      0.516171   115A      0.519793   116A      0.525418  
     117A      0.530286   118A      0.537047   119A      0.541848  
     120A      0.551625   121A      0.555233   122A      0.566962  
     123A      0.570370   124A      0.584226   125A      0.590874  
     126A      0.598401   127A      0.610258   128A      0.619113  
     129A      0.623780   130A      0.637063   131A      0.646839  
     132A      0.663718   133A      0.679678   134A      0.713542  
     135A      0.722772   136A      0.734450   137A      0.742572  
     138A      0.753694   139A      0.761254   140A      0.770479  
     141A      0.775959   142A      0.777207   143A      0.797715  
     144A      0.803988   145A      0.807909   146A      0.819634  
     147A      0.827727   148A      0.830143   149A      0.845602  
     150A      0.853148   151A      0.855312   152A      0.858630  
     153A      0.863424   154A      0.867877   155A      0.880028  
     156A      0.884752   157A      0.888620   158A      0.889707  
     159A      0.899943   160A      0.904842   161A      0.909453  
     162A      0.910545   163A      0.914262   164A      0.918453  
     165A      0.928161   166A      0.933033   167A      0.941111  
     168A      0.946553   169A      0.956293   170A      0.959666  
     171A      0.966270   172A      0.970164   173A      0.972227  
     174A      0.978996   175A      0.983054   176A      0.990011  
     177A      0.993256   178A      1.001377   179A      1.004293  
     180A      1.011673   181A      1.021083   182A      1.025605  
     183A      1.031956   184A      1.037420   185A      1.038365  
     186A      1.045441   187A      1.053573   188A      1.056959  
     189A      1.071865   190A      1.076081   191A      1.084671  
     192A      1.090728   193A      1.094688   194A      1.100035  
     195A      1.107364   196A      1.111667   197A      1.114346  
     198A      1.123810   199A      1.131997   200A      1.140923  
     201A      1.143705   202A      1.148844   203A      1.162727  
     204A      1.165563   205A      1.171383   206A      1.176557  
     207A      1.187430   208A      1.192990   209A      1.209678  
     210A      1.211491   211A      1.213788   212A      1.222702  
     213A      1.233279   214A      1.236644   215A      1.240533  
     216A      1.244806   217A      1.253619   218A      1.265931  
     219A      1.272571   220A      1.274116   221A      1.291853  
     222A      1.297428   223A      1.308009   224A      1.316935  
     225A      1.317672   226A      1.322712   227A      1.326787  
     228A      1.342239   229A      1.351409   230A      1.359833  
     231A      1.369150   232A      1.376746   233A      1.384813  
     234A      1.404480   235A      1.406242   236A      1.423474  
     237A      1.440461   238A      1.458199   239A      1.472616  
     240A      1.475826   241A      1.487237   242A      1.508428  
     243A      1.517450   244A      1.519196   245A      1.526784  
     246A      1.541424   247A      1.548770   248A      1.567942  
     249A      1.574685   250A      1.588674   251A      1.621862  
     252A      1.632137   253A      1.655139   254A      1.664045  
     255A      1.673303   256A      1.697097   257A      1.703607  
     258A      1.721954   259A      1.728944   260A      1.756234  
     261A      1.771437   262A      1.780816   263A      1.788080  
     264A      1.794787   265A      1.806709   266A      1.815629  
     267A      1.830087   268A      1.841238   269A      1.849989  
     270A      1.854770   271A      1.867017   272A      1.878139  
     273A      1.885236   274A      1.894193   275A      1.902954  
     276A      1.926569   277A      1.936683   278A      1.947618  
     279A      1.951276   280A      1.959601   281A      1.977172  
     282A      1.992670   283A      2.004314   284A      2.014568  
     285A      2.041482   286A      2.050297   287A      2.053492  
     288A      2.073312   289A      2.084458   290A      2.110155  
     291A      2.135111   292A      2.164627   293A      2.174354  
     294A      2.246975   295A      2.254836   296A      2.291239  
     297A      2.304882   298A      2.383728   299A      2.397794  
     300A      2.408830   301A      2.424035   302A      2.443657  
     303A      2.456026   304A      2.469190   305A      2.482363  
     306A      2.490014   307A      2.494418   308A      2.510647  
     309A      2.522158   310A      2.526880   311A      2.539062  
     312A      2.556436   313A      2.566550   314A      2.575832  
     315A      2.584281   316A      2.587944   317A      2.603043  
     318A      2.610265   319A      2.612519   320A      2.620086  
     321A      2.624319   322A      2.635331   323A      2.638929  
     324A      2.652175   325A      2.672283   326A      2.684812  
     327A      2.695101   328A      2.697940   329A      2.720333  
     330A      2.724898   331A      2.729138   332A      2.737846  
     333A      2.760535   334A      2.779356   335A      2.788097  
     336A      2.797374   337A      2.806107   338A      2.814257  
     339A      2.832268   340A      2.847531   341A      2.862268  
     342A      2.875572   343A      2.886471   344A      2.903856  
     345A      2.908074   346A      2.934740   347A      2.944800  
     348A      2.951982   349A      2.961112   350A      2.971667  
     351A      2.989833   352A      3.010482   353A      3.023350  
     354A      3.028688   355A      3.051734   356A      3.066687  
     357A      3.086510   358A      3.121894   359A      3.166999  
     360A      3.185142   361A      3.214861   362A      3.230310  
     363A      3.246268   364A      3.265384   365A      3.269824  
     366A      3.280906   367A      3.298750   368A      3.308391  
     369A      3.316260   370A      3.320383   371A      3.334394  
     372A      3.345153   373A      3.358071   374A      3.377799  
     375A      3.391692   376A      3.402217   377A      3.415786  
     378A      3.436157   379A      3.450415   380A      3.461275  
     381A      3.481454   382A      3.505746   383A      3.517304  
     384A      3.564293   385A      3.576275   386A      3.583747  
     387A      3.608384   388A      3.645445   389A      3.697070  
     390A      3.735470   391A      3.747600   392A      3.774638  
     393A      3.777098   394A      3.795921   395A      3.812298  
     396A      3.850390   397A      3.901354   398A      3.910422  
     399A      4.017007   400A      4.135945   401A      4.279825  
     402A      4.329363   403A      4.372803   404A      4.385831  
     405A      4.424337   406A      4.438746   407A      4.451114  
     408A      4.463228   409A      4.486559   410A      4.497851  
     411A      4.515588   412A      4.526497   413A      4.538980  
     414A      4.550600   415A      4.562745   416A      4.570826  
     417A      4.576302   418A      4.598340   419A      4.607108  
     420A      4.620347   421A      4.637581   422A      4.655037  
     423A      4.660368   424A      4.693031   425A      4.696766  
     426A      4.710761   427A      4.722693   428A      4.734689  
     429A      4.738781   430A      4.748150   431A      4.770685  
     432A      4.779172   433A      4.796069   434A      4.805609  
     435A      4.819746   436A      4.831526   437A      4.862182  
     438A      4.886242   439A      4.916402   440A      4.956507  
     441A      4.963732   442A      4.977407   443A      4.977860  
     444A      4.988133   445A      5.002895   446A      5.018545  
     447A      5.041454   448A      5.074302   449A      5.077962  
     450A      5.113873   451A      5.137569   452A      5.167784  
     453A      5.168245   454A      5.179918   455A      5.207088  
     456A      5.218046   457A      5.243660   458A      5.294040  
     459A      5.317944   460A      5.341085   461A      5.370855  
     462A      5.394112   463A      5.415471   464A      5.441009  
     465A      5.451933   466A      5.463462   467A      5.472804  
     468A      5.520258   469A      5.549109   470A      5.586097  
     471A      5.607263   472A      5.639819   473A      5.663399  
     474A      5.677672   475A      5.694822   476A      5.740176  
     477A      5.751543   478A      5.807149   479A      5.812024  
     480A      5.834474   481A      5.865395   482A      5.909264  
     483A      5.921634   484A      5.930250   485A      6.005025  
     486A      6.064265   487A      6.143798   488A      6.197250  
     489A      6.201758   490A      6.254643   491A      6.286171  
     492A      6.357387   493A      6.364120   494A      6.433024  
     495A      6.438961   496A      6.516447   497A      6.605950  
     498A      6.660259   499A      6.700394   500A      6.740105  
     501A      6.776380   502A      6.838341   503A      6.878215  
     504A      6.948846   505A      6.952288   506A      7.100920  
     507A      7.113242   508A      7.167686   509A      7.175754  
     510A      7.195577   511A      7.281638   512A      7.303009  
     513A      7.385634   514A      7.397295   515A      7.435995  
     516A      7.542957   517A      7.695430   518A      7.709665  
     519A      7.734843   520A      7.744410   521A      7.783017  
     522A      7.814770   523A      7.820322   524A      7.840884  
     525A      7.851690   526A      7.883014   527A      7.918407  
     528A      7.956237   529A      8.026058   530A      8.036682  
     531A      8.079062   532A      8.096874   533A      8.156818  
     534A      8.164638   535A      8.213042   536A      8.226564  
     537A      8.239683   538A      8.256946   539A      8.270493  
     540A      8.310758   541A      8.324661   542A      8.336586  
     543A      8.377072   544A      8.432780   545A      8.568519  
     546A      8.670149   547A      8.730790   548A      8.823366  
     549A      8.836343   550A      8.863588   551A      8.927903  
     552A      8.951082   553A      8.955683   554A      9.048342  
     555A      9.069559   556A      9.784589   557A      9.805100  
     558A      9.836142   559A      9.878016   560A      9.948368  
     561A      9.952917   562A      9.973958   563A      9.988373  
     564A     10.017475   565A     10.036888   566A     10.063122  
     567A     10.076873   568A     10.112666   569A     10.120331  
     570A     10.142125   571A     10.223706   572A     10.258482  
     573A     10.285646   574A     10.370537   575A     10.378164  
     576A     10.519926   577A     11.003433   578A     11.178875  
     579A     11.206357   580A     11.311777   581A     11.508684  
     582A     11.657503   583A     11.781050   584A     11.794330  
     585A     11.830878   586A     11.865259   587A     12.144251  
     588A     12.205128   589A     12.295454   590A     12.333920  
     591A     12.831251   592A     13.420483   593A     13.662997  
     594A     13.674741   595A     13.754257   596A     13.892517  
     597A     13.934166   598A     13.952697   599A     13.976952  
     600A     14.009037   601A     14.025654   602A     15.739431  
     603A     30.984727   604A     31.219765   605A     31.617310  
     606A     63.223383   607A     65.498288   608A     65.942999  
     609A     66.497892   610A     68.153825   611A    198.326407  

    Final Occupation by Irrep:
              A 
    DOCC [     5 ]
    NA   [     5 ]
    NB   [     5 ]

  @DF-RHF Final Energy:   -76.05550407899995

   => Energetics <=

    Nuclear Repulsion Energy =              8.8578537621762408
    One-Electron Energy =                -122.4547968761951608
    Two-Electron Energy =                  37.5414390350189819
    Total Energy =                        -76.0555040789999452

Computation Completed


Properties will be evaluated at   0.000000,   0.000000,   0.000000 [a0]

Properties computed using the SCF density matrix


 Multipole Moments:

 ------------------------------------------------------------------------------------
     Multipole            Electronic (a.u.)      Nuclear  (a.u.)        Total (a.u.)
 ------------------------------------------------------------------------------------

 L = 1.  Multiply by 2.5417464519 to convert [e a0] to [Debye]
 Dipole X            :         -7.0739963            7.1173473            0.0433510
 Dipole Y            :         24.1315087          -23.6212874            0.5102213
 Dipole Z            :         45.8040438          -46.3643436           -0.5602997
 Magnitude           :                                                    0.7590394

 ------------------------------------------------------------------------------------

*** tstop() called on moses-razer at Wed Jan 24 16:01:01 2024
Module time:
	user time   =      64.74 seconds =       1.08 minutes
	system time =       3.11 seconds =       0.05 minutes
	total time  =         17 seconds =       0.28 minutes
Total time:
	user time   =      64.74 seconds =       1.08 minutes
	system time =       3.11 seconds =       0.05 minutes
	total time  =         17 seconds =       0.28 minutes

*** tstart() called on moses-razer
*** at Wed Jan 24 16:01:01 2024


  //>>>>>>>>>>>>>>>>>>>>>>>>>>>>>>>>>>>//
  //               DFMP2               //
  //<<<<<<<<<<<<<<<<<<<<<<<<<<<<<<<<<<<//

   => Loading Basis Set <=

    Name: (AUG-CC-PVTZ AUX)
    Role: RIFIT
    Keyword: DF_BASIS_MP2
    atoms 1                                   entry K          line  1282 file /home/kchung25/anaconda3/envs/p415env/share/psi4/basis/def2-qzvpp-ri.gbs 
    atoms 2, 5, 8, 11, 14, 17                 entry O          line   264 file /home/kchung25/anaconda3/envs/p415env/share/psi4/basis/aug-cc-pvtz-ri.gbs 
    atoms 3-4, 6-7, 9-10, 12-13, 15-16, 18-19 entry H          line    30 file /home/kchung25/anaconda3/envs/p415env/share/psi4/basis/aug-cc-pvtz-ri.gbs 

	 --------------------------------------------------------
	                          DF-MP2                         
	      2nd-Order Density-Fitted Moller-Plesset Theory     
	              RMP2 Wavefunction,   6 Threads             
	                                                         
	        Rob Parrish, Justin Turney, Andy Simmonett,      
	           Ed Hohenstein, and C. David Sherrill          
	 --------------------------------------------------------

   => Auxiliary Basis Set <=

  Basis Set: (AUG-CC-PVTZ AUX)
    Blend: AUG-CC-PVTZ-RI + DEF2-QZVPP-RI
    Number of shells: 385
    Number of basis functions: 1387
    Number of Cartesian functions: 1738
    Spherical Harmonics?: true
    Max angular momentum: 4

	 --------------------------------------------------------
	                 NBF =   611, NAUX =  1387
	 --------------------------------------------------------
	   CLASS    FOCC     OCC    AOCC    AVIR     VIR    FVIR
	   PAIRS       0       5       5     606     606       0
	 --------------------------------------------------------

	-----------------------------------------------------------
	 ==================> DF-MP2 Energies <==================== 
	-----------------------------------------------------------
	 Reference Energy          =     -76.0555040789999452 [Eh]
	 Singles Energy            =      -0.0000000000000000 [Eh]
	 Same-Spin Energy          =      -0.0689791673626826 [Eh]
	 Opposite-Spin Energy      =      -0.2178144234256718 [Eh]
	 Correlation Energy        =      -0.2867935907883545 [Eh]
	 Total Energy              =     -76.3422976697882945 [Eh]
	-----------------------------------------------------------
	 ================> DF-SCS-MP2 Energies <================== 
	-----------------------------------------------------------
	 SCS Same-Spin Scale       =       0.3333333333333333 [-]
	 SCS Opposite-Spin Scale   =       1.2000000000000000 [-]
	 SCS Same-Spin Energy      =      -0.0229930557875609 [Eh]
	 SCS Opposite-Spin Energy  =      -0.2613773081108062 [Eh]
	 SCS Correlation Energy    =      -0.2843703638983671 [Eh]
	 SCS Total Energy          =     -76.3398744428983065 [Eh]
	-----------------------------------------------------------


*** tstop() called on moses-razer at Wed Jan 24 16:01:11 2024
Module time:
	user time   =      23.84 seconds =       0.40 minutes
	system time =       1.79 seconds =       0.03 minutes
	total time  =         10 seconds =       0.17 minutes
Total time:
	user time   =      88.59 seconds =       1.48 minutes
	system time =       4.90 seconds =       0.08 minutes
	total time  =         27 seconds =       0.45 minutes

    Psi4 stopped on: Wednesday, 24 January 2024 04:01PM
    Psi4 wall time for execution: 0:00:26.75

*** Psi4 exiting successfully. Buy a developer a beer!
