
    -----------------------------------------------------------------------
          Psi4: An Open-Source Ab Initio Electronic Structure Package
                               Psi4 1.9 release

                         Git: Rev {} zzzzzzz 


    D. G. A. Smith, L. A. Burns, A. C. Simmonett, R. M. Parrish,
    M. C. Schieber, R. Galvelis, P. Kraus, H. Kruse, R. Di Remigio,
    A. Alenaizan, A. M. James, S. Lehtola, J. P. Misiewicz, M. Scheurer,
    R. A. Shaw, J. B. Schriber, Y. Xie, Z. L. Glick, D. A. Sirianni,
    J. S. O'Brien, J. M. Waldrop, A. Kumar, E. G. Hohenstein,
    B. P. Pritchard, B. R. Brooks, H. F. Schaefer III, A. Yu. Sokolov,
    K. Patkowski, A. E. DePrince III, U. Bozkaya, R. A. King,
    F. A. Evangelista, J. M. Turney, T. D. Crawford, C. D. Sherrill,
    J. Chem. Phys. 152(18) 184108 (2020). https://doi.org/10.1063/5.0006002

                            Additional Code Authors
    E. T. Seidl, C. L. Janssen, E. F. Valeev, M. L. Leininger,
    J. F. Gonthier, R. M. Richard, H. R. McAlexander, M. Saitow, X. Wang,
    P. Verma, M. H. Lechner, A. Jiang, S. Behnle, A. G. Heide,
    M. F. Herbst, and D. L. Poole

             Previous Authors, Complete List of Code Contributors,
                       and Citations for Specific Modules
    https://github.com/psi4/psi4/blob/master/codemeta.json
    https://github.com/psi4/psi4/graphs/contributors
    http://psicode.org/psi4manual/master/introduction.html#citing-psifour

    -----------------------------------------------------------------------


    Psi4 started on: Wednesday, 24 January 2024 06:29PM

    Process ID: 1247546
    Host:       moses-razer
    PSIDATADIR: /home/kchung25/anaconda3/envs/psi4_19/share/psi4
    Memory:     500.0 MiB
    Threads:    6
    
  ==> Input File <==

--------------------------------------------------------------------------
MEMORY 60 GB

molecule dimer {
0 1
Gh(K)      0.000000     0.000000     0.000000
Gh(O)     -1.265699    -2.742015    -0.100037
Gh(H)     -2.179241    -2.698658     0.327361
Gh(H)     -1.419350    -2.792292    -1.054146
Gh(O)      1.272599    -1.329958     1.835236
Gh(H)      1.045544    -2.218621     1.644981
Gh(H)      1.990525    -1.335279     2.504667
O         -2.112318     0.381367     2.020921
H         -3.046245     0.751485     2.160738
H         -1.624816     1.165296     2.260813
Gh(O)      0.975616     1.537608    -2.344587
Gh(H)      1.718704     1.125633    -2.807348
Gh(H)      1.478579     2.238025    -1.771565
Gh(O)     -2.703279     0.101022    -1.389176
Gh(H)     -3.313767     0.118266    -0.654596
Gh(H)     -2.877541     0.906785    -1.885854
Gh(O)      1.701775    -1.458525    -1.511955
Gh(H)      1.521016    -2.311011    -1.145006
Gh(H)      1.247312    -1.424578    -2.334159

units ang
no_reorient
no_com
symmetry c1
}

set {
basis        aug-cc-pVTZ
scf_type     df
}

energy("mp2")
--------------------------------------------------------------------------

  Memory set to  55.879 GiB by Python driver.

Scratch directory: /scratch/
   => Libint2 <=

    Primary   basis highest AM E, G, H:  5, 4, 3
    Auxiliary basis highest AM E, G, H:  6, 5, 4
    Onebody   basis highest AM E, G, H:  6, 5, 4
    Solid Harmonics ordering:            gaussian

*** tstart() called on moses-razer
*** at Wed Jan 24 18:29:51 2024

   => Loading Basis Set <=

    Name: AUG-CC-PVTZ
    Role: ORBITAL
    Keyword: BASIS
    atoms 1                                   entry K          line  1152 file /home/kchung25/anaconda3/envs/p415env/share/psi4/basis/aug-cc-pvtz.gbs 
    atoms 2, 5, 8, 11, 14, 17                 entry O          line   331 file /home/kchung25/anaconda3/envs/p415env/share/psi4/basis/aug-cc-pvtz.gbs 
    atoms 3-4, 6-7, 9-10, 12-13, 15-16, 18-19 entry H          line    40 file /home/kchung25/anaconda3/envs/p415env/share/psi4/basis/aug-cc-pvtz.gbs 


         ---------------------------------------------------------
                                   SCF
               by Justin Turney, Rob Parrish, Andy Simmonett
                          and Daniel G. A. Smith
                              RHF Reference
                        6 Threads,  57220 MiB Core
         ---------------------------------------------------------

  ==> Geometry <==

    Molecular point group: c1
    Full point group: C1

    Geometry (in Angstrom), charge = 0, multiplicity = 1:

       Center              X                  Y                   Z               Mass       
    ------------   -----------------  -----------------  -----------------  -----------------
      Gh(K)           0.000000000000     0.000000000000     0.000000000000    38.963706486400
      Gh(O)          -1.265699000000    -2.742015000000    -0.100037000000    15.994914619570
      Gh(H)          -2.179241000000    -2.698658000000     0.327361000000     1.007825032230
      Gh(H)          -1.419350000000    -2.792292000000    -1.054146000000     1.007825032230
      Gh(O)           1.272599000000    -1.329958000000     1.835236000000    15.994914619570
      Gh(H)           1.045544000000    -2.218621000000     1.644981000000     1.007825032230
      Gh(H)           1.990525000000    -1.335279000000     2.504667000000     1.007825032230
         O           -2.112318000000     0.381367000000     2.020921000000    15.994914619570
         H           -3.046245000000     0.751485000000     2.160738000000     1.007825032230
         H           -1.624816000000     1.165296000000     2.260813000000     1.007825032230
      Gh(O)           0.975616000000     1.537608000000    -2.344587000000    15.994914619570
      Gh(H)           1.718704000000     1.125633000000    -2.807348000000     1.007825032230
      Gh(H)           1.478579000000     2.238025000000    -1.771565000000     1.007825032230
      Gh(O)          -2.703279000000     0.101022000000    -1.389176000000    15.994914619570
      Gh(H)          -3.313767000000     0.118266000000    -0.654596000000     1.007825032230
      Gh(H)          -2.877541000000     0.906785000000    -1.885854000000     1.007825032230
      Gh(O)           1.701775000000    -1.458525000000    -1.511955000000    15.994914619570
      Gh(H)           1.521016000000    -2.311011000000    -1.145006000000     1.007825032230
      Gh(H)           1.247312000000    -1.424578000000    -2.334159000000     1.007825032230

  Running in c1 symmetry.

  Rotational constants: A =      0.03152  B =      0.02724  C =      0.02374 [cm^-1]
  Rotational constants: A =    944.85418  B =    816.60378  C =    711.75823 [MHz]
  Nuclear repulsion =    8.968899085137114

  Charge       = 0
  Multiplicity = 1
  Electrons    = 10
  Nalpha       = 5
  Nbeta        = 5

  ==> Algorithm <==

  SCF Algorithm Type is DF.
  DIIS enabled.
  MOM disabled.
  Fractional occupation disabled.
  Guess Type is SAD.
  Energy threshold   = 1.00e-08
  Density threshold  = 1.00e-08
  Integral threshold = 1.00e-12

  ==> Primary Basis <==

  Basis Set: AUG-CC-PVTZ
    Blend: AUG-CC-PVTZ
    Number of shells: 211
    Number of basis functions: 611
    Number of Cartesian functions: 699
    Spherical Harmonics?: true
    Max angular momentum: 3

   => Loading Basis Set <=

    Name: (AUG-CC-PVTZ AUX)
    Role: JKFIT
    Keyword: DF_BASIS_SCF
    atoms 1                                   entry K          line  1152 file /home/kchung25/anaconda3/envs/p415env/share/psi4/basis/def2-universal-jkfit.gbs 
    atoms 2, 5, 8, 11, 14, 17                 entry O          line   286 file /home/kchung25/anaconda3/envs/p415env/share/psi4/basis/aug-cc-pvtz-jkfit.gbs 
    atoms 3-4, 6-7, 9-10, 12-13, 15-16, 18-19 entry H          line    70 file /home/kchung25/anaconda3/envs/p415env/share/psi4/basis/aug-cc-pvtz-jkfit.gbs 

  ==> Integral Setup <==

  DFHelper Memory: AOs need 3.340 GiB; user supplied 41.910 GiB. 
  Using in-core AOs.

  ==> MemDFJK: Density-Fitted J/K Matrices <==

    J tasked:                   Yes
    K tasked:                   Yes
    wK tasked:                   No
    OpenMP threads:               6
    Memory [MiB]:             42915
    Algorithm:                 Core
    Schwarz Cutoff:           1E-12
    Mask sparsity (%):      12.9567
    Fitting Condition:        1E-10

   => Auxiliary Basis Set <=

  Basis Set: (AUG-CC-PVTZ AUX)
    Blend: AUG-CC-PVTZ-JKFIT + DEF2-UNIVERSAL-JKFIT
    Number of shells: 392
    Number of basis functions: 1336
    Number of Cartesian functions: 1649
    Spherical Harmonics?: true
    Max angular momentum: 4

  Minimum eigenvalue in the overlap matrix is 5.6195183930E-05.
  Reciprocal condition number of the overlap matrix is 3.7982176032E-06.
    Using symmetric orthogonalization.

  ==> Pre-Iterations <==

  SCF Guess: Superposition of Atomic Densities via on-the-fly atomic UHF (no occupation information).

   -------------------------
    Irrep   Nso     Nmo    
   -------------------------
     A        611     611 
   -------------------------
    Total     611     611
   -------------------------

  ==> Iterations <==

                           Total Energy        Delta E     RMS |[F,P]|

   @DF-RHF iter SAD:   -75.45322748645442   -7.54532e+01   0.00000e+00 
   @DF-RHF iter   1:   -75.96797956005608   -5.14752e-01   7.66073e-04 DIIS/ADIIS
   @DF-RHF iter   2:   -76.02005238292170   -5.20728e-02   5.41482e-04 DIIS/ADIIS
   @DF-RHF iter   3:   -76.05431257942493   -3.42602e-02   3.68137e-05 DIIS
   @DF-RHF iter   4:   -76.05473844833691   -4.25869e-04   9.42298e-06 DIIS
   @DF-RHF iter   5:   -76.05477017618848   -3.17279e-05   2.26404e-06 DIIS
   @DF-RHF iter   6:   -76.05477299610314   -2.81991e-06   4.87080e-07 DIIS
   @DF-RHF iter   7:   -76.05477313420162   -1.38098e-07   7.86511e-08 DIIS
   @DF-RHF iter   8:   -76.05477313724590   -3.04428e-09   1.34718e-08 DIIS
   @DF-RHF iter   9:   -76.05477313731573   -6.98321e-11   3.27348e-09 DIIS
  Energy and wave function converged.


  ==> Post-Iterations <==

    Orbital Energies [Eh]
    ---------------------

    Doubly Occupied:                                                      

       1A    -20.574450     2A     -1.345643     3A     -0.690929  
       4A     -0.592311     5A     -0.510274  

    Virtual:                                                              

       6A      0.006399     7A      0.009208     8A      0.009778  
       9A      0.010837    10A      0.017426    11A      0.018128  
      12A      0.018381    13A      0.018872    14A      0.019005  
      15A      0.031096    16A      0.033231    17A      0.034618  
      18A      0.038611    19A      0.052440    20A      0.057079  
      21A      0.057767    22A      0.058817    23A      0.061214  
      24A      0.069497    25A      0.073639    26A      0.075338  
      27A      0.076519    28A      0.079108    29A      0.079759  
      30A      0.082097    31A      0.084573    32A      0.087214  
      33A      0.094083    34A      0.099749    35A      0.102368  
      36A      0.108231    37A      0.118169    38A      0.134609  
      39A      0.141140    40A      0.144745    41A      0.148291  
      42A      0.153761    43A      0.160465    44A      0.164310  
      45A      0.165607    46A      0.170648    47A      0.173250  
      48A      0.180716    49A      0.185389    50A      0.186340  
      51A      0.186977    52A      0.192369    53A      0.195361  
      54A      0.199484    55A      0.202211    56A      0.212668  
      57A      0.213701    58A      0.224593    59A      0.229609  
      60A      0.238520    61A      0.241181    62A      0.244433  
      63A      0.250431    64A      0.255534    65A      0.262063  
      66A      0.267518    67A      0.274251    68A      0.281051  
      69A      0.283609    70A      0.288911    71A      0.297407  
      72A      0.302896    73A      0.314304    74A      0.318937  
      75A      0.323363    76A      0.328214    77A      0.339249  
      78A      0.343282    79A      0.345921    80A      0.348928  
      81A      0.357820    82A      0.360291    83A      0.361225  
      84A      0.374220    85A      0.376026    86A      0.379970  
      87A      0.383048    88A      0.384686    89A      0.392982  
      90A      0.397986    91A      0.398565    92A      0.408628  
      93A      0.412259    94A      0.417453    95A      0.423236  
      96A      0.427838    97A      0.435759    98A      0.441046  
      99A      0.447350   100A      0.448480   101A      0.452954  
     102A      0.458393   103A      0.459866   104A      0.464081  
     105A      0.467742   106A      0.471202   107A      0.478322  
     108A      0.481733   109A      0.486371   110A      0.491422  
     111A      0.497556   112A      0.498492   113A      0.503703  
     114A      0.504801   115A      0.508738   116A      0.520149  
     117A      0.526218   118A      0.529585   119A      0.531224  
     120A      0.535009   121A      0.541981   122A      0.547299  
     123A      0.562042   124A      0.569420   125A      0.577093  
     126A      0.591766   127A      0.597828   128A      0.600362  
     129A      0.627540   130A      0.632346   131A      0.651284  
     132A      0.653189   133A      0.661856   134A      0.684672  
     135A      0.704594   136A      0.721997   137A      0.731998  
     138A      0.737041   139A      0.748786   140A      0.756380  
     141A      0.762454   142A      0.765912   143A      0.767352  
     144A      0.783542   145A      0.795628   146A      0.804987  
     147A      0.807541   148A      0.821069   149A      0.830473  
     150A      0.841135   151A      0.846606   152A      0.848936  
     153A      0.851370   154A      0.861230   155A      0.862855  
     156A      0.870355   157A      0.879054   158A      0.880907  
     159A      0.882407   160A      0.892150   161A      0.901130  
     162A      0.905469   163A      0.915204   164A      0.919964  
     165A      0.924240   166A      0.928790   167A      0.933114  
     168A      0.939295   169A      0.942547   170A      0.946439  
     171A      0.950465   172A      0.955744   173A      0.964310  
     174A      0.965247   175A      0.978671   176A      0.982125  
     177A      0.989746   178A      0.992222   179A      0.997020  
     180A      1.002701   181A      1.011446   182A      1.016008  
     183A      1.022904   184A      1.030722   185A      1.039001  
     186A      1.044392   187A      1.049346   188A      1.054571  
     189A      1.065331   190A      1.068933   191A      1.072620  
     192A      1.078386   193A      1.083771   194A      1.089262  
     195A      1.099741   196A      1.103961   197A      1.106704  
     198A      1.112922   199A      1.122075   200A      1.128001  
     201A      1.129784   202A      1.132219   203A      1.134828  
     204A      1.142509   205A      1.152524   206A      1.157861  
     207A      1.168545   208A      1.172451   209A      1.175552  
     210A      1.182665   211A      1.184183   212A      1.192906  
     213A      1.204830   214A      1.211852   215A      1.219977  
     216A      1.227059   217A      1.238324   218A      1.243333  
     219A      1.249970   220A      1.261559   221A      1.262864  
     222A      1.270687   223A      1.275192   224A      1.282850  
     225A      1.291614   226A      1.296746   227A      1.303465  
     228A      1.311237   229A      1.318535   230A      1.329120  
     231A      1.332073   232A      1.340419   233A      1.353727  
     234A      1.357137   235A      1.362504   236A      1.383073  
     237A      1.388646   238A      1.389235   239A      1.400321  
     240A      1.404879   241A      1.423082   242A      1.437389  
     243A      1.461220   244A      1.472316   245A      1.485038  
     246A      1.497648   247A      1.508831   248A      1.517322  
     249A      1.523497   250A      1.546198   251A      1.554569  
     252A      1.576020   253A      1.584536   254A      1.593104  
     255A      1.605000   256A      1.617537   257A      1.623134  
     258A      1.642128   259A      1.659171   260A      1.676596  
     261A      1.680407   262A      1.715248   263A      1.762252  
     264A      1.788163   265A      1.798152   266A      1.803229  
     267A      1.811721   268A      1.820086   269A      1.830319  
     270A      1.844611   271A      1.852826   272A      1.857459  
     273A      1.866417   274A      1.882788   275A      1.889128  
     276A      1.893200   277A      1.904403   278A      1.914586  
     279A      1.921105   280A      1.925547   281A      1.931777  
     282A      1.938187   283A      1.944845   284A      1.956817  
     285A      1.971505   286A      1.973264   287A      1.993995  
     288A      2.001161   289A      2.011527   290A      2.038908  
     291A      2.063661   292A      2.076603   293A      2.097949  
     294A      2.140465   295A      2.174538   296A      2.190920  
     297A      2.293953   298A      2.332352   299A      2.351193  
     300A      2.355740   301A      2.387439   302A      2.404331  
     303A      2.412337   304A      2.416591   305A      2.445370  
     306A      2.451003   307A      2.470245   308A      2.482990  
     309A      2.503359   310A      2.510498   311A      2.514685  
     312A      2.531975   313A      2.538713   314A      2.541457  
     315A      2.557778   316A      2.563691   317A      2.571283  
     318A      2.575262   319A      2.587746   320A      2.591371  
     321A      2.605776   322A      2.617139   323A      2.629016  
     324A      2.634484   325A      2.653225   326A      2.658600  
     327A      2.663268   328A      2.669096   329A      2.679051  
     330A      2.683660   331A      2.696152   332A      2.705190  
     333A      2.711891   334A      2.720785   335A      2.732426  
     336A      2.749046   337A      2.752807   338A      2.767872  
     339A      2.772222   340A      2.786968   341A      2.801734  
     342A      2.817262   343A      2.823555   344A      2.831873  
     345A      2.845240   346A      2.857903   347A      2.869611  
     348A      2.882637   349A      2.887700   350A      2.920838  
     351A      2.925965   352A      2.935754   353A      2.942526  
     354A      2.954704   355A      2.967932   356A      2.991653  
     357A      3.017199   358A      3.023168   359A      3.044955  
     360A      3.081471   361A      3.142274   362A      3.172429  
     363A      3.190567   364A      3.210178   365A      3.230324  
     366A      3.240058   367A      3.252565   368A      3.267774  
     369A      3.283429   370A      3.293944   371A      3.298918  
     372A      3.306451   373A      3.313274   374A      3.326109  
     375A      3.334908   376A      3.347747   377A      3.361092  
     378A      3.367226   379A      3.369995   380A      3.391182  
     381A      3.394508   382A      3.409610   383A      3.417788  
     384A      3.438661   385A      3.451486   386A      3.466292  
     387A      3.572751   388A      3.606582   389A      3.619277  
     390A      3.635014   391A      3.686508   392A      3.717168  
     393A      3.717509   394A      3.750392   395A      3.771440  
     396A      3.772748   397A      3.803096   398A      3.815246  
     399A      3.859386   400A      4.109872   401A      4.157796  
     402A      4.268027   403A      4.284366   404A      4.297616  
     405A      4.378052   406A      4.388673   407A      4.406711  
     408A      4.422422   409A      4.445875   410A      4.464641  
     411A      4.471994   412A      4.480685   413A      4.493533  
     414A      4.516942   415A      4.535145   416A      4.541014  
     417A      4.552447   418A      4.567312   419A      4.576902  
     420A      4.589949   421A      4.602524   422A      4.608843  
     423A      4.614525   424A      4.634228   425A      4.650698  
     426A      4.663439   427A      4.677286   428A      4.680119  
     429A      4.703818   430A      4.720653   431A      4.727263  
     432A      4.750646   433A      4.760126   434A      4.774883  
     435A      4.788654   436A      4.795865   437A      4.803432  
     438A      4.813444   439A      4.846716   440A      4.866487  
     441A      4.917514   442A      4.937182   443A      4.955049  
     444A      4.968162   445A      4.977638   446A      4.990164  
     447A      4.994456   448A      5.012199   449A      5.028253  
     450A      5.034069   451A      5.051213   452A      5.055119  
     453A      5.069733   454A      5.095078   455A      5.116509  
     456A      5.159783   457A      5.163426   458A      5.212310  
     459A      5.224782   460A      5.229349   461A      5.236764  
     462A      5.242531   463A      5.245595   464A      5.336946  
     465A      5.421715   466A      5.446739   467A      5.452644  
     468A      5.511455   469A      5.521205   470A      5.547788  
     471A      5.567515   472A      5.599031   473A      5.619030  
     474A      5.637489   475A      5.641371   476A      5.653916  
     477A      5.674830   478A      5.696302   479A      5.718767  
     480A      5.747958   481A      5.757251   482A      5.841880  
     483A      5.848990   484A      5.883002   485A      5.899482  
     486A      5.959249   487A      6.139901   488A      6.165483  
     489A      6.177280   490A      6.192959   491A      6.253096  
     492A      6.329240   493A      6.338499   494A      6.366238  
     495A      6.411243   496A      6.427802   497A      6.434065  
     498A      6.488549   499A      6.592349   500A      6.645206  
     501A      6.737531   502A      6.757374   503A      6.799952  
     504A      6.854403   505A      6.944731   506A      6.968998  
     507A      7.001675   508A      7.106312   509A      7.137144  
     510A      7.163543   511A      7.192031   512A      7.199985  
     513A      7.323396   514A      7.370675   515A      7.395307  
     516A      7.462371   517A      7.564706   518A      7.696329  
     519A      7.712479   520A      7.719829   521A      7.729039  
     522A      7.768049   523A      7.801903   524A      7.812155  
     525A      7.832959   526A      7.845382   527A      7.869582  
     528A      7.901712   529A      7.980195   530A      8.012056  
     531A      8.043662   532A      8.098762   533A      8.114648  
     534A      8.124461   535A      8.168346   536A      8.173673  
     537A      8.233765   538A      8.263612   539A      8.272259  
     540A      8.277129   541A      8.298009   542A      8.320329  
     543A      8.338091   544A      8.372677   545A      8.545762  
     546A      8.626448   547A      8.704113   548A      8.740442  
     549A      8.758313   550A      8.821062   551A      8.836896  
     552A      8.875084   553A      8.906689   554A      8.951607  
     555A      8.959874   556A      9.743571   557A      9.787975  
     558A      9.818879   559A      9.832361   560A      9.847462  
     561A      9.940961   562A      9.953583   563A      9.965235  
     564A      9.982998   565A      9.990899   566A     10.021090  
     567A     10.038349   568A     10.053585   569A     10.071978  
     570A     10.091245   571A     10.226691   572A     10.240553  
     573A     10.247705   574A     10.249089   575A     10.261435  
     576A     10.473228   577A     10.915985   578A     11.029106  
     579A     11.177083   580A     11.250840   581A     11.354704  
     582A     11.659160   583A     11.712755   584A     11.726656  
     585A     11.765837   586A     11.815983   587A     11.833621  
     588A     11.940212   589A     12.207790   590A     12.286696  
     591A     12.410802   592A     13.374112   593A     13.453240  
     594A     13.596629   595A     13.634079   596A     13.773655  
     597A     13.869649   598A     13.899672   599A     13.925204  
     600A     13.949865   601A     13.964369   602A     15.381995  
     603A     31.054107   604A     31.260413   605A     31.487512  
     606A     63.210314   607A     63.733270   608A     65.098858  
     609A     65.454255   610A     66.572858   611A    198.243001  

    Final Occupation by Irrep:
              A 
    DOCC [     5 ]
    NA   [     5 ]
    NB   [     5 ]

  @DF-RHF Final Energy:   -76.05477313731573

   => Energetics <=

    Nuclear Repulsion Energy =              8.9688990851371138
    One-Electron Energy =                -122.6201264487293656
    Two-Electron Energy =                  37.5964542262765349
    Total Energy =                        -76.0547731373157205

Computation Completed


Properties will be evaluated at   0.000000,   0.000000,   0.000000 [a0]

Properties computed using the SCF density matrix


 Multipole Moments:

 ------------------------------------------------------------------------------------
     Multipole            Electronic (a.u.)      Nuclear  (a.u.)        Total (a.u.)
 ------------------------------------------------------------------------------------

 L = 1.  Multiply by 2.5417464519 to convert [e a0] to [Debye]
 Dipole X            :         40.4857223          -40.7606461           -0.2749238
 Dipole Y            :         -8.6426617            9.3876246            0.7449629
 Dipole Z            :        -38.6622649           38.9074181            0.2451532
 Magnitude           :                                                    0.8310553

 ------------------------------------------------------------------------------------

*** tstop() called on moses-razer at Wed Jan 24 18:30:08 2024
Module time:
	user time   =      63.93 seconds =       1.07 minutes
	system time =       3.00 seconds =       0.05 minutes
	total time  =         17 seconds =       0.28 minutes
Total time:
	user time   =      63.93 seconds =       1.07 minutes
	system time =       3.00 seconds =       0.05 minutes
	total time  =         17 seconds =       0.28 minutes

*** tstart() called on moses-razer
*** at Wed Jan 24 18:30:08 2024


  //>>>>>>>>>>>>>>>>>>>>>>>>>>>>>>>>>>>//
  //               DFMP2               //
  //<<<<<<<<<<<<<<<<<<<<<<<<<<<<<<<<<<<//

   => Loading Basis Set <=

    Name: (AUG-CC-PVTZ AUX)
    Role: RIFIT
    Keyword: DF_BASIS_MP2
    atoms 1                                   entry K          line  1282 file /home/kchung25/anaconda3/envs/p415env/share/psi4/basis/def2-qzvpp-ri.gbs 
    atoms 2, 5, 8, 11, 14, 17                 entry O          line   264 file /home/kchung25/anaconda3/envs/p415env/share/psi4/basis/aug-cc-pvtz-ri.gbs 
    atoms 3-4, 6-7, 9-10, 12-13, 15-16, 18-19 entry H          line    30 file /home/kchung25/anaconda3/envs/p415env/share/psi4/basis/aug-cc-pvtz-ri.gbs 

	 --------------------------------------------------------
	                          DF-MP2                         
	      2nd-Order Density-Fitted Moller-Plesset Theory     
	              RMP2 Wavefunction,   6 Threads             
	                                                         
	        Rob Parrish, Justin Turney, Andy Simmonett,      
	           Ed Hohenstein, and C. David Sherrill          
	 --------------------------------------------------------

   => Auxiliary Basis Set <=

  Basis Set: (AUG-CC-PVTZ AUX)
    Blend: AUG-CC-PVTZ-RI + DEF2-QZVPP-RI
    Number of shells: 385
    Number of basis functions: 1387
    Number of Cartesian functions: 1738
    Spherical Harmonics?: true
    Max angular momentum: 4

	 --------------------------------------------------------
	                 NBF =   611, NAUX =  1387
	 --------------------------------------------------------
	   CLASS    FOCC     OCC    AOCC    AVIR     VIR    FVIR
	   PAIRS       0       5       5     606     606       0
	 --------------------------------------------------------

	-----------------------------------------------------------
	 ==================> DF-MP2 Energies <==================== 
	-----------------------------------------------------------
	 Reference Energy          =     -76.0547731373157347 [Eh]
	 Singles Energy            =      -0.0000000000000000 [Eh]
	 Same-Spin Energy          =      -0.0690310326349936 [Eh]
	 Opposite-Spin Energy      =      -0.2175093528656118 [Eh]
	 Correlation Energy        =      -0.2865403855006055 [Eh]
	 Total Energy              =     -76.3413135228163355 [Eh]
	-----------------------------------------------------------
	 ================> DF-SCS-MP2 Energies <================== 
	-----------------------------------------------------------
	 SCS Same-Spin Scale       =       0.3333333333333333 [-]
	 SCS Opposite-Spin Scale   =       1.2000000000000000 [-]
	 SCS Same-Spin Energy      =      -0.0230103442116645 [Eh]
	 SCS Opposite-Spin Energy  =      -0.2610112234387342 [Eh]
	 SCS Correlation Energy    =      -0.2840215676503988 [Eh]
	 SCS Total Energy          =     -76.3387947049661335 [Eh]
	-----------------------------------------------------------


*** tstop() called on moses-razer at Wed Jan 24 18:30:18 2024
Module time:
	user time   =      23.95 seconds =       0.40 minutes
	system time =       1.78 seconds =       0.03 minutes
	total time  =         10 seconds =       0.17 minutes
Total time:
	user time   =      87.88 seconds =       1.46 minutes
	system time =       4.78 seconds =       0.08 minutes
	total time  =         27 seconds =       0.45 minutes

    Psi4 stopped on: Wednesday, 24 January 2024 06:30PM
    Psi4 wall time for execution: 0:00:26.60

*** Psi4 exiting successfully. Buy a developer a beer!
