
    -----------------------------------------------------------------------
          Psi4: An Open-Source Ab Initio Electronic Structure Package
                               Psi4 1.9 release

                         Git: Rev {} zzzzzzz 


    D. G. A. Smith, L. A. Burns, A. C. Simmonett, R. M. Parrish,
    M. C. Schieber, R. Galvelis, P. Kraus, H. Kruse, R. Di Remigio,
    A. Alenaizan, A. M. James, S. Lehtola, J. P. Misiewicz, M. Scheurer,
    R. A. Shaw, J. B. Schriber, Y. Xie, Z. L. Glick, D. A. Sirianni,
    J. S. O'Brien, J. M. Waldrop, A. Kumar, E. G. Hohenstein,
    B. P. Pritchard, B. R. Brooks, H. F. Schaefer III, A. Yu. Sokolov,
    K. Patkowski, A. E. DePrince III, U. Bozkaya, R. A. King,
    F. A. Evangelista, J. M. Turney, T. D. Crawford, C. D. Sherrill,
    J. Chem. Phys. 152(18) 184108 (2020). https://doi.org/10.1063/5.0006002

                            Additional Code Authors
    E. T. Seidl, C. L. Janssen, E. F. Valeev, M. L. Leininger,
    J. F. Gonthier, R. M. Richard, H. R. McAlexander, M. Saitow, X. Wang,
    P. Verma, M. H. Lechner, A. Jiang, S. Behnle, A. G. Heide,
    M. F. Herbst, and D. L. Poole

             Previous Authors, Complete List of Code Contributors,
                       and Citations for Specific Modules
    https://github.com/psi4/psi4/blob/master/codemeta.json
    https://github.com/psi4/psi4/graphs/contributors
    http://psicode.org/psi4manual/master/introduction.html#citing-psifour

    -----------------------------------------------------------------------


    Psi4 started on: Wednesday, 24 January 2024 04:55PM

    Process ID: 1242565
    Host:       moses-razer
    PSIDATADIR: /home/kchung25/anaconda3/envs/psi4_19/share/psi4
    Memory:     500.0 MiB
    Threads:    6
    
  ==> Input File <==

--------------------------------------------------------------------------
MEMORY 60 GB

molecule dimer {
0 1
Gh(K)      0.000000     0.000000     0.000000
Gh(O)     -1.350579    -0.451019    -2.184171
Gh(H)     -0.828374    -0.405480    -2.959027
Gh(H)     -2.295838    -0.182448    -2.477727
Gh(O)      0.811714    -2.953770    -0.024877
Gh(H)      0.491865    -3.516386     0.715024
Gh(H)      1.703134    -3.259401    -0.070729
Gh(O)      1.439502    -0.931900     2.390588
Gh(H)      1.923833    -1.620427     2.861863
Gh(H)      0.879775    -0.561656     3.062076
Gh(O)      2.556752     0.575285    -0.926306
Gh(H)      2.963771     0.049734    -0.227753
Gh(H)      2.591393     1.523133    -0.691197
O         -1.229385     2.374053     0.624562
H         -0.903017     3.116669     1.152358
H         -2.153941     2.270777     0.923160
Gh(O)     -1.464224    -0.338413     2.131283
Gh(H)     -1.017152    -0.390138     2.970331
Gh(H)     -2.307745     0.086032     2.373066

units ang
no_reorient
no_com
symmetry c1
}

set {
basis        aug-cc-pVTZ
scf_type     df
}

energy("mp2")
--------------------------------------------------------------------------

  Memory set to  55.879 GiB by Python driver.

Scratch directory: /scratch/
   => Libint2 <=

    Primary   basis highest AM E, G, H:  5, 4, 3
    Auxiliary basis highest AM E, G, H:  6, 5, 4
    Onebody   basis highest AM E, G, H:  6, 5, 4
    Solid Harmonics ordering:            gaussian

*** tstart() called on moses-razer
*** at Wed Jan 24 16:55:42 2024

   => Loading Basis Set <=

    Name: AUG-CC-PVTZ
    Role: ORBITAL
    Keyword: BASIS
    atoms 1                                   entry K          line  1152 file /home/kchung25/anaconda3/envs/p415env/share/psi4/basis/aug-cc-pvtz.gbs 
    atoms 2, 5, 8, 11, 14, 17                 entry O          line   331 file /home/kchung25/anaconda3/envs/p415env/share/psi4/basis/aug-cc-pvtz.gbs 
    atoms 3-4, 6-7, 9-10, 12-13, 15-16, 18-19 entry H          line    40 file /home/kchung25/anaconda3/envs/p415env/share/psi4/basis/aug-cc-pvtz.gbs 


         ---------------------------------------------------------
                                   SCF
               by Justin Turney, Rob Parrish, Andy Simmonett
                          and Daniel G. A. Smith
                              RHF Reference
                        6 Threads,  57220 MiB Core
         ---------------------------------------------------------

  ==> Geometry <==

    Molecular point group: c1
    Full point group: C1

    Geometry (in Angstrom), charge = 0, multiplicity = 1:

       Center              X                  Y                   Z               Mass       
    ------------   -----------------  -----------------  -----------------  -----------------
      Gh(K)           0.000000000000     0.000000000000     0.000000000000    38.963706486400
      Gh(O)          -1.350579000000    -0.451019000000    -2.184171000000    15.994914619570
      Gh(H)          -0.828374000000    -0.405480000000    -2.959027000000     1.007825032230
      Gh(H)          -2.295838000000    -0.182448000000    -2.477727000000     1.007825032230
      Gh(O)           0.811714000000    -2.953770000000    -0.024877000000    15.994914619570
      Gh(H)           0.491865000000    -3.516386000000     0.715024000000     1.007825032230
      Gh(H)           1.703134000000    -3.259401000000    -0.070729000000     1.007825032230
      Gh(O)           1.439502000000    -0.931900000000     2.390588000000    15.994914619570
      Gh(H)           1.923833000000    -1.620427000000     2.861863000000     1.007825032230
      Gh(H)           0.879775000000    -0.561656000000     3.062076000000     1.007825032230
      Gh(O)           2.556752000000     0.575285000000    -0.926306000000    15.994914619570
      Gh(H)           2.963771000000     0.049734000000    -0.227753000000     1.007825032230
      Gh(H)           2.591393000000     1.523133000000    -0.691197000000     1.007825032230
         O           -1.229385000000     2.374053000000     0.624562000000    15.994914619570
         H           -0.903017000000     3.116669000000     1.152358000000     1.007825032230
         H           -2.153941000000     2.270777000000     0.923160000000     1.007825032230
      Gh(O)          -1.464224000000    -0.338413000000     2.131283000000    15.994914619570
      Gh(H)          -1.017152000000    -0.390138000000     2.970331000000     1.007825032230
      Gh(H)          -2.307745000000     0.086032000000     2.373066000000     1.007825032230

  Running in c1 symmetry.

  Rotational constants: A =      0.03279  B =      0.02913  C =      0.02484 [cm^-1]
  Rotational constants: A =    983.13224  B =    873.19907  C =    744.62234 [MHz]
  Nuclear repulsion =    9.053750999818629

  Charge       = 0
  Multiplicity = 1
  Electrons    = 10
  Nalpha       = 5
  Nbeta        = 5

  ==> Algorithm <==

  SCF Algorithm Type is DF.
  DIIS enabled.
  MOM disabled.
  Fractional occupation disabled.
  Guess Type is SAD.
  Energy threshold   = 1.00e-08
  Density threshold  = 1.00e-08
  Integral threshold = 1.00e-12

  ==> Primary Basis <==

  Basis Set: AUG-CC-PVTZ
    Blend: AUG-CC-PVTZ
    Number of shells: 211
    Number of basis functions: 611
    Number of Cartesian functions: 699
    Spherical Harmonics?: true
    Max angular momentum: 3

   => Loading Basis Set <=

    Name: (AUG-CC-PVTZ AUX)
    Role: JKFIT
    Keyword: DF_BASIS_SCF
    atoms 1                                   entry K          line  1152 file /home/kchung25/anaconda3/envs/p415env/share/psi4/basis/def2-universal-jkfit.gbs 
    atoms 2, 5, 8, 11, 14, 17                 entry O          line   286 file /home/kchung25/anaconda3/envs/p415env/share/psi4/basis/aug-cc-pvtz-jkfit.gbs 
    atoms 3-4, 6-7, 9-10, 12-13, 15-16, 18-19 entry H          line    70 file /home/kchung25/anaconda3/envs/p415env/share/psi4/basis/aug-cc-pvtz-jkfit.gbs 

  ==> Integral Setup <==

  DFHelper Memory: AOs need 3.341 GiB; user supplied 41.910 GiB. 
  Using in-core AOs.

  ==> MemDFJK: Density-Fitted J/K Matrices <==

    J tasked:                   Yes
    K tasked:                   Yes
    wK tasked:                   No
    OpenMP threads:               6
    Memory [MiB]:             42915
    Algorithm:                 Core
    Schwarz Cutoff:           1E-12
    Mask sparsity (%):      12.9165
    Fitting Condition:        1E-10

   => Auxiliary Basis Set <=

  Basis Set: (AUG-CC-PVTZ AUX)
    Blend: AUG-CC-PVTZ-JKFIT + DEF2-UNIVERSAL-JKFIT
    Number of shells: 392
    Number of basis functions: 1336
    Number of Cartesian functions: 1649
    Spherical Harmonics?: true
    Max angular momentum: 4

  Minimum eigenvalue in the overlap matrix is 4.5603436725E-05.
  Reciprocal condition number of the overlap matrix is 3.1098720835E-06.
    Using symmetric orthogonalization.

  ==> Pre-Iterations <==

  SCF Guess: Superposition of Atomic Densities via on-the-fly atomic UHF (no occupation information).

   -------------------------
    Irrep   Nso     Nmo    
   -------------------------
     A        611     611 
   -------------------------
    Total     611     611
   -------------------------

  ==> Iterations <==

                           Total Energy        Delta E     RMS |[F,P]|

   @DF-RHF iter SAD:   -75.46146481011297   -7.54615e+01   0.00000e+00 
   @DF-RHF iter   1:   -75.97412659432827   -5.12662e-01   7.65053e-04 ADIIS/DIIS
   @DF-RHF iter   2:   -76.02622657105259   -5.21000e-02   5.29641e-04 ADIIS/DIIS
   @DF-RHF iter   3:   -76.05872896357046   -3.25024e-02   3.60568e-05 DIIS
   @DF-RHF iter   4:   -76.05913596274668   -4.06999e-04   8.88243e-06 DIIS
   @DF-RHF iter   5:   -76.05916321071157   -2.72480e-05   2.04730e-06 DIIS
   @DF-RHF iter   6:   -76.05916549130528   -2.28059e-06   4.48312e-07 DIIS
   @DF-RHF iter   7:   -76.05916561045126   -1.19146e-07   7.92696e-08 DIIS
   @DF-RHF iter   8:   -76.05916561369436   -3.24310e-09   1.34998e-08 DIIS
   @DF-RHF iter   9:   -76.05916561376891   -7.45501e-11   3.38026e-09 DIIS
  Energy and wave function converged.


  ==> Post-Iterations <==

    Orbital Energies [Eh]
    ---------------------

    Doubly Occupied:                                                      

       1A    -20.570142     2A     -1.346526     3A     -0.707604  
       4A     -0.583909     5A     -0.509399  

    Virtual:                                                              

       6A      0.006777     7A      0.009568     8A      0.009773  
       9A      0.010743    10A      0.017784    11A      0.017973  
      12A      0.018533    13A      0.018654    14A      0.019040  
      15A      0.031135    16A      0.034344    17A      0.034528  
      18A      0.039782    19A      0.055108    20A      0.056877  
      21A      0.057992    22A      0.059357    23A      0.062085  
      24A      0.070520    25A      0.073574    26A      0.074080  
      27A      0.076286    28A      0.077182    29A      0.079550  
      30A      0.081458    31A      0.083464    32A      0.086193  
      33A      0.097389    34A      0.099785    35A      0.101456  
      36A      0.105746    37A      0.121977    38A      0.133990  
      39A      0.138696    40A      0.147276    41A      0.152609  
      42A      0.156282    43A      0.158700    44A      0.164086  
      45A      0.168410    46A      0.169789    47A      0.176156  
      48A      0.177637    49A      0.181334    50A      0.184622  
      51A      0.190967    52A      0.192421    53A      0.199620  
      54A      0.207160    55A      0.213294    56A      0.217298  
      57A      0.222008    58A      0.224526    59A      0.230909  
      60A      0.236311    61A      0.239370    62A      0.245898  
      63A      0.248588    64A      0.259828    65A      0.261118  
      66A      0.270712    67A      0.274044    68A      0.275968  
      69A      0.285612    70A      0.293322    71A      0.301480  
      72A      0.310392    73A      0.320809    74A      0.324767  
      75A      0.329697    76A      0.334219    77A      0.339865  
      78A      0.345266    79A      0.349171    80A      0.352362  
      81A      0.356079    82A      0.365211    83A      0.368788  
      84A      0.375556    85A      0.379675    86A      0.383560  
      87A      0.385050    88A      0.387839    89A      0.398309  
      90A      0.401511    91A      0.407973    92A      0.412516  
      93A      0.416102    94A      0.426730    95A      0.428316  
      96A      0.430335    97A      0.436417    98A      0.442458  
      99A      0.445963   100A      0.452071   101A      0.454205  
     102A      0.462198   103A      0.465114   104A      0.469624  
     105A      0.471305   106A      0.474780   107A      0.477866  
     108A      0.480870   109A      0.486649   110A      0.491743  
     111A      0.496218   112A      0.500385   113A      0.502854  
     114A      0.507639   115A      0.509716   116A      0.516784  
     117A      0.523222   118A      0.528920   119A      0.532952  
     120A      0.545747   121A      0.546358   122A      0.554167  
     123A      0.568807   124A      0.572742   125A      0.574533  
     126A      0.600136   127A      0.608478   128A      0.618489  
     129A      0.622610   130A      0.637896   131A      0.650513  
     132A      0.652906   133A      0.670558   134A      0.691213  
     135A      0.707971   136A      0.717882   137A      0.726043  
     138A      0.735344   139A      0.743654   140A      0.752212  
     141A      0.772441   142A      0.778947   143A      0.786251  
     144A      0.791253   145A      0.804164   146A      0.811609  
     147A      0.814429   148A      0.815814   149A      0.826026  
     150A      0.832345   151A      0.837145   152A      0.848329  
     153A      0.857876   154A      0.860602   155A      0.863120  
     156A      0.868489   157A      0.873157   158A      0.876022  
     159A      0.884868   160A      0.893899   161A      0.896311  
     162A      0.906240   163A      0.912627   164A      0.918350  
     165A      0.921967   166A      0.932998   167A      0.939079  
     168A      0.942917   169A      0.949146   170A      0.955829  
     171A      0.959850   172A      0.964374   173A      0.965777  
     174A      0.972892   175A      0.976278   176A      0.978669  
     177A      0.991252   178A      0.996199   179A      1.002845  
     180A      1.007793   181A      1.017202   182A      1.025678  
     183A      1.032547   184A      1.035386   185A      1.040360  
     186A      1.046080   187A      1.051834   188A      1.056388  
     189A      1.065388   190A      1.066613   191A      1.072804  
     192A      1.078394   193A      1.089781   194A      1.091404  
     195A      1.093701   196A      1.105436   197A      1.107942  
     198A      1.114337   199A      1.118121   200A      1.121938  
     201A      1.126209   202A      1.133783   203A      1.134545  
     204A      1.143496   205A      1.151519   206A      1.159240  
     207A      1.165397   208A      1.176440   209A      1.181405  
     210A      1.191952   211A      1.194232   212A      1.200756  
     213A      1.213872   214A      1.216080   215A      1.220485  
     216A      1.222920   217A      1.234755   218A      1.238029  
     219A      1.243439   220A      1.252758   221A      1.262625  
     222A      1.264772   223A      1.273999   224A      1.279245  
     225A      1.286931   226A      1.294054   227A      1.300561  
     228A      1.313324   229A      1.321693   230A      1.329311  
     231A      1.330016   232A      1.336263   233A      1.344023  
     234A      1.355865   235A      1.366283   236A      1.370021  
     237A      1.385876   238A      1.394015   239A      1.408216  
     240A      1.422906   241A      1.426646   242A      1.437771  
     243A      1.453848   244A      1.462462   245A      1.476697  
     246A      1.484253   247A      1.499314   248A      1.521167  
     249A      1.534213   250A      1.547563   251A      1.565291  
     252A      1.573015   253A      1.589254   254A      1.599360  
     255A      1.608007   256A      1.620340   257A      1.628117  
     258A      1.658127   259A      1.670876   260A      1.680512  
     261A      1.700530   262A      1.743677   263A      1.761272  
     264A      1.779480   265A      1.792442   266A      1.797329  
     267A      1.804363   268A      1.823049   269A      1.829624  
     270A      1.840476   271A      1.849916   272A      1.854610  
     273A      1.865625   274A      1.874760   275A      1.876224  
     276A      1.884231   277A      1.888306   278A      1.904766  
     279A      1.914378   280A      1.919308   281A      1.934112  
     282A      1.945767   283A      1.959635   284A      1.970079  
     285A      1.980854   286A      2.003196   287A      2.006735  
     288A      2.017519   289A      2.034980   290A      2.059164  
     291A      2.072197   292A      2.079731   293A      2.137326  
     294A      2.163730   295A      2.203117   296A      2.236163  
     297A      2.305835   298A      2.347690   299A      2.357853  
     300A      2.369805   301A      2.387428   302A      2.413810  
     303A      2.418801   304A      2.429299   305A      2.442334  
     306A      2.462995   307A      2.473865   308A      2.481652  
     309A      2.505871   310A      2.507951   311A      2.511912  
     312A      2.520782   313A      2.527805   314A      2.538907  
     315A      2.560239   316A      2.563877   317A      2.570973  
     318A      2.573418   319A      2.587612   320A      2.590649  
     321A      2.603292   322A      2.611505   323A      2.614651  
     324A      2.621390   325A      2.637013   326A      2.645097  
     327A      2.660543   328A      2.665256   329A      2.671651  
     330A      2.677653   331A      2.689390   332A      2.699770  
     333A      2.702408   334A      2.724064   335A      2.729171  
     336A      2.737328   337A      2.752662   338A      2.756723  
     339A      2.777644   340A      2.796099   341A      2.815414  
     342A      2.829831   343A      2.833554   344A      2.843651  
     345A      2.857398   346A      2.867553   347A      2.880987  
     348A      2.894347   349A      2.908975   350A      2.920844  
     351A      2.937589   352A      2.938038   353A      2.962014  
     354A      2.967143   355A      2.985230   356A      2.997774  
     357A      3.020478   358A      3.038887   359A      3.081042  
     360A      3.114404   361A      3.154819   362A      3.204215  
     363A      3.211129   364A      3.216194   365A      3.237683  
     366A      3.244625   367A      3.263864   368A      3.279987  
     369A      3.280732   370A      3.285844   371A      3.297989  
     372A      3.317824   373A      3.329923   374A      3.341535  
     375A      3.357999   376A      3.367946   377A      3.368931  
     378A      3.382873   379A      3.393245   380A      3.404412  
     381A      3.415631   382A      3.431197   383A      3.444168  
     384A      3.466257   385A      3.515497   386A      3.564073  
     387A      3.598333   388A      3.621675   389A      3.629383  
     390A      3.694066   391A      3.717464   392A      3.732538  
     393A      3.754423   394A      3.771470   395A      3.799263  
     396A      3.811589   397A      3.832237   398A      3.849042  
     399A      3.858860   400A      4.083339   401A      4.227782  
     402A      4.280815   403A      4.297378   404A      4.343271  
     405A      4.379507   406A      4.388049   407A      4.432452  
     408A      4.456193   409A      4.461075   410A      4.467240  
     411A      4.476255   412A      4.477406   413A      4.503630  
     414A      4.508755   415A      4.510597   416A      4.536336  
     417A      4.544176   418A      4.566988   419A      4.574601  
     420A      4.577697   421A      4.593424   422A      4.599007  
     423A      4.599872   424A      4.621378   425A      4.651376  
     426A      4.653704   427A      4.680009   428A      4.685971  
     429A      4.696138   430A      4.715059   431A      4.724285  
     432A      4.739554   433A      4.750009   434A      4.756161  
     435A      4.761423   436A      4.785355   437A      4.818577  
     438A      4.838610   439A      4.852064   440A      4.922824  
     441A      4.932423   442A      4.948785   443A      4.963663  
     444A      4.967489   445A      4.994033   446A      4.999712  
     447A      5.013070   448A      5.019035   449A      5.037636  
     450A      5.045333   451A      5.055899   452A      5.067894  
     453A      5.099793   454A      5.129747   455A      5.150368  
     456A      5.156887   457A      5.167216   458A      5.196560  
     459A      5.212030   460A      5.263896   461A      5.270071  
     462A      5.325666   463A      5.353506   464A      5.378663  
     465A      5.458410   466A      5.474115   467A      5.477501  
     468A      5.515908   469A      5.573077   470A      5.598124  
     471A      5.604595   472A      5.611275   473A      5.625790  
     474A      5.630560   475A      5.673063   476A      5.689888  
     477A      5.711528   478A      5.727179   479A      5.735060  
     480A      5.750587   481A      5.771962   482A      5.800499  
     483A      5.824277   484A      5.923930   485A      5.929843  
     486A      5.987563   487A      6.144652   488A      6.167269  
     489A      6.184227   490A      6.233999   491A      6.287633  
     492A      6.312920   493A      6.319935   494A      6.351580  
     495A      6.376081   496A      6.424753   497A      6.479716  
     498A      6.575236   499A      6.640340   500A      6.644520  
     501A      6.738100   502A      6.751653   503A      6.761961  
     504A      6.779386   505A      6.939848   506A      7.052473  
     507A      7.105937   508A      7.109354   509A      7.131420  
     510A      7.155210   511A      7.172553   512A      7.304994  
     513A      7.334312   514A      7.359028   515A      7.415027  
     516A      7.447999   517A      7.587272   518A      7.691532  
     519A      7.697471   520A      7.708141   521A      7.766845  
     522A      7.784822   523A      7.798577   524A      7.802670  
     525A      7.885654   526A      7.899322   527A      7.905639  
     528A      7.917278   529A      7.950165   530A      8.041667  
     531A      8.067193   532A      8.092447   533A      8.103206  
     534A      8.122059   535A      8.138212   536A      8.167400  
     537A      8.197604   538A      8.215189   539A      8.267202  
     540A      8.291003   541A      8.292017   542A      8.323057  
     543A      8.341923   544A      8.370571   545A      8.696386  
     546A      8.700107   547A      8.747111   548A      8.776663  
     549A      8.792041   550A      8.796071   551A      8.824809  
     552A      8.842711   553A      8.880269   554A      8.901357  
     555A      8.965895   556A      9.790044   557A      9.798923  
     558A      9.820308   559A      9.841206   560A      9.876463  
     561A      9.931771   562A      9.966020   563A      9.974819  
     564A      9.990734   565A     10.011150   566A     10.038110  
     567A     10.040702   568A     10.060205   569A     10.078382  
     570A     10.105140   571A     10.193190   572A     10.228581  
     573A     10.265673   574A     10.278277   575A     10.355870  
     576A     10.500083   577A     10.969094   578A     11.114269  
     579A     11.233568   580A     11.254053   581A     11.283572  
     582A     11.680843   583A     11.728802   584A     11.752327  
     585A     11.756126   586A     11.800607   587A     12.091592  
     588A     12.185716   589A     12.221056   590A     12.225558  
     591A     12.313468   592A     13.458162   593A     13.518349  
     594A     13.606326   595A     13.625542   596A     13.701400  
     597A     13.848467   598A     13.900429   599A     13.937295  
     600A     13.960309   601A     14.006272   602A     15.651127  
     603A     31.118751   604A     31.224535   605A     31.332068  
     606A     64.118346   607A     64.627116   608A     65.091851  
     609A     65.426398   610A     65.850235   611A    198.281489  

    Final Occupation by Irrep:
              A 
    DOCC [     5 ]
    NA   [     5 ]
    NB   [     5 ]

  @DF-RHF Final Energy:   -76.05916561376891

   => Energetics <=

    Nuclear Repulsion Energy =              9.0537509998186287
    One-Electron Energy =                -122.7906703713230030
    Two-Electron Energy =                  37.6777537577354593
    Total Energy =                        -76.0591656137689114

Computation Completed


Properties will be evaluated at   0.000000,   0.000000,   0.000000 [a0]

Properties computed using the SCF density matrix


 Multipole Moments:

 ------------------------------------------------------------------------------------
     Multipole            Electronic (a.u.)      Nuclear  (a.u.)        Total (a.u.)
 ------------------------------------------------------------------------------------

 L = 1.  Multiply by 2.5417464519 to convert [e a0] to [Debye]
 Dipole X            :         23.9708343          -24.3624210           -0.3915867
 Dipole Y            :        -45.6502307           46.0712773            0.4210465
 Dipole Z            :        -12.8213338           13.3641696            0.5428359
 Magnitude           :                                                    0.7907535

 ------------------------------------------------------------------------------------

*** tstop() called on moses-razer at Wed Jan 24 16:55:59 2024
Module time:
	user time   =      64.26 seconds =       1.07 minutes
	system time =       3.10 seconds =       0.05 minutes
	total time  =         17 seconds =       0.28 minutes
Total time:
	user time   =      64.26 seconds =       1.07 minutes
	system time =       3.10 seconds =       0.05 minutes
	total time  =         17 seconds =       0.28 minutes

*** tstart() called on moses-razer
*** at Wed Jan 24 16:55:59 2024


  //>>>>>>>>>>>>>>>>>>>>>>>>>>>>>>>>>>>//
  //               DFMP2               //
  //<<<<<<<<<<<<<<<<<<<<<<<<<<<<<<<<<<<//

   => Loading Basis Set <=

    Name: (AUG-CC-PVTZ AUX)
    Role: RIFIT
    Keyword: DF_BASIS_MP2
    atoms 1                                   entry K          line  1282 file /home/kchung25/anaconda3/envs/p415env/share/psi4/basis/def2-qzvpp-ri.gbs 
    atoms 2, 5, 8, 11, 14, 17                 entry O          line   264 file /home/kchung25/anaconda3/envs/p415env/share/psi4/basis/aug-cc-pvtz-ri.gbs 
    atoms 3-4, 6-7, 9-10, 12-13, 15-16, 18-19 entry H          line    30 file /home/kchung25/anaconda3/envs/p415env/share/psi4/basis/aug-cc-pvtz-ri.gbs 

	 --------------------------------------------------------
	                          DF-MP2                         
	      2nd-Order Density-Fitted Moller-Plesset Theory     
	              RMP2 Wavefunction,   6 Threads             
	                                                         
	        Rob Parrish, Justin Turney, Andy Simmonett,      
	           Ed Hohenstein, and C. David Sherrill          
	 --------------------------------------------------------

   => Auxiliary Basis Set <=

  Basis Set: (AUG-CC-PVTZ AUX)
    Blend: AUG-CC-PVTZ-RI + DEF2-QZVPP-RI
    Number of shells: 385
    Number of basis functions: 1387
    Number of Cartesian functions: 1738
    Spherical Harmonics?: true
    Max angular momentum: 4

	 --------------------------------------------------------
	                 NBF =   611, NAUX =  1387
	 --------------------------------------------------------
	   CLASS    FOCC     OCC    AOCC    AVIR     VIR    FVIR
	   PAIRS       0       5       5     606     606       0
	 --------------------------------------------------------

	-----------------------------------------------------------
	 ==================> DF-MP2 Energies <==================== 
	-----------------------------------------------------------
	 Reference Energy          =     -76.0591656137689114 [Eh]
	 Singles Energy            =      -0.0000000000000000 [Eh]
	 Same-Spin Energy          =      -0.0686755757014029 [Eh]
	 Opposite-Spin Energy      =      -0.2164842185926020 [Eh]
	 Correlation Energy        =      -0.2851597942940050 [Eh]
	 Total Energy              =     -76.3443254080629146 [Eh]
	-----------------------------------------------------------
	 ================> DF-SCS-MP2 Energies <================== 
	-----------------------------------------------------------
	 SCS Same-Spin Scale       =       0.3333333333333333 [-]
	 SCS Opposite-Spin Scale   =       1.2000000000000000 [-]
	 SCS Same-Spin Energy      =      -0.0228918585671343 [Eh]
	 SCS Opposite-Spin Energy  =      -0.2597810623111224 [Eh]
	 SCS Correlation Energy    =      -0.2826729208782567 [Eh]
	 SCS Total Energy          =     -76.3418385346471666 [Eh]
	-----------------------------------------------------------


*** tstop() called on moses-razer at Wed Jan 24 16:56:08 2024
Module time:
	user time   =      23.96 seconds =       0.40 minutes
	system time =       1.80 seconds =       0.03 minutes
	total time  =          9 seconds =       0.15 minutes
Total time:
	user time   =      88.23 seconds =       1.47 minutes
	system time =       4.90 seconds =       0.08 minutes
	total time  =         26 seconds =       0.43 minutes

    Psi4 stopped on: Wednesday, 24 January 2024 04:56PM
    Psi4 wall time for execution: 0:00:26.74

*** Psi4 exiting successfully. Buy a developer a beer!
