
    -----------------------------------------------------------------------
          Psi4: An Open-Source Ab Initio Electronic Structure Package
                               Psi4 1.9 release

                         Git: Rev {} zzzzzzz 


    D. G. A. Smith, L. A. Burns, A. C. Simmonett, R. M. Parrish,
    M. C. Schieber, R. Galvelis, P. Kraus, H. Kruse, R. Di Remigio,
    A. Alenaizan, A. M. James, S. Lehtola, J. P. Misiewicz, M. Scheurer,
    R. A. Shaw, J. B. Schriber, Y. Xie, Z. L. Glick, D. A. Sirianni,
    J. S. O'Brien, J. M. Waldrop, A. Kumar, E. G. Hohenstein,
    B. P. Pritchard, B. R. Brooks, H. F. Schaefer III, A. Yu. Sokolov,
    K. Patkowski, A. E. DePrince III, U. Bozkaya, R. A. King,
    F. A. Evangelista, J. M. Turney, T. D. Crawford, C. D. Sherrill,
    J. Chem. Phys. 152(18) 184108 (2020). https://doi.org/10.1063/5.0006002

                            Additional Code Authors
    E. T. Seidl, C. L. Janssen, E. F. Valeev, M. L. Leininger,
    J. F. Gonthier, R. M. Richard, H. R. McAlexander, M. Saitow, X. Wang,
    P. Verma, M. H. Lechner, A. Jiang, S. Behnle, A. G. Heide,
    M. F. Herbst, and D. L. Poole

             Previous Authors, Complete List of Code Contributors,
                       and Citations for Specific Modules
    https://github.com/psi4/psi4/blob/master/codemeta.json
    https://github.com/psi4/psi4/graphs/contributors
    http://psicode.org/psi4manual/master/introduction.html#citing-psifour

    -----------------------------------------------------------------------


    Psi4 started on: Wednesday, 24 January 2024 05:45PM

    Process ID: 1246602
    Host:       moses-razer
    PSIDATADIR: /home/kchung25/anaconda3/envs/psi4_19/share/psi4
    Memory:     500.0 MiB
    Threads:    6
    
  ==> Input File <==

--------------------------------------------------------------------------
MEMORY 60 GB

molecule dimer {
1 1
K          0.000000     0.000000     0.000000
Gh(O)     -1.729110    -1.440725    -1.595164
Gh(H)     -2.115495    -2.310628    -1.338981
Gh(H)     -0.967161    -1.699838    -2.095225
Gh(O)      0.740104    -1.194157    -2.503143
Gh(H)      1.668496    -1.305924    -2.331578
Gh(H)      0.556187    -0.378147    -2.935790
Gh(O)      2.193072    -0.562674     1.394934
Gh(H)      2.531896     0.323809     1.640430
Gh(H)      3.009910    -1.052773     1.088316
Gh(O)     -1.344795     2.320045    -0.663814
Gh(H)     -1.343982     2.818484     0.147861
Gh(H)     -0.624916     2.584864    -1.279756

units ang
no_reorient
no_com
symmetry c1
}

set {
basis        aug-cc-pVTZ
scf_type     df
}

energy("mp2")
--------------------------------------------------------------------------

  Memory set to  55.879 GiB by Python driver.

Scratch directory: /scratch/
   => Libint2 <=

    Primary   basis highest AM E, G, H:  5, 4, 3
    Auxiliary basis highest AM E, G, H:  6, 5, 4
    Onebody   basis highest AM E, G, H:  6, 5, 4
    Solid Harmonics ordering:            gaussian

*** tstart() called on moses-razer
*** at Wed Jan 24 17:45:51 2024

   => Loading Basis Set <=

    Name: AUG-CC-PVTZ
    Role: ORBITAL
    Keyword: BASIS
    atoms 1                     entry K          line  1152 file /home/kchung25/anaconda3/envs/p415env/share/psi4/basis/aug-cc-pvtz.gbs 
    atoms 2, 5, 8, 11           entry O          line   331 file /home/kchung25/anaconda3/envs/p415env/share/psi4/basis/aug-cc-pvtz.gbs 
    atoms 3-4, 6-7, 9-10, 12-13 entry H          line    40 file /home/kchung25/anaconda3/envs/p415env/share/psi4/basis/aug-cc-pvtz.gbs 


         ---------------------------------------------------------
                                   SCF
               by Justin Turney, Rob Parrish, Andy Simmonett
                          and Daniel G. A. Smith
                              RHF Reference
                        6 Threads,  57220 MiB Core
         ---------------------------------------------------------

  ==> Geometry <==

    Molecular point group: c1
    Full point group: C1

    Geometry (in Angstrom), charge = 1, multiplicity = 1:

       Center              X                  Y                   Z               Mass       
    ------------   -----------------  -----------------  -----------------  -----------------
         K            0.000000000000     0.000000000000     0.000000000000    38.963706486400
      Gh(O)          -1.729110000000    -1.440725000000    -1.595164000000    15.994914619570
      Gh(H)          -2.115495000000    -2.310628000000    -1.338981000000     1.007825032230
      Gh(H)          -0.967161000000    -1.699838000000    -2.095225000000     1.007825032230
      Gh(O)           0.740104000000    -1.194157000000    -2.503143000000    15.994914619570
      Gh(H)           1.668496000000    -1.305924000000    -2.331578000000     1.007825032230
      Gh(H)           0.556187000000    -0.378147000000    -2.935790000000     1.007825032230
      Gh(O)           2.193072000000    -0.562674000000     1.394934000000    15.994914619570
      Gh(H)           2.531896000000     0.323809000000     1.640430000000     1.007825032230
      Gh(H)           3.009910000000    -1.052773000000     1.088316000000     1.007825032230
      Gh(O)          -1.344795000000     2.320045000000    -0.663814000000    15.994914619570
      Gh(H)          -1.343982000000     2.818484000000     0.147861000000     1.007825032230
      Gh(H)          -0.624916000000     2.584864000000    -1.279756000000     1.007825032230

  Running in c1 symmetry.

  Rotational constants: A =      0.05940  B =      0.04855  C =      0.03349 [cm^-1]
  Rotational constants: A =   1780.67456  B =   1455.46138  C =   1004.15300 [MHz]
  Nuclear repulsion =    0.000000000000000

  Charge       = 1
  Multiplicity = 1
  Electrons    = 18
  Nalpha       = 9
  Nbeta        = 9

  ==> Algorithm <==

  SCF Algorithm Type is DF.
  DIIS enabled.
  MOM disabled.
  Fractional occupation disabled.
  Guess Type is SAD.
  Energy threshold   = 1.00e-08
  Density threshold  = 1.00e-08
  Integral threshold = 1.00e-12

  ==> Primary Basis <==

  Basis Set: AUG-CC-PVTZ
    Blend: AUG-CC-PVTZ
    Number of shells: 147
    Number of basis functions: 427
    Number of Cartesian functions: 489
    Spherical Harmonics?: true
    Max angular momentum: 3

   => Loading Basis Set <=

    Name: (AUG-CC-PVTZ AUX)
    Role: JKFIT
    Keyword: DF_BASIS_SCF
    atoms 1                     entry K          line  1152 file /home/kchung25/anaconda3/envs/p415env/share/psi4/basis/def2-universal-jkfit.gbs 
    atoms 2, 5, 8, 11           entry O          line   286 file /home/kchung25/anaconda3/envs/p415env/share/psi4/basis/aug-cc-pvtz-jkfit.gbs 
    atoms 3-4, 6-7, 9-10, 12-13 entry H          line    70 file /home/kchung25/anaconda3/envs/p415env/share/psi4/basis/aug-cc-pvtz-jkfit.gbs 

  ==> Integral Setup <==

  DFHelper Memory: AOs need 1.205 GiB; user supplied 41.910 GiB. 
  Using in-core AOs.

  ==> MemDFJK: Density-Fitted J/K Matrices <==

    J tasked:                   Yes
    K tasked:                   Yes
    wK tasked:                   No
    OpenMP threads:               6
    Memory [MiB]:             42915
    Algorithm:                 Core
    Schwarz Cutoff:           1E-12
    Mask sparsity (%):      10.0544
    Fitting Condition:        1E-10

   => Auxiliary Basis Set <=

  Basis Set: (AUG-CC-PVTZ AUX)
    Blend: AUG-CC-PVTZ-JKFIT + DEF2-UNIVERSAL-JKFIT
    Number of shells: 276
    Number of basis functions: 944
    Number of Cartesian functions: 1167
    Spherical Harmonics?: true
    Max angular momentum: 4

  Minimum eigenvalue in the overlap matrix is 5.7438843732E-05.
  Reciprocal condition number of the overlap matrix is 4.4665856979E-06.
    Using symmetric orthogonalization.

  ==> Pre-Iterations <==

  SCF Guess: Superposition of Atomic Densities via on-the-fly atomic UHF (no occupation information).

   -------------------------
    Irrep   Nso     Nmo    
   -------------------------
     A        427     427 
   -------------------------
    Total     427     427
   -------------------------

  ==> Iterations <==

                           Total Energy        Delta E     RMS |[F,P]|

   @DF-RHF iter SAD:  -599.05184020204649   -5.99052e+02   0.00000e+00 
   @DF-RHF iter   1:  -599.01746811114197    3.43721e-02   2.25142e-05 DIIS
   @DF-RHF iter   2:  -599.01751362422601   -4.55131e-05   2.60814e-06 DIIS
   @DF-RHF iter   3:  -599.01751465992811   -1.03570e-06   3.89472e-07 DIIS
   @DF-RHF iter   4:  -599.01751467722841   -1.73003e-08   2.79997e-08 DIIS
   @DF-RHF iter   5:  -599.01751467733629   -1.07889e-10   6.68265e-09 DIIS
  Energy and wave function converged.


  ==> Post-Iterations <==

    Orbital Energies [Eh]
    ---------------------

    Doubly Occupied:                                                      

       1A   -133.752744     2A    -14.708395     3A    -11.738456  
       4A    -11.738455     5A    -11.738453     6A     -1.963979  
       7A     -1.170678     8A     -1.170669     9A     -1.170627  

    Virtual:                                                              

      10A     -0.146961    11A     -0.095557    12A     -0.095555  
      13A     -0.095549    14A     -0.060644    15A     -0.057956  
      16A     -0.057946    17A     -0.057917    18A     -0.057884  
      19A     -0.057865    20A     -0.045541    21A     -0.045540  
      22A     -0.045536    23A     -0.031336    24A     -0.031318  
      25A     -0.031281    26A     -0.031273    27A     -0.031257  
      28A     -0.018826    29A     -0.018651    30A     -0.018206  
      31A     -0.016202    32A     -0.014047    33A     -0.011074  
      34A     -0.010916    35A     -0.007874    36A     -0.006996  
      37A     -0.003928    38A      0.006322    39A      0.008715  
      40A      0.010210    41A      0.010751    42A      0.011325  
      43A      0.014109    44A      0.037043    45A      0.037395  
      46A      0.043430    47A      0.049692    48A      0.052815  
      49A      0.058371    50A      0.060148    51A      0.063617  
      52A      0.076067    53A      0.079390    54A      0.083449  
      55A      0.089794    56A      0.092050    57A      0.095063  
      58A      0.098734    59A      0.100267    60A      0.104851  
      61A      0.105572    62A      0.115741    63A      0.118046  
      64A      0.128748    65A      0.135774    66A      0.152534  
      67A      0.157249    68A      0.162531    69A      0.169465  
      70A      0.178429    71A      0.183532    72A      0.199098  
      73A      0.203375    74A      0.211735    75A      0.217108  
      76A      0.223844    77A      0.227456    78A      0.230976  
      79A      0.234891    80A      0.239185    81A      0.243379  
      82A      0.245377    83A      0.254116    84A      0.263622  
      85A      0.270534    86A      0.274137    87A      0.278414  
      88A      0.288853    89A      0.289797    90A      0.293109  
      91A      0.298298    92A      0.299783    93A      0.301369  
      94A      0.312518    95A      0.312855    96A      0.317360  
      97A      0.322765    98A      0.329739    99A      0.342280  
     100A      0.347344   101A      0.349638   102A      0.355785  
     103A      0.368308   104A      0.375645   105A      0.380463  
     106A      0.390782   107A      0.397629   108A      0.412286  
     109A      0.414592   110A      0.420971   111A      0.439247  
     112A      0.448843   113A      0.464868   114A      0.474037  
     115A      0.557489   116A      0.571972   117A      0.588194  
     118A      0.604345   119A      0.616561   120A      0.631207  
     121A      0.646255   122A      0.651342   123A      0.657257  
     124A      0.660609   125A      0.669554   126A      0.675110  
     127A      0.679838   128A      0.696074   129A      0.702272  
     130A      0.709358   131A      0.713823   132A      0.719762  
     133A      0.734247   134A      0.742529   135A      0.746943  
     136A      0.755865   137A      0.758072   138A      0.764086  
     139A      0.775762   140A      0.779069   141A      0.782247  
     142A      0.796121   143A      0.799281   144A      0.809525  
     145A      0.811394   146A      0.820291   147A      0.832297  
     148A      0.843979   149A      0.854588   150A      0.861411  
     151A      0.879943   152A      0.883126   153A      0.902643  
     154A      0.904013   155A      0.912955   156A      0.917697  
     157A      0.927948   158A      0.929393   159A      0.938514  
     160A      0.955380   161A      0.961975   162A      0.965058  
     163A      0.973411   164A      0.985826   165A      0.997400  
     166A      1.012492   167A      1.021069   168A      1.024577  
     169A      1.031531   170A      1.041270   171A      1.047798  
     172A      1.056441   173A      1.064222   174A      1.073173  
     175A      1.087381   176A      1.089809   177A      1.103789  
     178A      1.120762   179A      1.131574   180A      1.142321  
     181A      1.152548   182A      1.171784   183A      1.175131  
     184A      1.205037   185A      1.207545   186A      1.224546  
     187A      1.241294   188A      1.314154   189A      1.321055  
     190A      1.328448   191A      1.353898   192A      1.364446  
     193A      1.376194   194A      1.388650   195A      1.418325  
     196A      1.447123   197A      1.521118   198A      1.548692  
     199A      1.575180   200A      1.600616   201A      1.608151  
     202A      1.614800   203A      1.621519   204A      1.634939  
     205A      1.636603   206A      1.663884   207A      1.669027  
     208A      1.677106   209A      1.690623   210A      1.701494  
     211A      1.706406   212A      1.722355   213A      1.735985  
     214A      1.756993   215A      1.762168   216A      1.778442  
     217A      1.797395   218A      1.811192   219A      1.833063  
     220A      1.872287   221A      1.897033   222A      1.900388  
     223A      2.073983   224A      2.201534   225A      2.229018  
     226A      2.263050   227A      2.273282   228A      2.294608  
     229A      2.329300   230A      2.337747   231A      2.348736  
     232A      2.356344   233A      2.370072   234A      2.373585  
     235A      2.379545   236A      2.389032   237A      2.396978  
     238A      2.407786   239A      2.416851   240A      2.426258  
     241A      2.443540   242A      2.446523   243A      2.461880  
     244A      2.473304   245A      2.523570   246A      2.546237  
     247A      2.556973   248A      2.564150   249A      2.590053  
     250A      2.613980   251A      2.641985   252A      2.653127  
     253A      2.670404   254A      2.676523   255A      2.745518  
     256A      2.760160   257A      2.784596   258A      2.881127  
     259A      2.910357   260A      2.976943   261A      2.991668  
     262A      3.007355   263A      3.023550   264A      3.051083  
     265A      3.060224   266A      3.072961   267A      3.077381  
     268A      3.097232   269A      3.110221   270A      3.119124  
     271A      3.130699   272A      3.140660   273A      3.142784  
     274A      3.165504   275A      3.176747   276A      3.221800  
     277A      3.285737   278A      3.322794   279A      3.383934  
     280A      3.391815   281A      3.408192   282A      3.488024  
     283A      3.510278   284A      3.531474   285A      3.546634  
     286A      3.595116   287A      3.775594   288A      4.180440  
     289A      4.191411   290A      4.233938   291A      4.295497  
     292A      4.312212   293A      4.326502   294A      4.334476  
     295A      4.342040   296A      4.362184   297A      4.379073  
     298A      4.415438   299A      4.436308   300A      4.454239  
     301A      4.470601   302A      4.482587   303A      4.489023  
     304A      4.501877   305A      4.536149   306A      4.564612  
     307A      4.568687   308A      4.623501   309A      4.633682  
     310A      4.700089   311A      4.758263   312A      4.774431  
     313A      4.779510   314A      4.791838   315A      4.795753  
     316A      4.810693   317A      4.819172   318A      4.829678  
     319A      4.875087   320A      4.895855   321A      4.904417  
     322A      4.927674   323A      4.930826   324A      4.963884  
     325A      5.033588   326A      5.051054   327A      5.234289  
     328A      5.267786   329A      5.304008   330A      5.334194  
     331A      5.349151   332A      5.387165   333A      5.396305  
     334A      5.407258   335A      5.500207   336A      5.516307  
     337A      5.519936   338A      5.556558   339A      5.573096  
     340A      5.617838   341A      5.694478   342A      5.787846  
     343A      5.816096   344A      5.938380   345A      5.967986  
     346A      5.985862   347A      6.083515   348A      6.107713  
     349A      6.197158   350A      6.272490   351A      6.352039  
     352A      6.483121   353A      6.597965   354A      6.621847  
     355A      6.759735   356A      6.839511   357A      6.887819  
     358A      6.942831   359A      7.084676   360A      7.469859  
     361A      7.474985   362A      7.550629   363A      7.551879  
     364A      7.592678   365A      7.601325   366A      7.716299  
     367A      7.753543   368A      7.837633   369A      7.882820  
     370A      7.907008   371A      7.942761   372A      7.989976  
     373A      8.001089   374A      8.036607   375A      8.055535  
     376A      8.101664   377A      8.146104   378A      8.162497  
     379A      8.199909   380A      8.367674   381A      8.518647  
     382A      8.553006   383A      8.615437   384A      8.640982  
     385A      8.706798   386A      8.832706   387A      8.890048  
     388A      9.515490   389A      9.566063   390A      9.609236  
     391A      9.680921   392A      9.729976   393A      9.752648  
     394A      9.755996   395A      9.782146   396A      9.816852  
     397A      9.845346   398A      9.881031   399A      9.894733  
     400A      9.955797   401A     10.024420   402A     10.103767  
     403A     10.174621   404A     10.846483   405A     10.876815  
     406A     11.022227   407A     11.093527   408A     11.435772  
     409A     11.488828   410A     11.562261   411A     11.596012  
     412A     11.618940   413A     11.944231   414A     12.061383  
     415A     12.368538   416A     13.188186   417A     13.295926  
     418A     13.476425   419A     13.655454   420A     13.673871  
     421A     13.678255   422A     13.735869   423A     13.806922  
     424A     63.047804   425A     64.547891   426A     65.768776  
     427A     66.694040  

    Final Occupation by Irrep:
              A 
    DOCC [     9 ]
    NA   [     9 ]
    NB   [     9 ]

  @DF-RHF Final Energy:  -599.01751467733629

   => Energetics <=

    Nuclear Repulsion Energy =              0.0000000000000000
    One-Electron Energy =                -819.7301184529468401
    Two-Electron Energy =                 220.7126037756106598
    Total Energy =                       -599.0175146773361803

Computation Completed


Properties will be evaluated at   0.000000,   0.000000,   0.000000 [a0]

Properties computed using the SCF density matrix


 Multipole Moments:

 ------------------------------------------------------------------------------------
     Multipole            Electronic (a.u.)      Nuclear  (a.u.)        Total (a.u.)
 ------------------------------------------------------------------------------------

 L = 1.  Multiply by 2.5417464519 to convert [e a0] to [Debye]
 Dipole X            :          0.0000941            0.0000000            0.0000941
 Dipole Y            :          0.0000126            0.0000000            0.0000126
 Dipole Z            :         -0.0002473            0.0000000           -0.0002473
 Magnitude           :                                                    0.0002649

 ------------------------------------------------------------------------------------

*** tstop() called on moses-razer at Wed Jan 24 17:46:02 2024
Module time:
	user time   =      27.96 seconds =       0.47 minutes
	system time =       3.18 seconds =       0.05 minutes
	total time  =         11 seconds =       0.18 minutes
Total time:
	user time   =      27.96 seconds =       0.47 minutes
	system time =       3.18 seconds =       0.05 minutes
	total time  =         11 seconds =       0.18 minutes

*** tstart() called on moses-razer
*** at Wed Jan 24 17:46:02 2024


  //>>>>>>>>>>>>>>>>>>>>>>>>>>>>>>>>>>>//
  //               DFMP2               //
  //<<<<<<<<<<<<<<<<<<<<<<<<<<<<<<<<<<<//

   => Loading Basis Set <=

    Name: (AUG-CC-PVTZ AUX)
    Role: RIFIT
    Keyword: DF_BASIS_MP2
    atoms 1                     entry K          line  1282 file /home/kchung25/anaconda3/envs/p415env/share/psi4/basis/def2-qzvpp-ri.gbs 
    atoms 2, 5, 8, 11           entry O          line   264 file /home/kchung25/anaconda3/envs/p415env/share/psi4/basis/aug-cc-pvtz-ri.gbs 
    atoms 3-4, 6-7, 9-10, 12-13 entry H          line    30 file /home/kchung25/anaconda3/envs/p415env/share/psi4/basis/aug-cc-pvtz-ri.gbs 

	 --------------------------------------------------------
	                          DF-MP2                         
	      2nd-Order Density-Fitted Moller-Plesset Theory     
	              RMP2 Wavefunction,   6 Threads             
	                                                         
	        Rob Parrish, Justin Turney, Andy Simmonett,      
	           Ed Hohenstein, and C. David Sherrill          
	 --------------------------------------------------------

   => Auxiliary Basis Set <=

  Basis Set: (AUG-CC-PVTZ AUX)
    Blend: AUG-CC-PVTZ-RI + DEF2-QZVPP-RI
    Number of shells: 273
    Number of basis functions: 991
    Number of Cartesian functions: 1246
    Spherical Harmonics?: true
    Max angular momentum: 4

	 --------------------------------------------------------
	                 NBF =   427, NAUX =   991
	 --------------------------------------------------------
	   CLASS    FOCC     OCC    AOCC    AVIR     VIR    FVIR
	   PAIRS       0       9       9     418     418       0
	 --------------------------------------------------------

	-----------------------------------------------------------
	 ==================> DF-MP2 Energies <==================== 
	-----------------------------------------------------------
	 Reference Energy          =    -599.0175146773362940 [Eh]
	 Singles Energy            =      -0.0000000000000000 [Eh]
	 Same-Spin Energy          =      -0.0352234392172292 [Eh]
	 Opposite-Spin Energy      =      -0.0850365048526134 [Eh]
	 Correlation Energy        =      -0.1202599440698426 [Eh]
	 Total Energy              =    -599.1377746214061517 [Eh]
	-----------------------------------------------------------
	 ================> DF-SCS-MP2 Energies <================== 
	-----------------------------------------------------------
	 SCS Same-Spin Scale       =       0.3333333333333333 [-]
	 SCS Opposite-Spin Scale   =       1.2000000000000000 [-]
	 SCS Same-Spin Energy      =      -0.0117411464057431 [Eh]
	 SCS Opposite-Spin Energy  =      -0.1020438058231361 [Eh]
	 SCS Correlation Energy    =      -0.1137849522288791 [Eh]
	 SCS Total Energy          =    -599.1312996295652056 [Eh]
	-----------------------------------------------------------


*** tstop() called on moses-razer at Wed Jan 24 17:46:08 2024
Module time:
	user time   =      13.36 seconds =       0.22 minutes
	system time =       1.17 seconds =       0.02 minutes
	total time  =          6 seconds =       0.10 minutes
Total time:
	user time   =      41.32 seconds =       0.69 minutes
	system time =       4.35 seconds =       0.07 minutes
	total time  =         17 seconds =       0.28 minutes

    Psi4 stopped on: Wednesday, 24 January 2024 05:46PM
    Psi4 wall time for execution: 0:00:17.16

*** Psi4 exiting successfully. Buy a developer a beer!
