
    -----------------------------------------------------------------------
          Psi4: An Open-Source Ab Initio Electronic Structure Package
                               Psi4 1.9 release

                         Git: Rev {} zzzzzzz 


    D. G. A. Smith, L. A. Burns, A. C. Simmonett, R. M. Parrish,
    M. C. Schieber, R. Galvelis, P. Kraus, H. Kruse, R. Di Remigio,
    A. Alenaizan, A. M. James, S. Lehtola, J. P. Misiewicz, M. Scheurer,
    R. A. Shaw, J. B. Schriber, Y. Xie, Z. L. Glick, D. A. Sirianni,
    J. S. O'Brien, J. M. Waldrop, A. Kumar, E. G. Hohenstein,
    B. P. Pritchard, B. R. Brooks, H. F. Schaefer III, A. Yu. Sokolov,
    K. Patkowski, A. E. DePrince III, U. Bozkaya, R. A. King,
    F. A. Evangelista, J. M. Turney, T. D. Crawford, C. D. Sherrill,
    J. Chem. Phys. 152(18) 184108 (2020). https://doi.org/10.1063/5.0006002

                            Additional Code Authors
    E. T. Seidl, C. L. Janssen, E. F. Valeev, M. L. Leininger,
    J. F. Gonthier, R. M. Richard, H. R. McAlexander, M. Saitow, X. Wang,
    P. Verma, M. H. Lechner, A. Jiang, S. Behnle, A. G. Heide,
    M. F. Herbst, and D. L. Poole

             Previous Authors, Complete List of Code Contributors,
                       and Citations for Specific Modules
    https://github.com/psi4/psi4/blob/master/codemeta.json
    https://github.com/psi4/psi4/graphs/contributors
    http://psicode.org/psi4manual/master/introduction.html#citing-psifour

    -----------------------------------------------------------------------


    Psi4 started on: Wednesday, 24 January 2024 04:32PM

    Process ID: 1237630
    Host:       moses-razer
    PSIDATADIR: /home/kchung25/anaconda3/envs/psi4_19/share/psi4
    Memory:     500.0 MiB
    Threads:    6
    
  ==> Input File <==

--------------------------------------------------------------------------
MEMORY 60 GB

molecule dimer {
0 1
Gh(K)      0.000000     0.000000     0.000000
Gh(O)      0.075155    -1.723621    -2.222691
Gh(H)      0.160553    -2.664415    -2.167190
Gh(H)      0.364851    -1.484375    -3.131935
Gh(O)      1.231668    -2.456321     1.234605
Gh(H)      1.127068    -3.384287     0.950491
Gh(H)      0.887056    -2.271199     2.158531
O         -2.591511    -1.086420     0.720781
H         -3.095590    -1.651979     1.265500
H         -3.189225    -0.757403     0.067002
Gh(O)      0.999639     2.617895     0.271985
Gh(H)      0.388983     3.122801     0.770979
Gh(H)      1.638461     2.439843     1.007245
Gh(O)      1.255850     0.564449     2.393699
Gh(H)      1.293308     0.072444     3.193687
Gh(H)      1.888924     1.216741     2.629633

units ang
no_reorient
no_com
symmetry c1
}

set {
basis        aug-cc-pVTZ
scf_type     df
}

energy("mp2")
--------------------------------------------------------------------------

  Memory set to  55.879 GiB by Python driver.

Scratch directory: /scratch/
   => Libint2 <=

    Primary   basis highest AM E, G, H:  5, 4, 3
    Auxiliary basis highest AM E, G, H:  6, 5, 4
    Onebody   basis highest AM E, G, H:  6, 5, 4
    Solid Harmonics ordering:            gaussian

*** tstart() called on moses-razer
*** at Wed Jan 24 16:32:31 2024

   => Loading Basis Set <=

    Name: AUG-CC-PVTZ
    Role: ORBITAL
    Keyword: BASIS
    atoms 1                            entry K          line  1152 file /home/kchung25/anaconda3/envs/p415env/share/psi4/basis/aug-cc-pvtz.gbs 
    atoms 2, 5, 8, 11, 14              entry O          line   331 file /home/kchung25/anaconda3/envs/p415env/share/psi4/basis/aug-cc-pvtz.gbs 
    atoms 3-4, 6-7, 9-10, 12-13, 15-16 entry H          line    40 file /home/kchung25/anaconda3/envs/p415env/share/psi4/basis/aug-cc-pvtz.gbs 


         ---------------------------------------------------------
                                   SCF
               by Justin Turney, Rob Parrish, Andy Simmonett
                          and Daniel G. A. Smith
                              RHF Reference
                        6 Threads,  57220 MiB Core
         ---------------------------------------------------------

  ==> Geometry <==

    Molecular point group: c1
    Full point group: C1

    Geometry (in Angstrom), charge = 0, multiplicity = 1:

       Center              X                  Y                   Z               Mass       
    ------------   -----------------  -----------------  -----------------  -----------------
      Gh(K)           0.000000000000     0.000000000000     0.000000000000    38.963706486400
      Gh(O)           0.075155000000    -1.723621000000    -2.222691000000    15.994914619570
      Gh(H)           0.160553000000    -2.664415000000    -2.167190000000     1.007825032230
      Gh(H)           0.364851000000    -1.484375000000    -3.131935000000     1.007825032230
      Gh(O)           1.231668000000    -2.456321000000     1.234605000000    15.994914619570
      Gh(H)           1.127068000000    -3.384287000000     0.950491000000     1.007825032230
      Gh(H)           0.887056000000    -2.271199000000     2.158531000000     1.007825032230
         O           -2.591511000000    -1.086420000000     0.720781000000    15.994914619570
         H           -3.095590000000    -1.651979000000     1.265500000000     1.007825032230
         H           -3.189225000000    -0.757403000000     0.067002000000     1.007825032230
      Gh(O)           0.999639000000     2.617895000000     0.271985000000    15.994914619570
      Gh(H)           0.388983000000     3.122801000000     0.770979000000     1.007825032230
      Gh(H)           1.638461000000     2.439843000000     1.007245000000     1.007825032230
      Gh(O)           1.255850000000     0.564449000000     2.393699000000    15.994914619570
      Gh(H)           1.293308000000     0.072444000000     3.193687000000     1.007825032230
      Gh(H)           1.888924000000     1.216741000000     2.629633000000     1.007825032230

  Running in c1 symmetry.

  Rotational constants: A =      0.04225  B =      0.03138  C =      0.02765 [cm^-1]
  Rotational constants: A =   1266.72895  B =    940.74279  C =    828.97141 [MHz]
  Nuclear repulsion =    9.370110669954689

  Charge       = 0
  Multiplicity = 1
  Electrons    = 10
  Nalpha       = 5
  Nbeta        = 5

  ==> Algorithm <==

  SCF Algorithm Type is DF.
  DIIS enabled.
  MOM disabled.
  Fractional occupation disabled.
  Guess Type is SAD.
  Energy threshold   = 1.00e-08
  Density threshold  = 1.00e-08
  Integral threshold = 1.00e-12

  ==> Primary Basis <==

  Basis Set: AUG-CC-PVTZ
    Blend: AUG-CC-PVTZ
    Number of shells: 179
    Number of basis functions: 519
    Number of Cartesian functions: 594
    Spherical Harmonics?: true
    Max angular momentum: 3

   => Loading Basis Set <=

    Name: (AUG-CC-PVTZ AUX)
    Role: JKFIT
    Keyword: DF_BASIS_SCF
    atoms 1                            entry K          line  1152 file /home/kchung25/anaconda3/envs/p415env/share/psi4/basis/def2-universal-jkfit.gbs 
    atoms 2, 5, 8, 11, 14              entry O          line   286 file /home/kchung25/anaconda3/envs/p415env/share/psi4/basis/aug-cc-pvtz-jkfit.gbs 
    atoms 3-4, 6-7, 9-10, 12-13, 15-16 entry H          line    70 file /home/kchung25/anaconda3/envs/p415env/share/psi4/basis/aug-cc-pvtz-jkfit.gbs 

  ==> Integral Setup <==

  DFHelper Memory: AOs need 2.059 GiB; user supplied 41.910 GiB. 
  Using in-core AOs.

  ==> MemDFJK: Density-Fitted J/K Matrices <==

    J tasked:                   Yes
    K tasked:                   Yes
    wK tasked:                   No
    OpenMP threads:               6
    Memory [MiB]:             42915
    Algorithm:                 Core
    Schwarz Cutoff:           1E-12
    Mask sparsity (%):      13.3293
    Fitting Condition:        1E-10

   => Auxiliary Basis Set <=

  Basis Set: (AUG-CC-PVTZ AUX)
    Blend: AUG-CC-PVTZ-JKFIT + DEF2-UNIVERSAL-JKFIT
    Number of shells: 334
    Number of basis functions: 1140
    Number of Cartesian functions: 1408
    Spherical Harmonics?: true
    Max angular momentum: 4

  Minimum eigenvalue in the overlap matrix is 6.4818515938E-05.
  Reciprocal condition number of the overlap matrix is 4.9149213327E-06.
    Using symmetric orthogonalization.

  ==> Pre-Iterations <==

  SCF Guess: Superposition of Atomic Densities via on-the-fly atomic UHF (no occupation information).

   -------------------------
    Irrep   Nso     Nmo    
   -------------------------
     A        519     519 
   -------------------------
    Total     519     519
   -------------------------

  ==> Iterations <==

                           Total Energy        Delta E     RMS |[F,P]|

   @DF-RHF iter SAD:   -75.49716189773007   -7.54972e+01   0.00000e+00 
   @DF-RHF iter   1:   -75.97761820939499   -4.80456e-01   9.07355e-04 ADIIS/DIIS
   @DF-RHF iter   2:   -76.03082028383518   -5.32021e-02   6.03725e-04 ADIIS/DIIS
   @DF-RHF iter   3:   -76.06075638873875   -2.99361e-02   4.09059e-05 DIIS
   @DF-RHF iter   4:   -76.06112106690547   -3.64678e-04   9.32756e-06 DIIS
   @DF-RHF iter   5:   -76.06114133911963   -2.02722e-05   2.06171e-06 DIIS
   @DF-RHF iter   6:   -76.06114292853019   -1.58941e-06   4.50584e-07 DIIS
   @DF-RHF iter   7:   -76.06114301361691   -8.50867e-08   8.51372e-08 DIIS
   @DF-RHF iter   8:   -76.06114301634939   -2.73248e-09   1.39675e-08 DIIS
   @DF-RHF iter   9:   -76.06114301640619   -5.68008e-11   3.31574e-09 DIIS
  Energy and wave function converged.


  ==> Post-Iterations <==

    Orbital Energies [Eh]
    ---------------------

    Doubly Occupied:                                                      

       1A    -20.563279     2A     -1.362257     3A     -0.730651  
       4A     -0.585748     5A     -0.511524  

    Virtual:                                                              

       6A      0.007073     7A      0.009586     8A      0.010171  
       9A      0.010814    10A      0.018006    11A      0.018358  
      12A      0.018691    13A      0.019010    14A      0.019075  
      15A      0.032868    16A      0.034555    17A      0.036193  
      18A      0.040422    19A      0.057520    20A      0.058518  
      21A      0.058927    22A      0.062092    23A      0.062700  
      24A      0.070101    25A      0.074199    26A      0.075726  
      27A      0.076898    28A      0.078283    29A      0.079617  
      30A      0.083601    31A      0.088684    32A      0.097796  
      33A      0.100841    34A      0.105672    35A      0.113872  
      36A      0.123711    37A      0.131599    38A      0.145958  
      39A      0.152603    40A      0.153874    41A      0.158345  
      42A      0.162622    43A      0.170215    44A      0.172520  
      45A      0.179192    46A      0.180680    47A      0.184642  
      48A      0.187844    49A      0.189729    50A      0.194858  
      51A      0.209026    52A      0.209694    53A      0.211990  
      54A      0.218349    55A      0.222107    56A      0.230223  
      57A      0.239240    58A      0.243164    59A      0.247749  
      60A      0.253543    61A      0.256418    62A      0.262341  
      63A      0.270504    64A      0.281589    65A      0.290955  
      66A      0.298067    67A      0.301768    68A      0.312662  
      69A      0.321644    70A      0.326522    71A      0.335769  
      72A      0.339198    73A      0.349622    74A      0.353589  
      75A      0.356366    76A      0.362015    77A      0.365432  
      78A      0.371715    79A      0.378304    80A      0.385708  
      81A      0.391920    82A      0.395393    83A      0.398418  
      84A      0.406404    85A      0.410285    86A      0.414592  
      87A      0.417974    88A      0.424561    89A      0.424872  
      90A      0.432125    91A      0.435865    92A      0.438846  
      93A      0.441905    94A      0.453997    95A      0.456752  
      96A      0.460000    97A      0.468681    98A      0.472619  
      99A      0.475922   100A      0.481581   101A      0.485850  
     102A      0.491463   103A      0.497944   104A      0.498949  
     105A      0.505101   106A      0.510991   107A      0.516967  
     108A      0.527291   109A      0.536386   110A      0.542776  
     111A      0.556203   112A      0.566936   113A      0.569439  
     114A      0.583239   115A      0.591167   116A      0.595200  
     117A      0.605667   118A      0.615591   119A      0.655568  
     120A      0.687813   121A      0.702717   122A      0.710969  
     123A      0.728150   124A      0.748556   125A      0.749216  
     126A      0.762140   127A      0.766776   128A      0.785470  
     129A      0.788734   130A      0.798179   131A      0.812617  
     132A      0.816759   133A      0.822708   134A      0.824273  
     135A      0.828598   136A      0.842361   137A      0.845496  
     138A      0.852980   139A      0.860519   140A      0.869689  
     141A      0.876083   142A      0.883534   143A      0.895536  
     144A      0.899735   145A      0.905596   146A      0.909119  
     147A      0.914495   148A      0.924090   149A      0.928130  
     150A      0.931271   151A      0.940263   152A      0.942512  
     153A      0.949095   154A      0.953318   155A      0.960674  
     156A      0.962425   157A      0.974058   158A      0.983673  
     159A      0.987400   160A      0.992923   161A      1.000625  
     162A      1.011315   163A      1.012198   164A      1.024081  
     165A      1.027239   166A      1.040471   167A      1.044303  
     168A      1.052712   169A      1.059541   170A      1.076064  
     171A      1.077659   172A      1.084906   173A      1.090569  
     174A      1.095555   175A      1.101738   176A      1.106180  
     177A      1.110353   178A      1.112308   179A      1.127384  
     180A      1.130568   181A      1.138618   182A      1.145314  
     183A      1.149587   184A      1.158949   185A      1.164796  
     186A      1.177947   187A      1.184919   188A      1.194844  
     189A      1.198546   190A      1.203896   191A      1.209137  
     192A      1.217597   193A      1.224182   194A      1.227039  
     195A      1.240320   196A      1.243638   197A      1.255372  
     198A      1.261527   199A      1.274516   200A      1.281435  
     201A      1.293341   202A      1.301227   203A      1.315123  
     204A      1.320116   205A      1.335974   206A      1.344047  
     207A      1.361460   208A      1.368174   209A      1.377939  
     210A      1.390972   211A      1.414717   212A      1.444982  
     213A      1.457747   214A      1.480622   215A      1.507090  
     216A      1.518314   217A      1.525919   218A      1.565980  
     219A      1.589941   220A      1.598471   221A      1.611335  
     222A      1.634756   223A      1.645231   224A      1.651585  
     225A      1.667829   226A      1.697120   227A      1.715794  
     228A      1.726736   229A      1.750840   230A      1.758689  
     231A      1.778849   232A      1.785794   233A      1.799079  
     234A      1.802765   235A      1.819912   236A      1.832478  
     237A      1.845111   238A      1.857822   239A      1.869042  
     240A      1.879986   241A      1.883930   242A      1.887506  
     243A      1.895235   244A      1.915505   245A      1.933832  
     246A      1.944035   247A      1.948167   248A      1.993549  
     249A      2.016028   250A      2.042416   251A      2.049294  
     252A      2.074445   253A      2.164287   254A      2.176583  
     255A      2.213877   256A      2.240807   257A      2.272283  
     258A      2.301233   259A      2.328554   260A      2.339184  
     261A      2.342888   262A      2.365748   263A      2.422284  
     264A      2.424545   265A      2.433444   266A      2.438738  
     267A      2.456852   268A      2.466597   269A      2.475236  
     270A      2.480875   271A      2.497653   272A      2.513990  
     273A      2.526029   274A      2.537320   275A      2.547353  
     276A      2.560567   277A      2.571642   278A      2.581899  
     279A      2.586252   280A      2.594476   281A      2.603774  
     282A      2.616650   283A      2.626836   284A      2.637296  
     285A      2.646758   286A      2.666349   287A      2.669543  
     288A      2.683038   289A      2.695244   290A      2.697134  
     291A      2.724139   292A      2.738469   293A      2.748993  
     294A      2.759611   295A      2.774178   296A      2.786743  
     297A      2.812100   298A      2.818983   299A      2.831426  
     300A      2.852745   301A      2.862571   302A      2.876782  
     303A      2.897532   304A      2.915031   305A      2.924122  
     306A      2.938469   307A      2.973766   308A      2.977947  
     309A      3.002056   310A      3.052981   311A      3.075792  
     312A      3.102939   313A      3.192113   314A      3.203885  
     315A      3.236346   316A      3.254995   317A      3.266161  
     318A      3.275430   319A      3.283336   320A      3.311070  
     321A      3.319665   322A      3.327838   323A      3.342985  
     324A      3.351881   325A      3.381573   326A      3.397044  
     327A      3.399640   328A      3.400190   329A      3.431895  
     330A      3.461395   331A      3.469895   332A      3.539792  
     333A      3.604415   334A      3.634217   335A      3.668345  
     336A      3.682299   337A      3.724433   338A      3.729123  
     339A      3.759907   340A      3.777114   341A      3.797704  
     342A      3.869925   343A      4.068666   344A      4.195931  
     345A      4.254972   346A      4.306165   347A      4.342290  
     348A      4.355734   349A      4.393849   350A      4.441213  
     351A      4.450067   352A      4.469523   353A      4.477894  
     354A      4.484657   355A      4.498420   356A      4.513570  
     357A      4.525691   358A      4.528855   359A      4.537178  
     360A      4.540754   361A      4.558816   362A      4.567435  
     363A      4.571285   364A      4.612099   365A      4.633043  
     366A      4.645889   367A      4.652818   368A      4.688034  
     369A      4.703390   370A      4.732373   371A      4.743155  
     372A      4.754617   373A      4.768040   374A      4.788874  
     375A      4.823394   376A      4.868488   377A      4.905149  
     378A      4.913111   379A      4.924499   380A      4.927844  
     381A      4.949903   382A      4.968977   383A      4.984783  
     384A      5.004267   385A      5.014598   386A      5.030411  
     387A      5.094873   388A      5.099631   389A      5.176159  
     390A      5.187187   391A      5.192754   392A      5.207963  
     393A      5.221596   394A      5.304193   395A      5.340367  
     396A      5.359057   397A      5.445188   398A      5.464004  
     399A      5.490844   400A      5.528311   401A      5.573373  
     402A      5.588640   403A      5.600707   404A      5.638468  
     405A      5.640160   406A      5.688264   407A      5.696012  
     408A      5.738032   409A      5.759015   410A      5.798867  
     411A      5.809883   412A      5.822478   413A      5.844073  
     414A      5.955068   415A      6.086102   416A      6.120036  
     417A      6.154983   418A      6.183855   419A      6.188142  
     420A      6.227718   421A      6.275270   422A      6.318951  
     423A      6.395435   424A      6.402340   425A      6.596218  
     426A      6.682435   427A      6.689456   428A      6.740267  
     429A      6.788958   430A      6.840176   431A      6.948092  
     432A      7.007813   433A      7.101002   434A      7.123810  
     435A      7.197180   436A      7.254881   437A      7.345414  
     438A      7.368281   439A      7.412541   440A      7.428982  
     441A      7.432405   442A      7.655988   443A      7.664429  
     444A      7.699551   445A      7.727528   446A      7.741922  
     447A      7.752265   448A      7.811973   449A      7.966797  
     450A      7.981719   451A      8.010059   452A      8.013945  
     453A      8.077309   454A      8.080745   455A      8.115173  
     456A      8.119705   457A      8.138769   458A      8.184793  
     459A      8.202741   460A      8.207812   461A      8.259762  
     462A      8.291622   463A      8.363205   464A      8.379220  
     465A      8.654116   466A      8.711410   467A      8.741755  
     468A      8.746722   469A      8.837670   470A      8.891362  
     471A      8.926570   472A      8.931095   473A      9.048057  
     474A      9.752967   475A      9.778334   476A      9.796175  
     477A      9.851419   478A      9.913961   479A      9.943417  
     480A      9.979215   481A      9.998248   482A     10.028811  
     483A     10.038518   484A     10.052140   485A     10.086957  
     486A     10.160421   487A     10.232659   488A     10.273479  
     489A     10.316708   490A     10.431852   491A     10.958238  
     492A     11.169799   493A     11.244268   494A     11.486688  
     495A     11.636143   496A     11.673369   497A     11.743923  
     498A     11.816530   499A     11.939335   500A     12.154556  
     501A     12.286905   502A     12.467932   503A     13.342547  
     504A     13.533290   505A     13.664563   506A     13.842845  
     507A     13.864839   508A     13.873477   509A     13.905263  
     510A     13.953198   511A     16.602667   512A     30.797846  
     513A     30.839422   514A     31.078522   515A     63.711990  
     516A     64.621787   517A     65.534477   518A     66.465712  
     519A    198.145182  

    Final Occupation by Irrep:
              A 
    DOCC [     5 ]
    NA   [     5 ]
    NB   [     5 ]

  @DF-RHF Final Energy:   -76.06114301640619

   => Energetics <=

    Nuclear Repulsion Energy =              9.3701106699546894
    One-Electron Energy =                -123.3555870148262983
    Two-Electron Energy =                  37.9243333284654227
    Total Energy =                        -76.0611430164061915

Computation Completed


Properties will be evaluated at   0.000000,   0.000000,   0.000000 [a0]

Properties computed using the SCF density matrix


 Multipole Moments:

 ------------------------------------------------------------------------------------
     Multipole            Electronic (a.u.)      Nuclear  (a.u.)        Total (a.u.)
 ------------------------------------------------------------------------------------

 L = 1.  Multiply by 2.5417464519 to convert [e a0] to [Debye]
 Dipole X            :         50.3099042          -51.0545474           -0.7446432
 Dipole Y            :         20.8162761          -20.9773622           -0.1610861
 Dipole Z            :        -13.4867967           13.4146933           -0.0721033
 Magnitude           :                                                    0.7652719

 ------------------------------------------------------------------------------------

*** tstop() called on moses-razer at Wed Jan 24 16:32:44 2024
Module time:
	user time   =      42.66 seconds =       0.71 minutes
	system time =       2.55 seconds =       0.04 minutes
	total time  =         13 seconds =       0.22 minutes
Total time:
	user time   =      42.66 seconds =       0.71 minutes
	system time =       2.55 seconds =       0.04 minutes
	total time  =         13 seconds =       0.22 minutes

*** tstart() called on moses-razer
*** at Wed Jan 24 16:32:44 2024


  //>>>>>>>>>>>>>>>>>>>>>>>>>>>>>>>>>>>//
  //               DFMP2               //
  //<<<<<<<<<<<<<<<<<<<<<<<<<<<<<<<<<<<//

   => Loading Basis Set <=

    Name: (AUG-CC-PVTZ AUX)
    Role: RIFIT
    Keyword: DF_BASIS_MP2
    atoms 1                            entry K          line  1282 file /home/kchung25/anaconda3/envs/p415env/share/psi4/basis/def2-qzvpp-ri.gbs 
    atoms 2, 5, 8, 11, 14              entry O          line   264 file /home/kchung25/anaconda3/envs/p415env/share/psi4/basis/aug-cc-pvtz-ri.gbs 
    atoms 3-4, 6-7, 9-10, 12-13, 15-16 entry H          line    30 file /home/kchung25/anaconda3/envs/p415env/share/psi4/basis/aug-cc-pvtz-ri.gbs 

	 --------------------------------------------------------
	                          DF-MP2                         
	      2nd-Order Density-Fitted Moller-Plesset Theory     
	              RMP2 Wavefunction,   6 Threads             
	                                                         
	        Rob Parrish, Justin Turney, Andy Simmonett,      
	           Ed Hohenstein, and C. David Sherrill          
	 --------------------------------------------------------

   => Auxiliary Basis Set <=

  Basis Set: (AUG-CC-PVTZ AUX)
    Blend: AUG-CC-PVTZ-RI + DEF2-QZVPP-RI
    Number of shells: 329
    Number of basis functions: 1189
    Number of Cartesian functions: 1492
    Spherical Harmonics?: true
    Max angular momentum: 4

	 --------------------------------------------------------
	                 NBF =   519, NAUX =  1189
	 --------------------------------------------------------
	   CLASS    FOCC     OCC    AOCC    AVIR     VIR    FVIR
	   PAIRS       0       5       5     514     514       0
	 --------------------------------------------------------

	-----------------------------------------------------------
	 ==================> DF-MP2 Energies <==================== 
	-----------------------------------------------------------
	 Reference Energy          =     -76.0611430164061915 [Eh]
	 Singles Energy            =      -0.0000000000000000 [Eh]
	 Same-Spin Energy          =      -0.0680297034194631 [Eh]
	 Opposite-Spin Energy      =      -0.2143995494986785 [Eh]
	 Correlation Energy        =      -0.2824292529181416 [Eh]
	 Total Energy              =     -76.3435722693243264 [Eh]
	-----------------------------------------------------------
	 ================> DF-SCS-MP2 Energies <================== 
	-----------------------------------------------------------
	 SCS Same-Spin Scale       =       0.3333333333333333 [-]
	 SCS Opposite-Spin Scale   =       1.2000000000000000 [-]
	 SCS Same-Spin Energy      =      -0.0226765678064877 [Eh]
	 SCS Opposite-Spin Energy  =      -0.2572794593984142 [Eh]
	 SCS Correlation Energy    =      -0.2799560272049019 [Eh]
	 SCS Total Energy          =     -76.3410990436110950 [Eh]
	-----------------------------------------------------------


*** tstop() called on moses-razer at Wed Jan 24 16:32:52 2024
Module time:
	user time   =      18.31 seconds =       0.31 minutes
	system time =       1.45 seconds =       0.02 minutes
	total time  =          8 seconds =       0.13 minutes
Total time:
	user time   =      60.97 seconds =       1.02 minutes
	system time =       4.00 seconds =       0.07 minutes
	total time  =         21 seconds =       0.35 minutes

    Psi4 stopped on: Wednesday, 24 January 2024 04:32PM
    Psi4 wall time for execution: 0:00:20.62

*** Psi4 exiting successfully. Buy a developer a beer!
