
    -----------------------------------------------------------------------
          Psi4: An Open-Source Ab Initio Electronic Structure Package
                               Psi4 1.9 release

                         Git: Rev {} zzzzzzz 


    D. G. A. Smith, L. A. Burns, A. C. Simmonett, R. M. Parrish,
    M. C. Schieber, R. Galvelis, P. Kraus, H. Kruse, R. Di Remigio,
    A. Alenaizan, A. M. James, S. Lehtola, J. P. Misiewicz, M. Scheurer,
    R. A. Shaw, J. B. Schriber, Y. Xie, Z. L. Glick, D. A. Sirianni,
    J. S. O'Brien, J. M. Waldrop, A. Kumar, E. G. Hohenstein,
    B. P. Pritchard, B. R. Brooks, H. F. Schaefer III, A. Yu. Sokolov,
    K. Patkowski, A. E. DePrince III, U. Bozkaya, R. A. King,
    F. A. Evangelista, J. M. Turney, T. D. Crawford, C. D. Sherrill,
    J. Chem. Phys. 152(18) 184108 (2020). https://doi.org/10.1063/5.0006002

                            Additional Code Authors
    E. T. Seidl, C. L. Janssen, E. F. Valeev, M. L. Leininger,
    J. F. Gonthier, R. M. Richard, H. R. McAlexander, M. Saitow, X. Wang,
    P. Verma, M. H. Lechner, A. Jiang, S. Behnle, A. G. Heide,
    M. F. Herbst, and D. L. Poole

             Previous Authors, Complete List of Code Contributors,
                       and Citations for Specific Modules
    https://github.com/psi4/psi4/blob/master/codemeta.json
    https://github.com/psi4/psi4/graphs/contributors
    http://psicode.org/psi4manual/master/introduction.html#citing-psifour

    -----------------------------------------------------------------------


    Psi4 started on: Wednesday, 24 January 2024 05:13PM

    Process ID: 1244394
    Host:       moses-razer
    PSIDATADIR: /home/kchung25/anaconda3/envs/psi4_19/share/psi4
    Memory:     500.0 MiB
    Threads:    6
    
  ==> Input File <==

--------------------------------------------------------------------------
MEMORY 60 GB

molecule dimer {
0 1
Gh(K)      0.000000     0.000000     0.000000
Gh(O)     -1.202188     2.642841     0.692677
Gh(H)     -0.359877     2.846537     0.288544
Gh(H)     -1.204085     2.921992     1.633837
O         -1.785275    -1.619405     1.542860
H         -1.608427    -2.541342     1.315844
H         -2.705446    -1.468932     1.288631
Gh(O)      0.144826     0.555459     2.652150
Gh(H)     -0.007468     1.382754     3.068522
Gh(H)      0.885053     0.138197     3.140295
Gh(O)      0.561667     0.361770    -2.784131
Gh(H)      0.458919    -0.179426    -3.508356
Gh(H)      0.977542     1.097592    -3.183885
Gh(O)      1.915812    -1.620111     0.708210
Gh(H)      2.736568    -1.603689     1.185820
Gh(H)      2.168479    -1.743309    -0.203061
Gh(O)      1.244176     2.226543    -0.413552
Gh(H)      1.113277     2.980785    -0.948090
Gh(H)      2.029386     2.478591     0.106543

units ang
no_reorient
no_com
symmetry c1
}

set {
basis        aug-cc-pVTZ
scf_type     df
}

energy("mp2")
--------------------------------------------------------------------------

  Memory set to  55.879 GiB by Python driver.

Scratch directory: /scratch/
   => Libint2 <=

    Primary   basis highest AM E, G, H:  5, 4, 3
    Auxiliary basis highest AM E, G, H:  6, 5, 4
    Onebody   basis highest AM E, G, H:  6, 5, 4
    Solid Harmonics ordering:            gaussian

*** tstart() called on moses-razer
*** at Wed Jan 24 17:13:15 2024

   => Loading Basis Set <=

    Name: AUG-CC-PVTZ
    Role: ORBITAL
    Keyword: BASIS
    atoms 1                                   entry K          line  1152 file /home/kchung25/anaconda3/envs/p415env/share/psi4/basis/aug-cc-pvtz.gbs 
    atoms 2, 5, 8, 11, 14, 17                 entry O          line   331 file /home/kchung25/anaconda3/envs/p415env/share/psi4/basis/aug-cc-pvtz.gbs 
    atoms 3-4, 6-7, 9-10, 12-13, 15-16, 18-19 entry H          line    40 file /home/kchung25/anaconda3/envs/p415env/share/psi4/basis/aug-cc-pvtz.gbs 


         ---------------------------------------------------------
                                   SCF
               by Justin Turney, Rob Parrish, Andy Simmonett
                          and Daniel G. A. Smith
                              RHF Reference
                        6 Threads,  57220 MiB Core
         ---------------------------------------------------------

  ==> Geometry <==

    Molecular point group: c1
    Full point group: C1

    Geometry (in Angstrom), charge = 0, multiplicity = 1:

       Center              X                  Y                   Z               Mass       
    ------------   -----------------  -----------------  -----------------  -----------------
      Gh(K)           0.000000000000     0.000000000000     0.000000000000    38.963706486400
      Gh(O)          -1.202188000000     2.642841000000     0.692677000000    15.994914619570
      Gh(H)          -0.359877000000     2.846537000000     0.288544000000     1.007825032230
      Gh(H)          -1.204085000000     2.921992000000     1.633837000000     1.007825032230
         O           -1.785275000000    -1.619405000000     1.542860000000    15.994914619570
         H           -1.608427000000    -2.541342000000     1.315844000000     1.007825032230
         H           -2.705446000000    -1.468932000000     1.288631000000     1.007825032230
      Gh(O)           0.144826000000     0.555459000000     2.652150000000    15.994914619570
      Gh(H)          -0.007468000000     1.382754000000     3.068522000000     1.007825032230
      Gh(H)           0.885053000000     0.138197000000     3.140295000000     1.007825032230
      Gh(O)           0.561667000000     0.361770000000    -2.784131000000    15.994914619570
      Gh(H)           0.458919000000    -0.179426000000    -3.508356000000     1.007825032230
      Gh(H)           0.977542000000     1.097592000000    -3.183885000000     1.007825032230
      Gh(O)           1.915812000000    -1.620111000000     0.708210000000    15.994914619570
      Gh(H)           2.736568000000    -1.603689000000     1.185820000000     1.007825032230
      Gh(H)           2.168479000000    -1.743309000000    -0.203061000000     1.007825032230
      Gh(O)           1.244176000000     2.226543000000    -0.413552000000    15.994914619570
      Gh(H)           1.113277000000     2.980785000000    -0.948090000000     1.007825032230
      Gh(H)           2.029386000000     2.478591000000     0.106543000000     1.007825032230

  Running in c1 symmetry.

  Rotational constants: A =      0.03536  B =      0.03025  C =      0.02393 [cm^-1]
  Rotational constants: A =   1060.02603  B =    906.88925  C =    717.48079 [MHz]
  Nuclear repulsion =    9.108654692814149

  Charge       = 0
  Multiplicity = 1
  Electrons    = 10
  Nalpha       = 5
  Nbeta        = 5

  ==> Algorithm <==

  SCF Algorithm Type is DF.
  DIIS enabled.
  MOM disabled.
  Fractional occupation disabled.
  Guess Type is SAD.
  Energy threshold   = 1.00e-08
  Density threshold  = 1.00e-08
  Integral threshold = 1.00e-12

  ==> Primary Basis <==

  Basis Set: AUG-CC-PVTZ
    Blend: AUG-CC-PVTZ
    Number of shells: 211
    Number of basis functions: 611
    Number of Cartesian functions: 699
    Spherical Harmonics?: true
    Max angular momentum: 3

   => Loading Basis Set <=

    Name: (AUG-CC-PVTZ AUX)
    Role: JKFIT
    Keyword: DF_BASIS_SCF
    atoms 1                                   entry K          line  1152 file /home/kchung25/anaconda3/envs/p415env/share/psi4/basis/def2-universal-jkfit.gbs 
    atoms 2, 5, 8, 11, 14, 17                 entry O          line   286 file /home/kchung25/anaconda3/envs/p415env/share/psi4/basis/aug-cc-pvtz-jkfit.gbs 
    atoms 3-4, 6-7, 9-10, 12-13, 15-16, 18-19 entry H          line    70 file /home/kchung25/anaconda3/envs/p415env/share/psi4/basis/aug-cc-pvtz-jkfit.gbs 

  ==> Integral Setup <==

  DFHelper Memory: AOs need 3.358 GiB; user supplied 41.910 GiB. 
  Using in-core AOs.

  ==> MemDFJK: Density-Fitted J/K Matrices <==

    J tasked:                   Yes
    K tasked:                   Yes
    wK tasked:                   No
    OpenMP threads:               6
    Memory [MiB]:             42915
    Algorithm:                 Core
    Schwarz Cutoff:           1E-12
    Mask sparsity (%):      12.4617
    Fitting Condition:        1E-10

   => Auxiliary Basis Set <=

  Basis Set: (AUG-CC-PVTZ AUX)
    Blend: AUG-CC-PVTZ-JKFIT + DEF2-UNIVERSAL-JKFIT
    Number of shells: 392
    Number of basis functions: 1336
    Number of Cartesian functions: 1649
    Spherical Harmonics?: true
    Max angular momentum: 4

  Minimum eigenvalue in the overlap matrix is 4.2917436547E-05.
  Reciprocal condition number of the overlap matrix is 2.8064109880E-06.
    Using symmetric orthogonalization.

  ==> Pre-Iterations <==

  SCF Guess: Superposition of Atomic Densities via on-the-fly atomic UHF (no occupation information).

   -------------------------
    Irrep   Nso     Nmo    
   -------------------------
     A        611     611 
   -------------------------
    Total     611     611
   -------------------------

  ==> Iterations <==

                           Total Energy        Delta E     RMS |[F,P]|

   @DF-RHF iter SAD:   -75.46716622317830   -7.54672e+01   0.00000e+00 
   @DF-RHF iter   1:   -75.97541153861023   -5.08245e-01   7.65788e-04 ADIIS/DIIS
   @DF-RHF iter   2:   -76.02766688369898   -5.22553e-02   5.25531e-04 ADIIS/DIIS
   @DF-RHF iter   3:   -76.05954698097943   -3.18801e-02   3.57600e-05 DIIS
   @DF-RHF iter   4:   -76.05994636611702   -3.99385e-04   8.68292e-06 DIIS
   @DF-RHF iter   5:   -76.05997211166222   -2.57455e-05   1.98150e-06 DIIS
   @DF-RHF iter   6:   -76.05997424056821   -2.12891e-06   4.36257e-07 DIIS
   @DF-RHF iter   7:   -76.05997435401085   -1.13443e-07   7.92217e-08 DIIS
   @DF-RHF iter   8:   -76.05997435729472   -3.28387e-09   1.33728e-08 DIIS
   @DF-RHF iter   9:   -76.05997435736924   -7.45217e-11   3.34643e-09 DIIS
  Energy and wave function converged.


  ==> Post-Iterations <==

    Orbital Energies [Eh]
    ---------------------

    Doubly Occupied:                                                      

       1A    -20.568344     2A     -1.348528     3A     -0.714099  
       4A     -0.581957     5A     -0.509416  

    Virtual:                                                              

       6A      0.006657     7A      0.009328     8A      0.009632  
       9A      0.010807    10A      0.017566    11A      0.018134  
      12A      0.018648    13A      0.018823    14A      0.018955  
      15A      0.031646    16A      0.033166    17A      0.034580  
      18A      0.038323    19A      0.052999    20A      0.056538  
      21A      0.057917    22A      0.059664    23A      0.062125  
      24A      0.071747    25A      0.073770    26A      0.076213  
      27A      0.076750    28A      0.077893    29A      0.080128  
      30A      0.082923    31A      0.084944    32A      0.087202  
      33A      0.096059    34A      0.099767    35A      0.101966  
      36A      0.102848    37A      0.121954    38A      0.133544  
      39A      0.136943    40A      0.140453    41A      0.149615  
      42A      0.154573    43A      0.157133    44A      0.163877  
      45A      0.167517    46A      0.169386    47A      0.171356  
      48A      0.174981    49A      0.181815    50A      0.188684  
      51A      0.190229    52A      0.195625    53A      0.206139  
      54A      0.209281    55A      0.212359    56A      0.215869  
      57A      0.218838    58A      0.225058    59A      0.227046  
      60A      0.233763    61A      0.236837    62A      0.250551  
      63A      0.252688    64A      0.258629    65A      0.262275  
      66A      0.267938    67A      0.277862    68A      0.284110  
      69A      0.288145    70A      0.292400    71A      0.300677  
      72A      0.306562    73A      0.312403    74A      0.320952  
      75A      0.327255    76A      0.331998    77A      0.341386  
      78A      0.344794    79A      0.349969    80A      0.354005  
      81A      0.359047    82A      0.362988    83A      0.374447  
      84A      0.377675    85A      0.384778    86A      0.386444  
      87A      0.391035    88A      0.397822    89A      0.398745  
      90A      0.403123    91A      0.412334    92A      0.415896  
      93A      0.419833    94A      0.424288    95A      0.427708  
      96A      0.434249    97A      0.440490    98A      0.444301  
      99A      0.448687   100A      0.453462   101A      0.457252  
     102A      0.462553   103A      0.467732   104A      0.470354  
     105A      0.476178   106A      0.478226   107A      0.479077  
     108A      0.485132   109A      0.487722   110A      0.493718  
     111A      0.499351   112A      0.500772   113A      0.508006  
     114A      0.514885   115A      0.516657   116A      0.525397  
     117A      0.529432   118A      0.536349   119A      0.538011  
     120A      0.545818   121A      0.550991   122A      0.562158  
     123A      0.568797   124A      0.572890   125A      0.579186  
     126A      0.590793   127A      0.594614   128A      0.609692  
     129A      0.623462   130A      0.640163   131A      0.646534  
     132A      0.661428   133A      0.669840   134A      0.690954  
     135A      0.724132   136A      0.730038   137A      0.743159  
     138A      0.748068   139A      0.758962   140A      0.773583  
     141A      0.781736   142A      0.784912   143A      0.799833  
     144A      0.801687   145A      0.807946   146A      0.813493  
     147A      0.819967   148A      0.826402   149A      0.829885  
     150A      0.836511   151A      0.851716   152A      0.857581  
     153A      0.858529   154A      0.869430   155A      0.875729  
     156A      0.877587   157A      0.881869   158A      0.890469  
     159A      0.892252   160A      0.903347   161A      0.905098  
     162A      0.913920   163A      0.918445   164A      0.925276  
     165A      0.930214   166A      0.934587   167A      0.945337  
     168A      0.949176   169A      0.957115   170A      0.960442  
     171A      0.966774   172A      0.969499   173A      0.970147  
     174A      0.974977   175A      0.980917   176A      0.986976  
     177A      0.988486   178A      1.001236   179A      1.007569  
     180A      1.008382   181A      1.016226   182A      1.023631  
     183A      1.025555   184A      1.034968   185A      1.045399  
     186A      1.051444   187A      1.062126   188A      1.066314  
     189A      1.073102   190A      1.076028   191A      1.077683  
     192A      1.092269   193A      1.096649   194A      1.097736  
     195A      1.110838   196A      1.111487   197A      1.119537  
     198A      1.123697   199A      1.129259   200A      1.138025  
     201A      1.140161   202A      1.147603   203A      1.150037  
     204A      1.157670   205A      1.166307   206A      1.169311  
     207A      1.173703   208A      1.175926   209A      1.191170  
     210A      1.197282   211A      1.204863   212A      1.212137  
     213A      1.215625   214A      1.231024   215A      1.231373  
     216A      1.234421   217A      1.241452   218A      1.244950  
     219A      1.252471   220A      1.257919   221A      1.269928  
     222A      1.278519   223A      1.282987   224A      1.289983  
     225A      1.293288   226A      1.304425   227A      1.311560  
     228A      1.319774   229A      1.337201   230A      1.352428  
     231A      1.353172   232A      1.362618   233A      1.372043  
     234A      1.375279   235A      1.388754   236A      1.401648  
     237A      1.408481   238A      1.423240   239A      1.427895  
     240A      1.442633   241A      1.460973   242A      1.474420  
     243A      1.480134   244A      1.496776   245A      1.520686  
     246A      1.539097   247A      1.544933   248A      1.551360  
     249A      1.576525   250A      1.593823   251A      1.601739  
     252A      1.606924   253A      1.617337   254A      1.631647  
     255A      1.640034   256A      1.650791   257A      1.661223  
     258A      1.676643   259A      1.697007   260A      1.699736  
     261A      1.734307   262A      1.738370   263A      1.763143  
     264A      1.777210   265A      1.791873   266A      1.795066  
     267A      1.808425   268A      1.823488   269A      1.834819  
     270A      1.849544   271A      1.860524   272A      1.863487  
     273A      1.878391   274A      1.880405   275A      1.902773  
     276A      1.917385   277A      1.920216   278A      1.922554  
     279A      1.930742   280A      1.945015   281A      1.966677  
     282A      1.982996   283A      1.989144   284A      1.996418  
     285A      2.005813   286A      2.022629   287A      2.035951  
     288A      2.056282   289A      2.067554   290A      2.099764  
     291A      2.106405   292A      2.148922   293A      2.168992  
     294A      2.171887   295A      2.188515   296A      2.250703  
     297A      2.319326   298A      2.329717   299A      2.363181  
     300A      2.375126   301A      2.384956   302A      2.410822  
     303A      2.421121   304A      2.433906   305A      2.448264  
     306A      2.471274   307A      2.484840   308A      2.492789  
     309A      2.513804   310A      2.524281   311A      2.542571  
     312A      2.552144   313A      2.558916   314A      2.567352  
     315A      2.570068   316A      2.577383   317A      2.587030  
     318A      2.597159   319A      2.605890   320A      2.611535  
     321A      2.629015   322A      2.630533   323A      2.648352  
     324A      2.658940   325A      2.661941   326A      2.670669  
     327A      2.679737   328A      2.684693   329A      2.693252  
     330A      2.711172   331A      2.722406   332A      2.730138  
     333A      2.746460   334A      2.750038   335A      2.768715  
     336A      2.780072   337A      2.785612   338A      2.803619  
     339A      2.810645   340A      2.827436   341A      2.834609  
     342A      2.854356   343A      2.864756   344A      2.873208  
     345A      2.885346   346A      2.910975   347A      2.926566  
     348A      2.930795   349A      2.940032   350A      2.947153  
     351A      2.958045   352A      2.974539   353A      2.989849  
     354A      3.009900   355A      3.026676   356A      3.039659  
     357A      3.075809   358A      3.093038   359A      3.111741  
     360A      3.137251   361A      3.175045   362A      3.244446  
     363A      3.250725   364A      3.276175   365A      3.278735  
     366A      3.293330   367A      3.298704   368A      3.309245  
     369A      3.317976   370A      3.321620   371A      3.349525  
     372A      3.363616   373A      3.371666   374A      3.377704  
     375A      3.398526   376A      3.401529   377A      3.409635  
     378A      3.415787   379A      3.430573   380A      3.446714  
     381A      3.468684   382A      3.485299   383A      3.495171  
     384A      3.527040   385A      3.554688   386A      3.582113  
     387A      3.632722   388A      3.658138   389A      3.677475  
     390A      3.704657   391A      3.710909   392A      3.742675  
     393A      3.758742   394A      3.798112   395A      3.811407  
     396A      3.835025   397A      3.853772   398A      3.955458  
     399A      4.012506   400A      4.093123   401A      4.256842  
     402A      4.275589   403A      4.293830   404A      4.370176  
     405A      4.410533   406A      4.446836   407A      4.457521  
     408A      4.463362   409A      4.472606   410A      4.494415  
     411A      4.498177   412A      4.519941   413A      4.529923  
     414A      4.531947   415A      4.535411   416A      4.547976  
     417A      4.554149   418A      4.580192   419A      4.589394  
     420A      4.597659   421A      4.604224   422A      4.637817  
     423A      4.646513   424A      4.676931   425A      4.689699  
     426A      4.696870   427A      4.709359   428A      4.729253  
     429A      4.736997   430A      4.749258   431A      4.761426  
     432A      4.779959   433A      4.796612   434A      4.804642  
     435A      4.821945   436A      4.831696   437A      4.846450  
     438A      4.851273   439A      4.894589   440A      4.903563  
     441A      4.931982   442A      4.954629   443A      4.966714  
     444A      4.994235   445A      5.002576   446A      5.010185  
     447A      5.024810   448A      5.030038   449A      5.060997  
     450A      5.095321   451A      5.114027   452A      5.139236  
     453A      5.144638   454A      5.159877   455A      5.189095  
     456A      5.230736   457A      5.235042   458A      5.259878  
     459A      5.279123   460A      5.294661   461A      5.302417  
     462A      5.351683   463A      5.367314   464A      5.376331  
     465A      5.502104   466A      5.520843   467A      5.580861  
     468A      5.598813   469A      5.610544   470A      5.636667  
     471A      5.644971   472A      5.681095   473A      5.694253  
     474A      5.714958   475A      5.743831   476A      5.754124  
     477A      5.779532   478A      5.786743   479A      5.798422  
     480A      5.822522   481A      5.859667   482A      5.904942  
     483A      5.921625   484A      5.945252   485A      6.041056  
     486A      6.088087   487A      6.149847   488A      6.179553  
     489A      6.229105   490A      6.278072   491A      6.302259  
     492A      6.361266   493A      6.439081   494A      6.455641  
     495A      6.470620   496A      6.498527   497A      6.579325  
     498A      6.615052   499A      6.739855   500A      6.759994  
     501A      6.795024   502A      6.808855   503A      6.849787  
     504A      6.884505   505A      6.942087   506A      7.132676  
     507A      7.150186   508A      7.177555   509A      7.184996  
     510A      7.242856   511A      7.308962   512A      7.323081  
     513A      7.335067   514A      7.357366   515A      7.413229  
     516A      7.455495   517A      7.588670   518A      7.704491  
     519A      7.731547   520A      7.762365   521A      7.776824  
     522A      7.787705   523A      7.842337   524A      7.859076  
     525A      7.873421   526A      7.925445   527A      7.931546  
     528A      7.968368   529A      7.984412   530A      8.116179  
     531A      8.123724   532A      8.135124   533A      8.173780  
     534A      8.199306   535A      8.229887   536A      8.238556  
     537A      8.251262   538A      8.264887   539A      8.327836  
     540A      8.331229   541A      8.336508   542A      8.362687  
     543A      8.393630   544A      8.493859   545A      8.765834  
     546A      8.803491   547A      8.834276   548A      8.856296  
     549A      8.892209   550A      8.903966   551A      8.924206  
     552A      8.970584   553A      8.990488   554A      9.074768  
     555A      9.106837   556A      9.815374   557A      9.834903  
     558A      9.841117   559A      9.892268   560A      9.957051  
     561A      9.963703   562A      9.979263   563A      9.987075  
     564A     10.017100   565A     10.040158   566A     10.044958  
     567A     10.049486   568A     10.077602   569A     10.157476  
     570A     10.240719   571A     10.255518   572A     10.272580  
     573A     10.284626   574A     10.295900   575A     10.312556  
     576A     10.531015   577A     11.148615   578A     11.219105  
     579A     11.302532   580A     11.314811   581A     11.538013  
     582A     11.733379   583A     11.767419   584A     11.781790  
     585A     11.888761   586A     12.023184   587A     12.286300  
     588A     12.292189   589A     12.344367   590A     12.584974  
     591A     12.632035   592A     13.627904   593A     13.654411  
     594A     13.681051   595A     13.786072   596A     13.830431  
     597A     13.873064   598A     13.946604   599A     13.973808  
     600A     14.030432   601A     14.079849   602A     15.802744  
     603A     31.063991   604A     31.333481   605A     31.406144  
     606A     65.464155   607A     65.721844   608A     66.564216  
     609A     67.123604   610A     67.380258   611A    198.307632  

    Final Occupation by Irrep:
              A 
    DOCC [     5 ]
    NA   [     5 ]
    NB   [     5 ]

  @DF-RHF Final Energy:   -76.05997435736924

   => Energetics <=

    Nuclear Repulsion Energy =              9.1086546928141487
    One-Electron Energy =                -122.8925663680923321
    Two-Electron Energy =                  37.7239373179089270
    Total Energy =                        -76.0599743573692422

Computation Completed


Properties will be evaluated at   0.000000,   0.000000,   0.000000 [a0]

Properties computed using the SCF density matrix


 Multipole Moments:

 ------------------------------------------------------------------------------------
     Multipole            Electronic (a.u.)      Nuclear  (a.u.)        Total (a.u.)
 ------------------------------------------------------------------------------------

 L = 1.  Multiply by 2.5417464519 to convert [e a0] to [Debye]
 Dipole X            :         34.6489352          -35.1414850           -0.4925497
 Dipole Y            :         31.5488013          -32.0601750           -0.5113737
 Dipole Z            :        -28.5651713           28.2464072           -0.3187640
 Magnitude           :                                                    0.7782794

 ------------------------------------------------------------------------------------

*** tstop() called on moses-razer at Wed Jan 24 17:13:33 2024
Module time:
	user time   =      72.13 seconds =       1.20 minutes
	system time =       3.35 seconds =       0.06 minutes
	total time  =         18 seconds =       0.30 minutes
Total time:
	user time   =      72.13 seconds =       1.20 minutes
	system time =       3.35 seconds =       0.06 minutes
	total time  =         18 seconds =       0.30 minutes

*** tstart() called on moses-razer
*** at Wed Jan 24 17:13:33 2024


  //>>>>>>>>>>>>>>>>>>>>>>>>>>>>>>>>>>>//
  //               DFMP2               //
  //<<<<<<<<<<<<<<<<<<<<<<<<<<<<<<<<<<<//

   => Loading Basis Set <=

    Name: (AUG-CC-PVTZ AUX)
    Role: RIFIT
    Keyword: DF_BASIS_MP2
    atoms 1                                   entry K          line  1282 file /home/kchung25/anaconda3/envs/p415env/share/psi4/basis/def2-qzvpp-ri.gbs 
    atoms 2, 5, 8, 11, 14, 17                 entry O          line   264 file /home/kchung25/anaconda3/envs/p415env/share/psi4/basis/aug-cc-pvtz-ri.gbs 
    atoms 3-4, 6-7, 9-10, 12-13, 15-16, 18-19 entry H          line    30 file /home/kchung25/anaconda3/envs/p415env/share/psi4/basis/aug-cc-pvtz-ri.gbs 

	 --------------------------------------------------------
	                          DF-MP2                         
	      2nd-Order Density-Fitted Moller-Plesset Theory     
	              RMP2 Wavefunction,   6 Threads             
	                                                         
	        Rob Parrish, Justin Turney, Andy Simmonett,      
	           Ed Hohenstein, and C. David Sherrill          
	 --------------------------------------------------------

   => Auxiliary Basis Set <=

  Basis Set: (AUG-CC-PVTZ AUX)
    Blend: AUG-CC-PVTZ-RI + DEF2-QZVPP-RI
    Number of shells: 385
    Number of basis functions: 1387
    Number of Cartesian functions: 1738
    Spherical Harmonics?: true
    Max angular momentum: 4

	 --------------------------------------------------------
	                 NBF =   611, NAUX =  1387
	 --------------------------------------------------------
	   CLASS    FOCC     OCC    AOCC    AVIR     VIR    FVIR
	   PAIRS       0       5       5     606     606       0
	 --------------------------------------------------------

	-----------------------------------------------------------
	 ==================> DF-MP2 Energies <==================== 
	-----------------------------------------------------------
	 Reference Energy          =     -76.0599743573692422 [Eh]
	 Singles Energy            =      -0.0000000000000000 [Eh]
	 Same-Spin Energy          =      -0.0685274104557199 [Eh]
	 Opposite-Spin Energy      =      -0.2159963792425232 [Eh]
	 Correlation Energy        =      -0.2845237896982431 [Eh]
	 Total Energy              =     -76.3444981470674833 [Eh]
	-----------------------------------------------------------
	 ================> DF-SCS-MP2 Energies <================== 
	-----------------------------------------------------------
	 SCS Same-Spin Scale       =       0.3333333333333333 [-]
	 SCS Opposite-Spin Scale   =       1.2000000000000000 [-]
	 SCS Same-Spin Energy      =      -0.0228424701519066 [Eh]
	 SCS Opposite-Spin Energy  =      -0.2591956550910278 [Eh]
	 SCS Correlation Energy    =      -0.2820381252429345 [Eh]
	 SCS Total Energy          =     -76.3420124826121764 [Eh]
	-----------------------------------------------------------


*** tstop() called on moses-razer at Wed Jan 24 17:13:44 2024
Module time:
	user time   =      25.79 seconds =       0.43 minutes
	system time =       1.80 seconds =       0.03 minutes
	total time  =         11 seconds =       0.18 minutes
Total time:
	user time   =      97.93 seconds =       1.63 minutes
	system time =       5.15 seconds =       0.09 minutes
	total time  =         29 seconds =       0.48 minutes

    Psi4 stopped on: Wednesday, 24 January 2024 05:13PM
    Psi4 wall time for execution: 0:00:29.26

*** Psi4 exiting successfully. Buy a developer a beer!
