
    -----------------------------------------------------------------------
          Psi4: An Open-Source Ab Initio Electronic Structure Package
                               Psi4 1.9 release

                         Git: Rev {} zzzzzzz 


    D. G. A. Smith, L. A. Burns, A. C. Simmonett, R. M. Parrish,
    M. C. Schieber, R. Galvelis, P. Kraus, H. Kruse, R. Di Remigio,
    A. Alenaizan, A. M. James, S. Lehtola, J. P. Misiewicz, M. Scheurer,
    R. A. Shaw, J. B. Schriber, Y. Xie, Z. L. Glick, D. A. Sirianni,
    J. S. O'Brien, J. M. Waldrop, A. Kumar, E. G. Hohenstein,
    B. P. Pritchard, B. R. Brooks, H. F. Schaefer III, A. Yu. Sokolov,
    K. Patkowski, A. E. DePrince III, U. Bozkaya, R. A. King,
    F. A. Evangelista, J. M. Turney, T. D. Crawford, C. D. Sherrill,
    J. Chem. Phys. 152(18) 184108 (2020). https://doi.org/10.1063/5.0006002

                            Additional Code Authors
    E. T. Seidl, C. L. Janssen, E. F. Valeev, M. L. Leininger,
    J. F. Gonthier, R. M. Richard, H. R. McAlexander, M. Saitow, X. Wang,
    P. Verma, M. H. Lechner, A. Jiang, S. Behnle, A. G. Heide,
    M. F. Herbst, and D. L. Poole

             Previous Authors, Complete List of Code Contributors,
                       and Citations for Specific Modules
    https://github.com/psi4/psi4/blob/master/codemeta.json
    https://github.com/psi4/psi4/graphs/contributors
    http://psicode.org/psi4manual/master/introduction.html#citing-psifour

    -----------------------------------------------------------------------


    Psi4 started on: Wednesday, 24 January 2024 03:13PM

    Process ID: 1220276
    Host:       moses-razer
    PSIDATADIR: /home/kchung25/anaconda3/envs/psi4_19/share/psi4
    Memory:     500.0 MiB
    Threads:    6
    
  ==> Input File <==

--------------------------------------------------------------------------
MEMORY 60 GB

molecule dimer {
0 1
Gh(K)      0.000000     0.000000     0.000000
O         -1.624696     1.170589    -1.773297
H         -2.481887     0.884131    -1.505250
H         -1.740444     1.131366    -2.691646
Gh(O)      1.825084     2.002345    -0.856271
Gh(H)      2.736729     1.760906    -0.931498
Gh(H)      1.835268     2.896585    -0.440370
Gh(O)      2.864344    -0.844859     0.005723
Gh(H)      2.698983    -1.133793    -0.900163
Gh(H)      3.529909    -0.153569    -0.092673
Gh(O)      0.154222    -1.854253     2.188230
Gh(H)      0.676628    -2.434760     1.536156
Gh(H)      0.442297    -1.788222     3.119830
Gh(O)     -1.619276     1.879651     1.526773
Gh(H)     -1.466252     1.473301     2.383724
Gh(H)     -2.509648     2.026489     1.441369
Gh(O)     -0.827346    -1.993974    -1.708939
Gh(H)     -1.116939    -1.685994    -2.556826
Gh(H)     -1.616419    -2.415908    -1.284760

units ang
no_reorient
no_com
symmetry c1
}

set {
basis        aug-cc-pVTZ
scf_type     df
}

energy("mp2")
--------------------------------------------------------------------------

  Memory set to  55.879 GiB by Python driver.

Scratch directory: /scratch/
   => Libint2 <=

    Primary   basis highest AM E, G, H:  5, 4, 3
    Auxiliary basis highest AM E, G, H:  6, 5, 4
    Onebody   basis highest AM E, G, H:  6, 5, 4
    Solid Harmonics ordering:            gaussian

*** tstart() called on moses-razer
*** at Wed Jan 24 15:13:38 2024

   => Loading Basis Set <=

    Name: AUG-CC-PVTZ
    Role: ORBITAL
    Keyword: BASIS
    atoms 1                                   entry K          line  1152 file /home/kchung25/anaconda3/envs/p415env/share/psi4/basis/aug-cc-pvtz.gbs 
    atoms 2, 5, 8, 11, 14, 17                 entry O          line   331 file /home/kchung25/anaconda3/envs/p415env/share/psi4/basis/aug-cc-pvtz.gbs 
    atoms 3-4, 6-7, 9-10, 12-13, 15-16, 18-19 entry H          line    40 file /home/kchung25/anaconda3/envs/p415env/share/psi4/basis/aug-cc-pvtz.gbs 


         ---------------------------------------------------------
                                   SCF
               by Justin Turney, Rob Parrish, Andy Simmonett
                          and Daniel G. A. Smith
                              RHF Reference
                        6 Threads,  57220 MiB Core
         ---------------------------------------------------------

  ==> Geometry <==

    Molecular point group: c1
    Full point group: C1

    Geometry (in Angstrom), charge = 0, multiplicity = 1:

       Center              X                  Y                   Z               Mass       
    ------------   -----------------  -----------------  -----------------  -----------------
      Gh(K)           0.000000000000     0.000000000000     0.000000000000    38.963706486400
         O           -1.624696000000     1.170589000000    -1.773297000000    15.994914619570
         H           -2.481887000000     0.884131000000    -1.505250000000     1.007825032230
         H           -1.740444000000     1.131366000000    -2.691646000000     1.007825032230
      Gh(O)           1.825084000000     2.002345000000    -0.856271000000    15.994914619570
      Gh(H)           2.736729000000     1.760906000000    -0.931498000000     1.007825032230
      Gh(H)           1.835268000000     2.896585000000    -0.440370000000     1.007825032230
      Gh(O)           2.864344000000    -0.844859000000     0.005723000000    15.994914619570
      Gh(H)           2.698983000000    -1.133793000000    -0.900163000000     1.007825032230
      Gh(H)           3.529909000000    -0.153569000000    -0.092673000000     1.007825032230
      Gh(O)           0.154222000000    -1.854253000000     2.188230000000    15.994914619570
      Gh(H)           0.676628000000    -2.434760000000     1.536156000000     1.007825032230
      Gh(H)           0.442297000000    -1.788222000000     3.119830000000     1.007825032230
      Gh(O)          -1.619276000000     1.879651000000     1.526773000000    15.994914619570
      Gh(H)          -1.466252000000     1.473301000000     2.383724000000     1.007825032230
      Gh(H)          -2.509648000000     2.026489000000     1.441369000000     1.007825032230
      Gh(O)          -0.827346000000    -1.993974000000    -1.708939000000    15.994914619570
      Gh(H)          -1.116939000000    -1.685994000000    -2.556826000000     1.007825032230
      Gh(H)          -1.616419000000    -2.415908000000    -1.284760000000     1.007825032230

  Running in c1 symmetry.

  Rotational constants: A =      0.03135  B =      0.02720  C =      0.02565 [cm^-1]
  Rotational constants: A =    939.72946  B =    815.47994  C =    769.06389 [MHz]
  Nuclear repulsion =    9.432738978483741

  Charge       = 0
  Multiplicity = 1
  Electrons    = 10
  Nalpha       = 5
  Nbeta        = 5

  ==> Algorithm <==

  SCF Algorithm Type is DF.
  DIIS enabled.
  MOM disabled.
  Fractional occupation disabled.
  Guess Type is SAD.
  Energy threshold   = 1.00e-08
  Density threshold  = 1.00e-08
  Integral threshold = 1.00e-12

  ==> Primary Basis <==

  Basis Set: AUG-CC-PVTZ
    Blend: AUG-CC-PVTZ
    Number of shells: 211
    Number of basis functions: 611
    Number of Cartesian functions: 699
    Spherical Harmonics?: true
    Max angular momentum: 3

   => Loading Basis Set <=

    Name: (AUG-CC-PVTZ AUX)
    Role: JKFIT
    Keyword: DF_BASIS_SCF
    atoms 1                                   entry K          line  1152 file /home/kchung25/anaconda3/envs/p415env/share/psi4/basis/def2-universal-jkfit.gbs 
    atoms 2, 5, 8, 11, 14, 17                 entry O          line   286 file /home/kchung25/anaconda3/envs/p415env/share/psi4/basis/aug-cc-pvtz-jkfit.gbs 
    atoms 3-4, 6-7, 9-10, 12-13, 15-16, 18-19 entry H          line    70 file /home/kchung25/anaconda3/envs/p415env/share/psi4/basis/aug-cc-pvtz-jkfit.gbs 

  ==> Integral Setup <==

  DFHelper Memory: AOs need 3.311 GiB; user supplied 41.910 GiB. 
  Using in-core AOs.

  ==> MemDFJK: Density-Fitted J/K Matrices <==

    J tasked:                   Yes
    K tasked:                   Yes
    wK tasked:                   No
    OpenMP threads:               6
    Memory [MiB]:             42915
    Algorithm:                 Core
    Schwarz Cutoff:           1E-12
    Mask sparsity (%):      13.7405
    Fitting Condition:        1E-10

   => Auxiliary Basis Set <=

  Basis Set: (AUG-CC-PVTZ AUX)
    Blend: AUG-CC-PVTZ-JKFIT + DEF2-UNIVERSAL-JKFIT
    Number of shells: 392
    Number of basis functions: 1336
    Number of Cartesian functions: 1649
    Spherical Harmonics?: true
    Max angular momentum: 4

  Minimum eigenvalue in the overlap matrix is 5.9577281838E-05.
  Reciprocal condition number of the overlap matrix is 4.1760880031E-06.
    Using symmetric orthogonalization.

  ==> Pre-Iterations <==

  SCF Guess: Superposition of Atomic Densities via on-the-fly atomic UHF (no occupation information).

   -------------------------
    Irrep   Nso     Nmo    
   -------------------------
     A        611     611 
   -------------------------
    Total     611     611
   -------------------------

  ==> Iterations <==

                           Total Energy        Delta E     RMS |[F,P]|

   @DF-RHF iter SAD:   -75.50953740602007   -7.55095e+01   0.00000e+00 
   @DF-RHF iter   1:   -75.97530405158099   -4.65767e-01   7.72299e-04 DIIS/ADIIS
   @DF-RHF iter   2:   -76.02892189981632   -5.36178e-02   5.14709e-04 DIIS/ADIIS
   @DF-RHF iter   3:   -76.05907575735145   -3.01539e-02   3.46769e-05 DIIS
   @DF-RHF iter   4:   -76.05942886431144   -3.53107e-04   7.87096e-06 DIIS
   @DF-RHF iter   5:   -76.05944861846206   -1.97542e-05   1.77530e-06 DIIS
   @DF-RHF iter   6:   -76.05945019450024   -1.57604e-06   3.79986e-07 DIIS
   @DF-RHF iter   7:   -76.05945027403700   -7.95368e-08   6.68312e-08 DIIS
   @DF-RHF iter   8:   -76.05945027622666   -2.18965e-09   1.09057e-08 DIIS
   @DF-RHF iter   9:   -76.05945027626967   -4.30163e-11   2.39220e-09 DIIS
  Energy and wave function converged.


  ==> Post-Iterations <==

    Orbital Energies [Eh]
    ---------------------

    Doubly Occupied:                                                      

       1A    -20.565169     2A     -1.370065     3A     -0.718649  
       4A     -0.600339     5A     -0.513820  

    Virtual:                                                              

       6A      0.006588     7A      0.009476     8A      0.009763  
       9A      0.010837    10A      0.017745    11A      0.017942  
      12A      0.018440    13A      0.018573    14A      0.019030  
      15A      0.030522    16A      0.033864    17A      0.035017  
      18A      0.040112    19A      0.054576    20A      0.056266  
      21A      0.056778    22A      0.059848    23A      0.061194  
      24A      0.071222    25A      0.073167    26A      0.074899  
      27A      0.076118    28A      0.077994    29A      0.079115  
      30A      0.083264    31A      0.083631    32A      0.085105  
      33A      0.097311    34A      0.099837    35A      0.101183  
      36A      0.106710    37A      0.120889    38A      0.134616  
      39A      0.137403    40A      0.143030    41A      0.152708  
      42A      0.156566    43A      0.159358    44A      0.162514  
      45A      0.169972    46A      0.171027    47A      0.177479  
      48A      0.178608    49A      0.181831    50A      0.186614  
      51A      0.191130    52A      0.195315    53A      0.199315  
      54A      0.207120    55A      0.211713    56A      0.212957  
      57A      0.214154    58A      0.224017    59A      0.227266  
      60A      0.234939    61A      0.237011    62A      0.245116  
      63A      0.248899    64A      0.255923    65A      0.265917  
      66A      0.267482    67A      0.269895    68A      0.282321  
      69A      0.286603    70A      0.288392    71A      0.307542  
      72A      0.309421    73A      0.322008    74A      0.323351  
      75A      0.329233    76A      0.329738    77A      0.337989  
      78A      0.342705    79A      0.344823    80A      0.348838  
      81A      0.359269    82A      0.364901    83A      0.368371  
      84A      0.371826    85A      0.373612    86A      0.378940  
      87A      0.382113    88A      0.385188    89A      0.394076  
      90A      0.395280    91A      0.407621    92A      0.411432  
      93A      0.419564    94A      0.421079    95A      0.421837  
      96A      0.424722    97A      0.433573    98A      0.435644  
      99A      0.442868   100A      0.445557   101A      0.450413  
     102A      0.453953   103A      0.459324   104A      0.464254  
     105A      0.468116   106A      0.472089   107A      0.473391  
     108A      0.477901   109A      0.482035   110A      0.487024  
     111A      0.490218   112A      0.492701   113A      0.502163  
     114A      0.508302   115A      0.510624   116A      0.517092  
     117A      0.522460   118A      0.524866   119A      0.528069  
     120A      0.531314   121A      0.533911   122A      0.539234  
     123A      0.555672   124A      0.568884   125A      0.579643  
     126A      0.588528   127A      0.608969   128A      0.624860  
     129A      0.631560   130A      0.637438   131A      0.646632  
     132A      0.665396   133A      0.674375   134A      0.692931  
     135A      0.699852   136A      0.717008   137A      0.728302  
     138A      0.741464   139A      0.754439   140A      0.767137  
     141A      0.776625   142A      0.790630   143A      0.800291  
     144A      0.803276   145A      0.806809   146A      0.815820  
     147A      0.818035   148A      0.825377   149A      0.834020  
     150A      0.838504   151A      0.842602   152A      0.848310  
     153A      0.853460   154A      0.859070   155A      0.865517  
     156A      0.868905   157A      0.872997   158A      0.878198  
     159A      0.885244   160A      0.894131   161A      0.901103  
     162A      0.903910   163A      0.909675   164A      0.917166  
     165A      0.920892   166A      0.926581   167A      0.930421  
     168A      0.934285   169A      0.938732   170A      0.952817  
     171A      0.956184   172A      0.960136   173A      0.962103  
     174A      0.968394   175A      0.976453   176A      0.983398  
     177A      0.986124   178A      0.992428   179A      0.994354  
     180A      1.004530   181A      1.007850   182A      1.016757  
     183A      1.020283   184A      1.021963   185A      1.032760  
     186A      1.037831   187A      1.042332   188A      1.046735  
     189A      1.053263   190A      1.060639   191A      1.071097  
     192A      1.074023   193A      1.081033   194A      1.087786  
     195A      1.090754   196A      1.095864   197A      1.105585  
     198A      1.109590   199A      1.113826   200A      1.123562  
     201A      1.128846   202A      1.136831   203A      1.141967  
     204A      1.147483   205A      1.149383   206A      1.154906  
     207A      1.168432   208A      1.172161   209A      1.176049  
     210A      1.182599   211A      1.192717   212A      1.196823  
     213A      1.199153   214A      1.207186   215A      1.217344  
     216A      1.223597   217A      1.230615   218A      1.234551  
     219A      1.238530   220A      1.249743   221A      1.254648  
     222A      1.259079   223A      1.260427   224A      1.268135  
     225A      1.285901   226A      1.287930   227A      1.298499  
     228A      1.299686   229A      1.303845   230A      1.320514  
     231A      1.328623   232A      1.332131   233A      1.338387  
     234A      1.351224   235A      1.353140   236A      1.361242  
     237A      1.385710   238A      1.401053   239A      1.406412  
     240A      1.424595   241A      1.425073   242A      1.440656  
     243A      1.443442   244A      1.455319   245A      1.461639  
     246A      1.471521   247A      1.482912   248A      1.511176  
     249A      1.528973   250A      1.546596   251A      1.559641  
     252A      1.569862   253A      1.579825   254A      1.594503  
     255A      1.610028   256A      1.615911   257A      1.646656  
     258A      1.659253   259A      1.664318   260A      1.689088  
     261A      1.710278   262A      1.726461   263A      1.759317  
     264A      1.769898   265A      1.781959   266A      1.803125  
     267A      1.809616   268A      1.824013   269A      1.835285  
     270A      1.839084   271A      1.847069   272A      1.853763  
     273A      1.872824   274A      1.875090   275A      1.882121  
     276A      1.886837   277A      1.900479   278A      1.912491  
     279A      1.918221   280A      1.926707   281A      1.932177  
     282A      1.936006   283A      1.951741   284A      1.954011  
     285A      1.960565   286A      1.969971   287A      1.980972  
     288A      1.992333   289A      2.009557   290A      2.024294  
     291A      2.061981   292A      2.070500   293A      2.094289  
     294A      2.116208   295A      2.140017   296A      2.228029  
     297A      2.307221   298A      2.322642   299A      2.334543  
     300A      2.352729   301A      2.395169   302A      2.404172  
     303A      2.410820   304A      2.415013   305A      2.434231  
     306A      2.458324   307A      2.465060   308A      2.471429  
     309A      2.478149   310A      2.491018   311A      2.501612  
     312A      2.522399   313A      2.537648   314A      2.545775  
     315A      2.556772   316A      2.560815   317A      2.567752  
     318A      2.577737   319A      2.589391   320A      2.592233  
     321A      2.602287   322A      2.610718   323A      2.614759  
     324A      2.619056   325A      2.629659   326A      2.638058  
     327A      2.646340   328A      2.661532   329A      2.664863  
     330A      2.667529   331A      2.675163   332A      2.696261  
     333A      2.699747   334A      2.709877   335A      2.721424  
     336A      2.734982   337A      2.742004   338A      2.763517  
     339A      2.773050   340A      2.786136   341A      2.796478  
     342A      2.808351   343A      2.815427   344A      2.842228  
     345A      2.852329   346A      2.879857   347A      2.898110  
     348A      2.906043   349A      2.924125   350A      2.930672  
     351A      2.942350   352A      2.948041   353A      2.957894  
     354A      2.976984   355A      2.986313   356A      2.997541  
     357A      3.014369   358A      3.027421   359A      3.043265  
     360A      3.084570   361A      3.118590   362A      3.146730  
     363A      3.177990   364A      3.216524   365A      3.226579  
     366A      3.235921   367A      3.250286   368A      3.257560  
     369A      3.269421   370A      3.275620   371A      3.298092  
     372A      3.310845   373A      3.327886   374A      3.337353  
     375A      3.344554   376A      3.358859   377A      3.371280  
     378A      3.373451   379A      3.385491   380A      3.391087  
     381A      3.399471   382A      3.409266   383A      3.429275  
     384A      3.439330   385A      3.462007   386A      3.483836  
     387A      3.489980   388A      3.617223   389A      3.633211  
     390A      3.656131   391A      3.666223   392A      3.698769  
     393A      3.727170   394A      3.735262   395A      3.745355  
     396A      3.774053   397A      3.795647   398A      3.831209  
     399A      3.903978   400A      4.152237   401A      4.208667  
     402A      4.297938   403A      4.346252   404A      4.366693  
     405A      4.376248   406A      4.409676   407A      4.429366  
     408A      4.444001   409A      4.459602   410A      4.487687  
     411A      4.499746   412A      4.505345   413A      4.513864  
     414A      4.523746   415A      4.531914   416A      4.550192  
     417A      4.556364   418A      4.573153   419A      4.578925  
     420A      4.582682   421A      4.615278   422A      4.621998  
     423A      4.630868   424A      4.648812   425A      4.659716  
     426A      4.665046   427A      4.680831   428A      4.683470  
     429A      4.694986   430A      4.714769   431A      4.727092  
     432A      4.733948   433A      4.754348   434A      4.756087  
     435A      4.778038   436A      4.782988   437A      4.789485  
     438A      4.805711   439A      4.894240   440A      4.920788  
     441A      4.928901   442A      4.946160   443A      4.959923  
     444A      4.970994   445A      4.979822   446A      4.987997  
     447A      4.996664   448A      5.004481   449A      5.014692  
     450A      5.031571   451A      5.039270   452A      5.042497  
     453A      5.062800   454A      5.092502   455A      5.150374  
     456A      5.191638   457A      5.208766   458A      5.241726  
     459A      5.256304   460A      5.263443   461A      5.274432  
     462A      5.282685   463A      5.344975   464A      5.424472  
     465A      5.488418   466A      5.502928   467A      5.524865  
     468A      5.540384   469A      5.565534   470A      5.582381  
     471A      5.589047   472A      5.597874   473A      5.632660  
     474A      5.651466   475A      5.655673   476A      5.660696  
     477A      5.673496   478A      5.676847   479A      5.716428  
     480A      5.739275   481A      5.788251   482A      5.847732  
     483A      5.850728   484A      5.892597   485A      5.920124  
     486A      5.934023   487A      6.048362   488A      6.136859  
     489A      6.149617   490A      6.185976   491A      6.208680  
     492A      6.227111   493A      6.381917   494A      6.398289  
     495A      6.417613   496A      6.431994   497A      6.518076  
     498A      6.625112   499A      6.680086   500A      6.683112  
     501A      6.696948   502A      6.768207   503A      6.807828  
     504A      6.835713   505A      7.009081   506A      7.086432  
     507A      7.089964   508A      7.099039   509A      7.119077  
     510A      7.225246   511A      7.275679   512A      7.322944  
     513A      7.375707   514A      7.388810   515A      7.466714  
     516A      7.518375   517A      7.639546   518A      7.669312  
     519A      7.683852   520A      7.704291   521A      7.730181  
     522A      7.741976   523A      7.765491   524A      7.835474  
     525A      7.839612   526A      7.855356   527A      7.889701  
     528A      7.890647   529A      8.089097   530A      8.094334  
     531A      8.104352   532A      8.121158   533A      8.130935  
     534A      8.156722   535A      8.181054   536A      8.209062  
     537A      8.213228   538A      8.217818   539A      8.301373  
     540A      8.317304   541A      8.320325   542A      8.327898  
     543A      8.356721   544A      8.371571   545A      8.587003  
     546A      8.677143   547A      8.727477   548A      8.738831  
     549A      8.783418   550A      8.815399   551A      8.843784  
     552A      8.887925   553A      8.952118   554A      9.020177  
     555A      9.054584   556A      9.765739   557A      9.805179  
     558A      9.817995   559A      9.858759   560A      9.878190  
     561A      9.907450   562A      9.954862   563A      9.958130  
     564A      9.968443   565A      9.984542   566A     10.038180  
     567A     10.044022   568A     10.051400   569A     10.059001  
     570A     10.076827   571A     10.113683   572A     10.228004  
     573A     10.236751   574A     10.250276   575A     10.275375  
     576A     10.440320   577A     10.817846   578A     11.130932  
     579A     11.175254   580A     11.227787   581A     11.331188  
     582A     11.670541   583A     11.719467   584A     11.757416  
     585A     11.779740   586A     11.806305   587A     11.928638  
     588A     12.121005   589A     12.173698   590A     12.232462  
     591A     12.545178   592A     13.248624   593A     13.528511  
     594A     13.581761   595A     13.610025   596A     13.844172  
     597A     13.860004   598A     13.897851   599A     13.912082  
     600A     13.939762   601A     13.987072   602A     17.017480  
     603A     31.040902   604A     31.092082   605A     31.441357  
     606A     63.401515   607A     64.694643   608A     64.815086  
     609A     65.292977   610A     66.791109   611A    198.174409  

    Final Occupation by Irrep:
              A 
    DOCC [     5 ]
    NA   [     5 ]
    NB   [     5 ]

  @DF-RHF Final Energy:   -76.05945027626967

   => Energetics <=

    Nuclear Repulsion Energy =              9.4327389784837408
    One-Electron Energy =                -123.4482918139013918
    Two-Electron Energy =                  37.9561025591479932
    Total Energy =                        -76.0594502762696578

Computation Completed


Properties will be evaluated at   0.000000,   0.000000,   0.000000 [a0]

Properties computed using the SCF density matrix


 Multipole Moments:

 ------------------------------------------------------------------------------------
     Multipole            Electronic (a.u.)      Nuclear  (a.u.)        Total (a.u.)
 ------------------------------------------------------------------------------------

 L = 1.  Multiply by 2.5417464519 to convert [e a0] to [Debye]
 Dipole X            :         31.8964348          -32.5408930           -0.6444582
 Dipole Y            :        -21.7208878           21.5054783           -0.2154095
 Dipole Z            :         34.3047251          -34.7393494           -0.4346242
 Magnitude           :                                                    0.8066138

 ------------------------------------------------------------------------------------

*** tstop() called on moses-razer at Wed Jan 24 15:13:57 2024
Module time:
	user time   =      68.54 seconds =       1.14 minutes
	system time =       3.27 seconds =       0.05 minutes
	total time  =         19 seconds =       0.32 minutes
Total time:
	user time   =      68.54 seconds =       1.14 minutes
	system time =       3.27 seconds =       0.05 minutes
	total time  =         19 seconds =       0.32 minutes

*** tstart() called on moses-razer
*** at Wed Jan 24 15:13:57 2024


  //>>>>>>>>>>>>>>>>>>>>>>>>>>>>>>>>>>>//
  //               DFMP2               //
  //<<<<<<<<<<<<<<<<<<<<<<<<<<<<<<<<<<<//

   => Loading Basis Set <=

    Name: (AUG-CC-PVTZ AUX)
    Role: RIFIT
    Keyword: DF_BASIS_MP2
    atoms 1                                   entry K          line  1282 file /home/kchung25/anaconda3/envs/p415env/share/psi4/basis/def2-qzvpp-ri.gbs 
    atoms 2, 5, 8, 11, 14, 17                 entry O          line   264 file /home/kchung25/anaconda3/envs/p415env/share/psi4/basis/aug-cc-pvtz-ri.gbs 
    atoms 3-4, 6-7, 9-10, 12-13, 15-16, 18-19 entry H          line    30 file /home/kchung25/anaconda3/envs/p415env/share/psi4/basis/aug-cc-pvtz-ri.gbs 

	 --------------------------------------------------------
	                          DF-MP2                         
	      2nd-Order Density-Fitted Moller-Plesset Theory     
	              RMP2 Wavefunction,   6 Threads             
	                                                         
	        Rob Parrish, Justin Turney, Andy Simmonett,      
	           Ed Hohenstein, and C. David Sherrill          
	 --------------------------------------------------------

   => Auxiliary Basis Set <=

  Basis Set: (AUG-CC-PVTZ AUX)
    Blend: AUG-CC-PVTZ-RI + DEF2-QZVPP-RI
    Number of shells: 385
    Number of basis functions: 1387
    Number of Cartesian functions: 1738
    Spherical Harmonics?: true
    Max angular momentum: 4

	 --------------------------------------------------------
	                 NBF =   611, NAUX =  1387
	 --------------------------------------------------------
	   CLASS    FOCC     OCC    AOCC    AVIR     VIR    FVIR
	   PAIRS       0       5       5     606     606       0
	 --------------------------------------------------------

	-----------------------------------------------------------
	 ==================> DF-MP2 Energies <==================== 
	-----------------------------------------------------------
	 Reference Energy          =     -76.0594502762696720 [Eh]
	 Singles Energy            =      -0.0000000000000000 [Eh]
	 Same-Spin Energy          =      -0.0681306218406330 [Eh]
	 Opposite-Spin Energy      =      -0.2148019117976152 [Eh]
	 Correlation Energy        =      -0.2829325336382482 [Eh]
	 Total Energy              =     -76.3423828099079174 [Eh]
	-----------------------------------------------------------
	 ================> DF-SCS-MP2 Energies <================== 
	-----------------------------------------------------------
	 SCS Same-Spin Scale       =       0.3333333333333333 [-]
	 SCS Opposite-Spin Scale   =       1.2000000000000000 [-]
	 SCS Same-Spin Energy      =      -0.0227102072802110 [Eh]
	 SCS Opposite-Spin Energy  =      -0.2577622941571382 [Eh]
	 SCS Correlation Energy    =      -0.2804725014373493 [Eh]
	 SCS Total Energy          =     -76.3399227777070166 [Eh]
	-----------------------------------------------------------


*** tstop() called on moses-razer at Wed Jan 24 15:14:06 2024
Module time:
	user time   =      23.96 seconds =       0.40 minutes
	system time =       1.94 seconds =       0.03 minutes
	total time  =          9 seconds =       0.15 minutes
Total time:
	user time   =      92.51 seconds =       1.54 minutes
	system time =       5.21 seconds =       0.09 minutes
	total time  =         28 seconds =       0.47 minutes

    Psi4 stopped on: Wednesday, 24 January 2024 03:14PM
    Psi4 wall time for execution: 0:00:28.13

*** Psi4 exiting successfully. Buy a developer a beer!
