
    -----------------------------------------------------------------------
          Psi4: An Open-Source Ab Initio Electronic Structure Package
                               Psi4 1.9 release

                         Git: Rev {} zzzzzzz 


    D. G. A. Smith, L. A. Burns, A. C. Simmonett, R. M. Parrish,
    M. C. Schieber, R. Galvelis, P. Kraus, H. Kruse, R. Di Remigio,
    A. Alenaizan, A. M. James, S. Lehtola, J. P. Misiewicz, M. Scheurer,
    R. A. Shaw, J. B. Schriber, Y. Xie, Z. L. Glick, D. A. Sirianni,
    J. S. O'Brien, J. M. Waldrop, A. Kumar, E. G. Hohenstein,
    B. P. Pritchard, B. R. Brooks, H. F. Schaefer III, A. Yu. Sokolov,
    K. Patkowski, A. E. DePrince III, U. Bozkaya, R. A. King,
    F. A. Evangelista, J. M. Turney, T. D. Crawford, C. D. Sherrill,
    J. Chem. Phys. 152(18) 184108 (2020). https://doi.org/10.1063/5.0006002

                            Additional Code Authors
    E. T. Seidl, C. L. Janssen, E. F. Valeev, M. L. Leininger,
    J. F. Gonthier, R. M. Richard, H. R. McAlexander, M. Saitow, X. Wang,
    P. Verma, M. H. Lechner, A. Jiang, S. Behnle, A. G. Heide,
    M. F. Herbst, and D. L. Poole

             Previous Authors, Complete List of Code Contributors,
                       and Citations for Specific Modules
    https://github.com/psi4/psi4/blob/master/codemeta.json
    https://github.com/psi4/psi4/graphs/contributors
    http://psicode.org/psi4manual/master/introduction.html#citing-psifour

    -----------------------------------------------------------------------


    Psi4 started on: Saturday, 06 January 2024 07:44PM

    Process ID: 553614
    Host:       moses-razer
    PSIDATADIR: /home/kchung25/anaconda3/envs/psi4_19/share/psi4
    Memory:     500.0 MiB
    Threads:    6
    
  ==> Input File <==

--------------------------------------------------------------------------
MEMORY 60 GB

molecule dimer {
1 1
K      0.000000     0.000000     0.000000
--
0 1
O      2.852757    -0.334051    -0.186806
H      3.665059    -0.772002     0.113705
H      2.976979    -0.248733    -1.158383
O     -1.826235    -0.322399    -1.984574
H     -1.297659    -0.061936    -2.754238
H     -1.684865    -1.318774    -1.991083
O     -0.349652    -2.346622     1.050442
H      0.209215    -3.119233     1.249847
H     -1.269300    -2.641149     1.131510
O     -1.923855    -0.178301     2.183220
H     -1.437654    -1.016009     2.224042
H     -2.508504    -0.247868     1.457316
O      0.850534    -1.021556    -2.165011
H      0.594881    -1.697915    -2.784155
H      1.648642    -0.724977    -2.660875

units ang
no_reorient
no_com
symmetry c1
}

set {
basis        aug-cc-pVTZ
scf_type     df
}

energy("mp2", bsse_type="cp")
--------------------------------------------------------------------------

  Memory set to  55.879 GiB by Python driver.

Scratch directory: /scratch/

  //>>>>>>>>>>>>>>>>>>>>>>>>>>>>>>>>>>>>>//
  // ManyBody Setup: N-Body Levels [1, 2]//
  //<<<<<<<<<<<<<<<<<<<<<<<<<<<<<<<<<<<<<//

        Number of 1-body computations:     2
        Number of 2-body computations:     1

    -----------------------------------------------------------------------
          Psi4: An Open-Source Ab Initio Electronic Structure Package
                               Psi4 1.9 release

                         Git: Rev {} zzzzzzz 


    D. G. A. Smith, L. A. Burns, A. C. Simmonett, R. M. Parrish,
    M. C. Schieber, R. Galvelis, P. Kraus, H. Kruse, R. Di Remigio,
    A. Alenaizan, A. M. James, S. Lehtola, J. P. Misiewicz, M. Scheurer,
    R. A. Shaw, J. B. Schriber, Y. Xie, Z. L. Glick, D. A. Sirianni,
    J. S. O'Brien, J. M. Waldrop, A. Kumar, E. G. Hohenstein,
    B. P. Pritchard, B. R. Brooks, H. F. Schaefer III, A. Yu. Sokolov,
    K. Patkowski, A. E. DePrince III, U. Bozkaya, R. A. King,
    F. A. Evangelista, J. M. Turney, T. D. Crawford, C. D. Sherrill,
    J. Chem. Phys. 152(18) 184108 (2020). https://doi.org/10.1063/5.0006002

                            Additional Code Authors
    E. T. Seidl, C. L. Janssen, E. F. Valeev, M. L. Leininger,
    J. F. Gonthier, R. M. Richard, H. R. McAlexander, M. Saitow, X. Wang,
    P. Verma, M. H. Lechner, A. Jiang, S. Behnle, A. G. Heide,
    M. F. Herbst, and D. L. Poole

             Previous Authors, Complete List of Code Contributors,
                       and Citations for Specific Modules
    https://github.com/psi4/psi4/blob/master/codemeta.json
    https://github.com/psi4/psi4/graphs/contributors
    http://psicode.org/psi4manual/master/introduction.html#citing-psifour

    -----------------------------------------------------------------------


    Psi4 started on: Saturday, 06 January 2024 07:44PM

    Process ID: 553614
    Host:       moses-razer
    PSIDATADIR: /home/kchung25/anaconda3/envs/psi4_19/share/psi4
    Memory:     55.9 GiB
    Threads:    6
    
  ==> Input QCSchema <==

--------------------------------------------------------------------------
{'driver': 'energy',
 'extras': {'psiapi': True, 'wfn_qcvars_only': True},
 'id': None,
 'keywords': {'SCF_TYPE': 'DF', 'function_kwargs': {}},
 'model': {'basis': 'aug-cc-pvtz', 'method': 'mp2'},
 'molecule': {'atom_labels': ['', '', '', '', '', '', '', '', '', '', '', '', '', '', '', ''],
              'atomic_numbers': [19, 8, 1, 1, 8, 1, 1, 8, 1, 1, 8, 1, 1, 8, 1, 1],
              'extras': {},
              'fix_com': True,
              'fix_orientation': True,
              'fix_symmetry': 'c1',
              'fragment_charges': [0.0, 0.0],
              'fragment_multiplicities': [1, 1],
              'fragments': [[0], [1, 2, 3, 4, 5, 6, 7, 8, 9, 10, 11, 12, 13, 14, 15]],
              'geometry': [0.0, 0.0, 0.0, 5.3909294324826975, -0.6312649019353129, -0.353012178592275,
                           6.925957743644342, -1.4588723483056942, 0.21487130909518234, 5.62567499123932,
                           -0.47003724836350197, -2.1890266183862153, -3.451083990725477, -0.6092458131214783,
                           -3.7503013357043433, -2.45222011423548, -0.11704207730635605, -5.204755504328718,
                           -3.1839334083695037, -2.4921216813745217, -3.762601563054948, -0.6607465192185805,
                           -4.434472899974099, 1.985047690678172, 0.39535905133765953, -5.894496091490198,
                           2.36186852872509, -2.3986293710436213, -4.991048266526818, 2.138244008216787,
                           -3.63555905509267, -0.3369400578952562, 4.1256878716220395, -2.7167723231689482,
                           -1.9199787510002824, 4.202830271515479, -4.740385544615464, -0.46840263526498094,
                           2.7539281182477002, 1.6072763203901483, -1.930461061818197, -4.0912778486035775,
                           1.1241621672384783, -3.2085943343067282, -5.26129044082404, 3.1154818589270445,
                           -1.3700079772560398, -5.028325004077598],
              'mass_numbers': [39, 16, 1, 1, 16, 1, 1, 16, 1, 1, 16, 1, 1, 16, 1, 1],
              'masses': [38.9637064864, 15.99491461957, 1.00782503223, 1.00782503223, 15.99491461957, 1.00782503223,
                         1.00782503223, 15.99491461957, 1.00782503223, 1.00782503223, 15.99491461957, 1.00782503223,
                         1.00782503223, 15.99491461957, 1.00782503223, 1.00782503223],
              'molecular_charge': 0.0,
              'molecular_multiplicity': 1,
              'name': 'dimer',
              'provenance': {'creator': 'QCElemental',
                             'routine': 'qcelemental.molparse.from_string',
                             'version': '0.27.1'},
              'real': [False, True, True, True, True, True, True, True, True, True, True, True, True, True, True, True],
              'schema_name': 'qcschema_molecule',
              'schema_version': 2,
              'symbols': ['K', 'O', 'H', 'H', 'O', 'H', 'H', 'O', 'H', 'H', 'O', 'H', 'H', 'O', 'H', 'H'],
              'validated': True},
 'protocols': {'stdout': True},
 'provenance': {'creator': 'QCElemental', 'routine': 'qcelemental.models.results', 'version': '0.27.1'},
 'schema_name': 'qcschema_input',
 'schema_version': 1}
--------------------------------------------------------------------------

Scratch directory: /scratch/
   => Libint2 <=

    Primary   basis highest AM E, G, H:  5, 4, 3
    Auxiliary basis highest AM E, G, H:  6, 5, 4
    Onebody   basis highest AM E, G, H:  6, 5, 4
    Solid Harmonics ordering:            gaussian

*** tstart() called on moses-razer
*** at Sat Jan  6 19:44:21 2024

   => Loading Basis Set <=

    Name: AUG-CC-PVTZ
    Role: ORBITAL
    Keyword: BASIS
    atoms 1                            entry K          line  1152 file /home/kchung25/anaconda3/envs/p415env/share/psi4/basis/aug-cc-pvtz.gbs 
    atoms 2, 5, 8, 11, 14              entry O          line   331 file /home/kchung25/anaconda3/envs/p415env/share/psi4/basis/aug-cc-pvtz.gbs 
    atoms 3-4, 6-7, 9-10, 12-13, 15-16 entry H          line    40 file /home/kchung25/anaconda3/envs/p415env/share/psi4/basis/aug-cc-pvtz.gbs 


         ---------------------------------------------------------
                                   SCF
               by Justin Turney, Rob Parrish, Andy Simmonett
                          and Daniel G. A. Smith
                              RHF Reference
                        6 Threads,  57220 MiB Core
         ---------------------------------------------------------

  ==> Geometry <==

    Molecular point group: c1
    Full point group: C1

    Geometry (in Bohr), charge = 0, multiplicity = 1:

       Center              X                  Y                   Z               Mass       
    ------------   -----------------  -----------------  -----------------  -----------------
      Gh(K)           0.000000000000     0.000000000000     0.000000000000    38.963706486400
         O            5.390929432483    -0.631264901935    -0.353012178592    15.994914619570
         H            6.925957743644    -1.458872348306     0.214871309095     1.007825032230
         H            5.625674991239    -0.470037248364    -2.189026618386     1.007825032230
         O           -3.451083990725    -0.609245813121    -3.750301335704    15.994914619570
         H           -2.452220114235    -0.117042077306    -5.204755504329     1.007825032230
         H           -3.183933408370    -2.492121681375    -3.762601563055     1.007825032230
         O           -0.660746519219    -4.434472899974     1.985047690678    15.994914619570
         H            0.395359051338    -5.894496091490     2.361868528725     1.007825032230
         H           -2.398629371044    -4.991048266527     2.138244008217     1.007825032230
         O           -3.635559055093    -0.336940057895     4.125687871622    15.994914619570
         H           -2.716772323169    -1.919978751000     4.202830271515     1.007825032230
         H           -4.740385544615    -0.468402635265     2.753928118248     1.007825032230
         O            1.607276320390    -1.930461061818    -4.091277848604    15.994914619570
         H            1.124162167238    -3.208594334307    -5.261290440824     1.007825032230
         H            3.115481858927    -1.370007977256    -5.028325004078     1.007825032230

  Running in c1 symmetry.

  Rotational constants: A =      0.04799  B =      0.03508  C =      0.02974 [cm^-1]
  Rotational constants: A =   1438.68240  B =   1051.63618  C =    891.58750 [MHz]
  Nuclear repulsion =  183.297571713411486

  Charge       = 0
  Multiplicity = 1
  Electrons    = 50
  Nalpha       = 25
  Nbeta        = 25

  ==> Algorithm <==

  SCF Algorithm Type is DF.
  DIIS enabled.
  MOM disabled.
  Fractional occupation disabled.
  Guess Type is SAD.
  Energy threshold   = 1.00e-08
  Density threshold  = 1.00e-08
  Integral threshold = 1.00e-12

  ==> Primary Basis <==

  Basis Set: AUG-CC-PVTZ
    Blend: AUG-CC-PVTZ
    Number of shells: 179
    Number of basis functions: 519
    Number of Cartesian functions: 594
    Spherical Harmonics?: true
    Max angular momentum: 3

   => Loading Basis Set <=

    Name: (AUG-CC-PVTZ AUX)
    Role: JKFIT
    Keyword: DF_BASIS_SCF
    atoms 1                            entry K          line  1152 file /home/kchung25/anaconda3/envs/p415env/share/psi4/basis/def2-universal-jkfit.gbs 
    atoms 2, 5, 8, 11, 14              entry O          line   286 file /home/kchung25/anaconda3/envs/p415env/share/psi4/basis/aug-cc-pvtz-jkfit.gbs 
    atoms 3-4, 6-7, 9-10, 12-13, 15-16 entry H          line    70 file /home/kchung25/anaconda3/envs/p415env/share/psi4/basis/aug-cc-pvtz-jkfit.gbs 

  ==> Integral Setup <==

  DFHelper Memory: AOs need 2.139 GiB; user supplied 41.910 GiB. 
  Using in-core AOs.

  ==> MemDFJK: Density-Fitted J/K Matrices <==

    J tasked:                   Yes
    K tasked:                   Yes
    wK tasked:                   No
    OpenMP threads:               6
    Memory [MiB]:             42915
    Algorithm:                 Core
    Schwarz Cutoff:           1E-12
    Mask sparsity (%):       9.8433
    Fitting Condition:        1E-10

   => Auxiliary Basis Set <=

  Basis Set: (AUG-CC-PVTZ AUX)
    Blend: AUG-CC-PVTZ-JKFIT + DEF2-UNIVERSAL-JKFIT
    Number of shells: 334
    Number of basis functions: 1140
    Number of Cartesian functions: 1408
    Spherical Harmonics?: true
    Max angular momentum: 4

  Minimum eigenvalue in the overlap matrix is 3.8796887316E-05.
  Reciprocal condition number of the overlap matrix is 2.6090618747E-06.
    Using symmetric orthogonalization.

  ==> Pre-Iterations <==

  SCF Guess: Superposition of Atomic Densities via on-the-fly atomic UHF (no occupation information).

   -------------------------
    Irrep   Nso     Nmo    
   -------------------------
     A        519     519 
   -------------------------
    Total     519     519
   -------------------------

  ==> Iterations <==

                           Total Energy        Delta E     RMS |[F,P]|

   @DF-RHF iter SAD:  -377.54867676803360   -3.77549e+02   0.00000e+00 
   @DF-RHF iter   1:  -379.84075166558324   -2.29207e+00   2.00384e-03 DIIS/ADIIS
   @DF-RHF iter   2:  -380.10605493534149   -2.65303e-01   1.38064e-03 DIIS/ADIIS
   @DF-RHF iter   3:  -380.26708783311466   -1.61033e-01   1.00584e-04 DIIS/ADIIS
   @DF-RHF iter   4:  -380.26938450543014   -2.29667e-03   2.79839e-05 DIIS
   @DF-RHF iter   5:  -380.26954673161384   -1.62226e-04   1.03751e-05 DIIS
   @DF-RHF iter   6:  -380.26956724439810   -2.05128e-05   3.61514e-06 DIIS
   @DF-RHF iter   7:  -380.26957032178723   -3.07739e-06   7.28811e-07 DIIS
   @DF-RHF iter   8:  -380.26957053605196   -2.14265e-07   1.41406e-07 DIIS
   @DF-RHF iter   9:  -380.26957054251056   -6.45861e-09   5.28875e-08 DIIS
   @DF-RHF iter  10:  -380.26957054297640   -4.65832e-10   1.65769e-08 DIIS
   @DF-RHF iter  11:  -380.26957054304313   -6.67342e-11   4.72937e-09 DIIS
  Energy and wave function converged.


  ==> Post-Iterations <==

    Orbital Energies [Eh]
    ---------------------

    Doubly Occupied:                                                      

       1A    -20.581118     2A    -20.574494     3A    -20.559223  
       4A    -20.550649     5A    -20.525732     6A     -1.366593  
       7A     -1.353570     8A     -1.332610     9A     -1.319192  
      10A     -1.317460    11A     -0.725828    12A     -0.716558  
      13A     -0.687137    14A     -0.686175    15A     -0.673428  
      16A     -0.609408    17A     -0.583947    18A     -0.569037  
      19A     -0.567049    20A     -0.548087    21A     -0.524291  
      22A     -0.511357    23A     -0.494094    24A     -0.481709  
      25A     -0.471734  

    Virtual:                                                              

      26A     -0.000097    27A      0.006166    28A      0.007857  
      29A      0.013633    30A      0.017995    31A      0.018263  
      32A      0.019658    33A      0.020399    34A      0.020647  
      35A      0.029594    36A      0.032129    37A      0.035731  
      38A      0.048288    39A      0.056179    40A      0.058759  
      41A      0.059447    42A      0.063925    43A      0.065497  
      44A      0.072132    45A      0.072613    46A      0.074616  
      47A      0.075408    48A      0.080274    49A      0.083782  
      50A      0.086924    51A      0.090016    52A      0.101245  
      53A      0.109195    54A      0.123858    55A      0.133152  
      56A      0.144557    57A      0.149765    58A      0.158010  
      59A      0.164610    60A      0.169741    61A      0.175778  
      62A      0.180232    63A      0.182408    64A      0.183992  
      65A      0.188137    66A      0.192874    67A      0.197816  
      68A      0.198991    69A      0.201921    70A      0.211833  
      71A      0.219494    72A      0.220348    73A      0.227093  
      74A      0.229799    75A      0.235710    76A      0.238809  
      77A      0.245153    78A      0.252118    79A      0.262511  
      80A      0.265060    81A      0.276154    82A      0.279794  
      83A      0.281541    84A      0.287016    85A      0.294848  
      86A      0.298339    87A      0.311585    88A      0.316388  
      89A      0.325625    90A      0.330322    91A      0.341281  
      92A      0.351575    93A      0.353807    94A      0.365440  
      95A      0.373045    96A      0.377178    97A      0.386636  
      98A      0.390720    99A      0.398530   100A      0.404565  
     101A      0.408066   102A      0.413982   103A      0.421204  
     104A      0.430715   105A      0.435901   106A      0.442144  
     107A      0.442759   108A      0.449016   109A      0.452100  
     110A      0.453829   111A      0.458882   112A      0.464510  
     113A      0.468892   114A      0.478094   115A      0.480486  
     116A      0.486454   117A      0.491094   118A      0.495742  
     119A      0.500016   120A      0.509186   121A      0.514614  
     122A      0.519516   123A      0.526780   124A      0.531642  
     125A      0.535288   126A      0.547706   127A      0.550655  
     128A      0.556799   129A      0.561118   130A      0.570600  
     131A      0.588028   132A      0.595503   133A      0.600896  
     134A      0.617331   135A      0.623691   136A      0.628746  
     137A      0.637674   138A      0.657065   139A      0.663181  
     140A      0.676089   141A      0.693437   142A      0.699770  
     143A      0.707408   144A      0.727418   145A      0.738991  
     146A      0.750362   147A      0.756812   148A      0.764092  
     149A      0.779956   150A      0.788018   151A      0.790594  
     152A      0.798834   153A      0.821648   154A      0.826050  
     155A      0.835401   156A      0.840568   157A      0.847689  
     158A      0.856423   159A      0.863095   160A      0.865322  
     161A      0.882190   162A      0.885226   163A      0.900945  
     164A      0.912231   165A      0.913744   166A      0.920531  
     167A      0.921581   168A      0.948136   169A      0.954930  
     170A      0.962245   171A      0.977811   172A      0.983998  
     173A      0.986416   174A      0.988948   175A      1.001908  
     176A      1.006138   177A      1.010117   178A      1.024379  
     179A      1.028712   180A      1.034501   181A      1.043262  
     182A      1.053026   183A      1.060478   184A      1.066057  
     185A      1.070173   186A      1.075628   187A      1.083568  
     188A      1.089968   189A      1.097226   190A      1.100624  
     191A      1.111333   192A      1.114998   193A      1.120781  
     194A      1.124003   195A      1.130949   196A      1.139221  
     197A      1.146995   198A      1.156805   199A      1.164310  
     200A      1.171430   201A      1.179552   202A      1.184171  
     203A      1.193197   204A      1.203031   205A      1.203783  
     206A      1.204305   207A      1.214955   208A      1.222827  
     209A      1.230123   210A      1.238396   211A      1.255907  
     212A      1.260043   213A      1.273843   214A      1.290033  
     215A      1.292028   216A      1.297863   217A      1.312075  
     218A      1.315264   219A      1.321365   220A      1.338692  
     221A      1.346430   222A      1.355146   223A      1.377098  
     224A      1.382942   225A      1.387059   226A      1.394677  
     227A      1.416874   228A      1.424252   229A      1.429348  
     230A      1.445830   231A      1.460944   232A      1.474160  
     233A      1.497100   234A      1.504118   235A      1.525599  
     236A      1.534583   237A      1.560139   238A      1.571357  
     239A      1.581234   240A      1.612241   241A      1.615173  
     242A      1.622391   243A      1.637699   244A      1.662172  
     245A      1.670740   246A      1.679353   247A      1.707576  
     248A      1.714699   249A      1.730674   250A      1.749882  
     251A      1.760761   252A      1.767817   253A      1.810047  
     254A      1.829438   255A      1.843153   256A      1.860521  
     257A      1.887568   258A      1.902189   259A      1.918985  
     260A      1.953058   261A      1.965011   262A      1.976020  
     263A      1.993410   264A      2.007470   265A      2.025390  
     266A      2.047451   267A      2.064711   268A      2.084213  
     269A      2.094081   270A      2.138301   271A      2.183500  
     272A      2.200964   273A      2.211981   274A      2.230199  
     275A      2.244230   276A      2.302989   277A      2.318484  
     278A      2.348625   279A      2.367468   280A      2.378021  
     281A      2.382299   282A      2.393664   283A      2.405266  
     284A      2.415636   285A      2.419416   286A      2.447047  
     287A      2.462050   288A      2.466563   289A      2.481204  
     290A      2.487914   291A      2.497580   292A      2.506587  
     293A      2.521251   294A      2.533200   295A      2.539205  
     296A      2.542703   297A      2.553472   298A      2.571114  
     299A      2.581817   300A      2.586113   301A      2.600319  
     302A      2.615959   303A      2.618442   304A      2.634818  
     305A      2.643823   306A      2.653395   307A      2.665576  
     308A      2.689648   309A      2.708992   310A      2.721629  
     311A      2.736111   312A      2.755680   313A      2.765578  
     314A      2.775380   315A      2.779657   316A      2.793628  
     317A      2.804905   318A      2.813588   319A      2.814808  
     320A      2.839639   321A      2.854044   322A      2.860007  
     323A      2.877148   324A      2.890541   325A      2.897100  
     326A      2.905368   327A      2.917872   328A      2.932937  
     329A      2.942490   330A      2.954514   331A      2.963977  
     332A      2.971729   333A      2.986406   334A      2.998947  
     335A      3.017023   336A      3.049163   337A      3.073456  
     338A      3.082601   339A      3.122359   340A      3.128440  
     341A      3.225405   342A      3.268594   343A      3.365420  
     344A      3.549345   345A      3.718455   346A      3.780870  
     347A      3.810642   348A      3.829368   349A      3.848311  
     350A      3.893616   351A      3.897788   352A      3.914011  
     353A      3.938588   354A      4.031435   355A      4.083000  
     356A      4.106502   357A      4.151295   358A      4.159766  
     359A      4.160689   360A      4.194243   361A      4.211507  
     362A      4.230715   363A      4.250132   364A      4.259583  
     365A      4.267789   366A      4.276542   367A      4.282526  
     368A      4.291999   369A      4.303788   370A      4.329772  
     371A      4.336306   372A      4.354840   373A      4.359581  
     374A      4.375964   375A      4.394270   376A      4.410544  
     377A      4.419816   378A      4.445489   379A      4.453450  
     380A      4.472047   381A      4.478658   382A      4.485361  
     383A      4.489306   384A      4.507090   385A      4.513001  
     386A      4.519010   387A      4.529263   388A      4.548061  
     389A      4.553201   390A      4.566193   391A      4.591868  
     392A      4.604881   393A      4.611438   394A      4.648225  
     395A      4.671016   396A      4.692063   397A      4.721659  
     398A      4.723695   399A      4.786621   400A      4.795609  
     401A      4.825939   402A      4.849566   403A      4.852337  
     404A      4.864991   405A      4.876833   406A      4.948638  
     407A      4.970199   408A      4.998197   409A      5.018114  
     410A      5.119609   411A      5.136766   412A      5.149894  
     413A      5.161661   414A      5.178240   415A      5.215439  
     416A      5.238104   417A      5.245394   418A      5.248722  
     419A      5.253005   420A      5.279993   421A      5.293666  
     422A      5.345665   423A      5.359004   424A      5.369939  
     425A      5.379292   426A      5.404760   427A      5.440059  
     428A      5.453765   429A      5.494032   430A      5.512000  
     431A      5.515264   432A      5.545921   433A      5.635910  
     434A      5.645892   435A      5.693802   436A      5.720549  
     437A      5.750238   438A      5.837043   439A      5.864054  
     440A      6.302316   441A      6.311604   442A      6.332947  
     443A      6.361216   444A      6.451321   445A      6.590585  
     446A      6.620686   447A      6.629553   448A      6.648732  
     449A      6.675315   450A      6.776858   451A      6.803504  
     452A      6.814831   453A      6.841402   454A      6.857671  
     455A      6.923664   456A      6.936428   457A      6.982460  
     458A      7.010153   459A      7.053805   460A      7.165960  
     461A      7.188110   462A      7.201840   463A      7.211421  
     464A      7.229449   465A      7.239478   466A      7.256157  
     467A      7.305496   468A      7.317227   469A      7.334451  
     470A      7.337803   471A      7.346354   472A      7.358819  
     473A      7.368852   474A      7.379238   475A      7.387953  
     476A      7.395492   477A      7.410533   478A      7.417223  
     479A      7.430339   480A      7.432447   481A      7.450160  
     482A      7.460532   483A      7.470502   484A      7.476042  
     485A      7.498829   486A      7.517664   487A      7.539412  
     488A      7.548769   489A      7.557192   490A      7.578973  
     491A      7.655290   492A      7.679469   493A      7.698104  
     494A      7.822011   495A      7.828882   496A      7.875745  
     497A      7.934268   498A      7.939966   499A      7.966002  
     500A      7.971480   501A      7.988668   502A      8.074542  
     503A      8.085889   504A      8.109671   505A      8.748882  
     506A      8.781163   507A      8.821824   508A      8.916373  
     509A      8.933183   510A     10.552500   511A     15.407375  
     512A     15.533221   513A     15.893495   514A     15.933468  
     515A     16.858683   516A     31.005717   517A     31.097322  
     518A     31.440798   519A    198.323049  

    Final Occupation by Irrep:
              A 
    DOCC [    25 ]
    NA   [    25 ]
    NB   [    25 ]

  @DF-RHF Final Energy:  -380.26957054304313

   => Energetics <=

    Nuclear Repulsion Energy =            183.2975717134114859
    One-Electron Energy =                -890.4733197035042167
    Two-Electron Energy =                 326.9061774470496289
    Total Energy =                       -380.2695705430431303

Computation Completed


Properties will be evaluated at   0.000000,   0.000000,   0.000000 [a0]

Properties computed using the SCF density matrix


 Multipole Moments:

 ------------------------------------------------------------------------------------
     Multipole            Electronic (a.u.)      Nuclear  (a.u.)        Total (a.u.)
 ------------------------------------------------------------------------------------

 L = 1.  Multiply by 2.5417464519 to convert [e a0] to [Debye]
 Dipole X            :          5.5492691           -4.2987754            1.2504937
 Dipole Y            :         83.6743553          -85.9296793           -2.2553239
 Dipole Z            :         24.5563640          -26.4451033           -1.8887393
 Magnitude           :                                                    3.1964913

 ------------------------------------------------------------------------------------

*** tstop() called on moses-razer at Sat Jan  6 19:44:36 2024
Module time:
	user time   =      55.99 seconds =       0.93 minutes
	system time =       3.01 seconds =       0.05 minutes
	total time  =         15 seconds =       0.25 minutes
Total time:
	user time   =      55.99 seconds =       0.93 minutes
	system time =       3.01 seconds =       0.05 minutes
	total time  =         15 seconds =       0.25 minutes

*** tstart() called on moses-razer
*** at Sat Jan  6 19:44:36 2024


  //>>>>>>>>>>>>>>>>>>>>>>>>>>>>>>>>>>>//
  //               DFMP2               //
  //<<<<<<<<<<<<<<<<<<<<<<<<<<<<<<<<<<<//

   => Loading Basis Set <=

    Name: (AUG-CC-PVTZ AUX)
    Role: RIFIT
    Keyword: DF_BASIS_MP2
    atoms 1                            entry K          line  1282 file /home/kchung25/anaconda3/envs/p415env/share/psi4/basis/def2-qzvpp-ri.gbs 
    atoms 2, 5, 8, 11, 14              entry O          line   264 file /home/kchung25/anaconda3/envs/p415env/share/psi4/basis/aug-cc-pvtz-ri.gbs 
    atoms 3-4, 6-7, 9-10, 12-13, 15-16 entry H          line    30 file /home/kchung25/anaconda3/envs/p415env/share/psi4/basis/aug-cc-pvtz-ri.gbs 

	 --------------------------------------------------------
	                          DF-MP2                         
	      2nd-Order Density-Fitted Moller-Plesset Theory     
	              RMP2 Wavefunction,   6 Threads             
	                                                         
	        Rob Parrish, Justin Turney, Andy Simmonett,      
	           Ed Hohenstein, and C. David Sherrill          
	 --------------------------------------------------------

   => Auxiliary Basis Set <=

  Basis Set: (AUG-CC-PVTZ AUX)
    Blend: AUG-CC-PVTZ-RI + DEF2-QZVPP-RI
    Number of shells: 329
    Number of basis functions: 1189
    Number of Cartesian functions: 1492
    Spherical Harmonics?: true
    Max angular momentum: 4

	 --------------------------------------------------------
	                 NBF =   519, NAUX =  1189
	 --------------------------------------------------------
	   CLASS    FOCC     OCC    AOCC    AVIR     VIR    FVIR
	   PAIRS       0      25      25     494     494       0
	 --------------------------------------------------------

	-----------------------------------------------------------
	 ==================> DF-MP2 Energies <==================== 
	-----------------------------------------------------------
	 Reference Energy          =    -380.2695705430431303 [Eh]
	 Singles Energy            =      -0.0000000000000000 [Eh]
	 Same-Spin Energy          =      -0.3476475210834032 [Eh]
	 Opposite-Spin Energy      =      -1.0878129659836304 [Eh]
	 Correlation Energy        =      -1.4354604870670336 [Eh]
	 Total Energy              =    -381.7050310301101490 [Eh]
	-----------------------------------------------------------
	 ================> DF-SCS-MP2 Energies <================== 
	-----------------------------------------------------------
	 SCS Same-Spin Scale       =       0.3333333333333333 [-]
	 SCS Opposite-Spin Scale   =       1.2000000000000000 [-]
	 SCS Same-Spin Energy      =      -0.1158825070278011 [Eh]
	 SCS Opposite-Spin Energy  =      -1.3053755591803564 [Eh]
	 SCS Correlation Energy    =      -1.4212580662081575 [Eh]
	 SCS Total Energy          =    -381.6908286092512981 [Eh]
	-----------------------------------------------------------


*** tstop() called on moses-razer at Sat Jan  6 19:44:45 2024
Module time:
	user time   =      25.79 seconds =       0.43 minutes
	system time =       1.78 seconds =       0.03 minutes
	total time  =          9 seconds =       0.15 minutes
Total time:
	user time   =      81.78 seconds =       1.36 minutes
	system time =       4.79 seconds =       0.08 minutes
	total time  =         24 seconds =       0.40 minutes

    Psi4 stopped on: Saturday, 06 January 2024 07:44PM
    Psi4 wall time for execution: 0:00:23.83


    -----------------------------------------------------------------------
          Psi4: An Open-Source Ab Initio Electronic Structure Package
                               Psi4 1.9 release

                         Git: Rev {} zzzzzzz 


    D. G. A. Smith, L. A. Burns, A. C. Simmonett, R. M. Parrish,
    M. C. Schieber, R. Galvelis, P. Kraus, H. Kruse, R. Di Remigio,
    A. Alenaizan, A. M. James, S. Lehtola, J. P. Misiewicz, M. Scheurer,
    R. A. Shaw, J. B. Schriber, Y. Xie, Z. L. Glick, D. A. Sirianni,
    J. S. O'Brien, J. M. Waldrop, A. Kumar, E. G. Hohenstein,
    B. P. Pritchard, B. R. Brooks, H. F. Schaefer III, A. Yu. Sokolov,
    K. Patkowski, A. E. DePrince III, U. Bozkaya, R. A. King,
    F. A. Evangelista, J. M. Turney, T. D. Crawford, C. D. Sherrill,
    J. Chem. Phys. 152(18) 184108 (2020). https://doi.org/10.1063/5.0006002

                            Additional Code Authors
    E. T. Seidl, C. L. Janssen, E. F. Valeev, M. L. Leininger,
    J. F. Gonthier, R. M. Richard, H. R. McAlexander, M. Saitow, X. Wang,
    P. Verma, M. H. Lechner, A. Jiang, S. Behnle, A. G. Heide,
    M. F. Herbst, and D. L. Poole

             Previous Authors, Complete List of Code Contributors,
                       and Citations for Specific Modules
    https://github.com/psi4/psi4/blob/master/codemeta.json
    https://github.com/psi4/psi4/graphs/contributors
    http://psicode.org/psi4manual/master/introduction.html#citing-psifour

    -----------------------------------------------------------------------


    Psi4 started on: Saturday, 06 January 2024 07:44PM

    Process ID: 553614
    Host:       moses-razer
    PSIDATADIR: /home/kchung25/anaconda3/envs/psi4_19/share/psi4
    Memory:     55.9 GiB
    Threads:    6
    
  ==> Input QCSchema <==

--------------------------------------------------------------------------
{'driver': 'energy',
 'extras': {'psiapi': True, 'wfn_qcvars_only': True},
 'id': None,
 'keywords': {'SCF_TYPE': 'DF', 'function_kwargs': {}},
 'model': {'basis': 'aug-cc-pvtz', 'method': 'mp2'},
 'molecule': {'atom_labels': ['', '', '', '', '', '', '', '', '', '', '', '', '', '', '', ''],
              'atomic_numbers': [19, 8, 1, 1, 8, 1, 1, 8, 1, 1, 8, 1, 1, 8, 1, 1],
              'extras': {},
              'fix_com': True,
              'fix_orientation': True,
              'fix_symmetry': 'c1',
              'fragment_charges': [1.0, 0.0],
              'fragment_multiplicities': [1, 1],
              'fragments': [[0], [1, 2, 3, 4, 5, 6, 7, 8, 9, 10, 11, 12, 13, 14, 15]],
              'geometry': [0.0, 0.0, 0.0, 5.3909294324826975, -0.6312649019353129, -0.353012178592275,
                           6.925957743644342, -1.4588723483056942, 0.21487130909518234, 5.62567499123932,
                           -0.47003724836350197, -2.1890266183862153, -3.451083990725477, -0.6092458131214783,
                           -3.7503013357043433, -2.45222011423548, -0.11704207730635605, -5.204755504328718,
                           -3.1839334083695037, -2.4921216813745217, -3.762601563054948, -0.6607465192185805,
                           -4.434472899974099, 1.985047690678172, 0.39535905133765953, -5.894496091490198,
                           2.36186852872509, -2.3986293710436213, -4.991048266526818, 2.138244008216787,
                           -3.63555905509267, -0.3369400578952562, 4.1256878716220395, -2.7167723231689482,
                           -1.9199787510002824, 4.202830271515479, -4.740385544615464, -0.46840263526498094,
                           2.7539281182477002, 1.6072763203901483, -1.930461061818197, -4.0912778486035775,
                           1.1241621672384783, -3.2085943343067282, -5.26129044082404, 3.1154818589270445,
                           -1.3700079772560398, -5.028325004077598],
              'mass_numbers': [39, 16, 1, 1, 16, 1, 1, 16, 1, 1, 16, 1, 1, 16, 1, 1],
              'masses': [38.9637064864, 15.99491461957, 1.00782503223, 1.00782503223, 15.99491461957, 1.00782503223,
                         1.00782503223, 15.99491461957, 1.00782503223, 1.00782503223, 15.99491461957, 1.00782503223,
                         1.00782503223, 15.99491461957, 1.00782503223, 1.00782503223],
              'molecular_charge': 1.0,
              'molecular_multiplicity': 1,
              'name': 'dimer',
              'provenance': {'creator': 'QCElemental',
                             'routine': 'qcelemental.molparse.from_string',
                             'version': '0.27.1'},
              'real': [True, False, False, False, False, False, False, False, False, False, False, False, False, False,
                       False, False],
              'schema_name': 'qcschema_molecule',
              'schema_version': 2,
              'symbols': ['K', 'O', 'H', 'H', 'O', 'H', 'H', 'O', 'H', 'H', 'O', 'H', 'H', 'O', 'H', 'H'],
              'validated': True},
 'protocols': {'stdout': True},
 'provenance': {'creator': 'QCElemental', 'routine': 'qcelemental.models.results', 'version': '0.27.1'},
 'schema_name': 'qcschema_input',
 'schema_version': 1}
--------------------------------------------------------------------------

Scratch directory: /scratch/
   => Libint2 <=

    Primary   basis highest AM E, G, H:  5, 4, 3
    Auxiliary basis highest AM E, G, H:  6, 5, 4
    Onebody   basis highest AM E, G, H:  6, 5, 4
    Solid Harmonics ordering:            gaussian

*** tstart() called on moses-razer
*** at Sat Jan  6 19:44:45 2024

   => Loading Basis Set <=

    Name: AUG-CC-PVTZ
    Role: ORBITAL
    Keyword: BASIS
    atoms 1                            entry K          line  1152 file /home/kchung25/anaconda3/envs/p415env/share/psi4/basis/aug-cc-pvtz.gbs 
    atoms 2, 5, 8, 11, 14              entry O          line   331 file /home/kchung25/anaconda3/envs/p415env/share/psi4/basis/aug-cc-pvtz.gbs 
    atoms 3-4, 6-7, 9-10, 12-13, 15-16 entry H          line    40 file /home/kchung25/anaconda3/envs/p415env/share/psi4/basis/aug-cc-pvtz.gbs 


         ---------------------------------------------------------
                                   SCF
               by Justin Turney, Rob Parrish, Andy Simmonett
                          and Daniel G. A. Smith
                              RHF Reference
                        6 Threads,  57220 MiB Core
         ---------------------------------------------------------

  ==> Geometry <==

    Molecular point group: c1
    Full point group: C1

    Geometry (in Bohr), charge = 1, multiplicity = 1:

       Center              X                  Y                   Z               Mass       
    ------------   -----------------  -----------------  -----------------  -----------------
         K            0.000000000000     0.000000000000     0.000000000000    38.963706486400
      Gh(O)           5.390929432483    -0.631264901935    -0.353012178592    15.994914619570
      Gh(H)           6.925957743644    -1.458872348306     0.214871309095     1.007825032230
      Gh(H)           5.625674991239    -0.470037248364    -2.189026618386     1.007825032230
      Gh(O)          -3.451083990725    -0.609245813121    -3.750301335704    15.994914619570
      Gh(H)          -2.452220114235    -0.117042077306    -5.204755504329     1.007825032230
      Gh(H)          -3.183933408370    -2.492121681375    -3.762601563055     1.007825032230
      Gh(O)          -0.660746519219    -4.434472899974     1.985047690678    15.994914619570
      Gh(H)           0.395359051338    -5.894496091490     2.361868528725     1.007825032230
      Gh(H)          -2.398629371044    -4.991048266527     2.138244008217     1.007825032230
      Gh(O)          -3.635559055093    -0.336940057895     4.125687871622    15.994914619570
      Gh(H)          -2.716772323169    -1.919978751000     4.202830271515     1.007825032230
      Gh(H)          -4.740385544615    -0.468402635265     2.753928118248     1.007825032230
      Gh(O)           1.607276320390    -1.930461061818    -4.091277848604    15.994914619570
      Gh(H)           1.124162167238    -3.208594334307    -5.261290440824     1.007825032230
      Gh(H)           3.115481858927    -1.370007977256    -5.028325004078     1.007825032230

  Running in c1 symmetry.

  Rotational constants: A =      0.04799  B =      0.03508  C =      0.02974 [cm^-1]
  Rotational constants: A =   1438.68240  B =   1051.63618  C =    891.58750 [MHz]
  Nuclear repulsion =    0.000000000000000

  Charge       = 1
  Multiplicity = 1
  Electrons    = 18
  Nalpha       = 9
  Nbeta        = 9

  ==> Algorithm <==

  SCF Algorithm Type is DF.
  DIIS enabled.
  MOM disabled.
  Fractional occupation disabled.
  Guess Type is SAD.
  Energy threshold   = 1.00e-08
  Density threshold  = 1.00e-08
  Integral threshold = 1.00e-12

  ==> Primary Basis <==

  Basis Set: AUG-CC-PVTZ
    Blend: AUG-CC-PVTZ
    Number of shells: 179
    Number of basis functions: 519
    Number of Cartesian functions: 594
    Spherical Harmonics?: true
    Max angular momentum: 3

   => Loading Basis Set <=

    Name: (AUG-CC-PVTZ AUX)
    Role: JKFIT
    Keyword: DF_BASIS_SCF
    atoms 1                            entry K          line  1152 file /home/kchung25/anaconda3/envs/p415env/share/psi4/basis/def2-universal-jkfit.gbs 
    atoms 2, 5, 8, 11, 14              entry O          line   286 file /home/kchung25/anaconda3/envs/p415env/share/psi4/basis/aug-cc-pvtz-jkfit.gbs 
    atoms 3-4, 6-7, 9-10, 12-13, 15-16 entry H          line    70 file /home/kchung25/anaconda3/envs/p415env/share/psi4/basis/aug-cc-pvtz-jkfit.gbs 

  ==> Integral Setup <==

  DFHelper Memory: AOs need 2.139 GiB; user supplied 41.910 GiB. 
  Using in-core AOs.

  ==> MemDFJK: Density-Fitted J/K Matrices <==

    J tasked:                   Yes
    K tasked:                   Yes
    wK tasked:                   No
    OpenMP threads:               6
    Memory [MiB]:             42915
    Algorithm:                 Core
    Schwarz Cutoff:           1E-12
    Mask sparsity (%):       9.8433
    Fitting Condition:        1E-10

   => Auxiliary Basis Set <=

  Basis Set: (AUG-CC-PVTZ AUX)
    Blend: AUG-CC-PVTZ-JKFIT + DEF2-UNIVERSAL-JKFIT
    Number of shells: 334
    Number of basis functions: 1140
    Number of Cartesian functions: 1408
    Spherical Harmonics?: true
    Max angular momentum: 4

  Minimum eigenvalue in the overlap matrix is 3.8796887316E-05.
  Reciprocal condition number of the overlap matrix is 2.6090618747E-06.
    Using symmetric orthogonalization.

  ==> Pre-Iterations <==

  SCF Guess: Superposition of Atomic Densities via on-the-fly atomic UHF (no occupation information).

   -------------------------
    Irrep   Nso     Nmo    
   -------------------------
     A        519     519 
   -------------------------
    Total     519     519
   -------------------------

  ==> Iterations <==

                           Total Energy        Delta E     RMS |[F,P]|

   @DF-RHF iter SAD:  -599.05180256160429   -5.99052e+02   0.00000e+00 
   @DF-RHF iter   1:  -599.01746088318794    3.43417e-02   2.09925e-05 DIIS
   @DF-RHF iter   2:  -599.01751491068399   -5.40275e-05   2.36821e-06 DIIS
   @DF-RHF iter   3:  -599.01751613424653   -1.22356e-06   4.08335e-07 DIIS
   @DF-RHF iter   4:  -599.01751616154684   -2.73003e-08   2.54222e-08 DIIS
   @DF-RHF iter   5:  -599.01751616167144   -1.24601e-10   5.20875e-09 DIIS
  Energy and wave function converged.


  ==> Post-Iterations <==

    Orbital Energies [Eh]
    ---------------------

    Doubly Occupied:                                                      

       1A   -133.752575     2A    -14.708259     3A    -11.738320  
       4A    -11.738319     5A    -11.738318     6A     -1.963911  
       7A     -1.170625     8A     -1.170609     9A     -1.170591  

    Virtual:                                                              

      10A     -0.146959    11A     -0.095555    12A     -0.095553  
      13A     -0.095550    14A     -0.060671    15A     -0.057984  
      16A     -0.057967    17A     -0.057956    18A     -0.057925  
      19A     -0.057913    20A     -0.045541    21A     -0.045539  
      22A     -0.045538    23A     -0.031360    24A     -0.031326  
      25A     -0.031315    26A     -0.031280    27A     -0.031277  
      28A     -0.019203    29A     -0.018804    30A     -0.018439  
      31A     -0.017006    32A     -0.014469    33A     -0.013438  
      34A     -0.012063    35A     -0.011086    36A     -0.010318  
      37A     -0.001716    38A      0.000118    39A      0.004750  
      40A      0.007658    41A      0.008943    42A      0.009738  
      43A      0.011234    44A      0.027363    45A      0.028107  
      46A      0.033839    47A      0.039337    48A      0.043781  
      49A      0.052001    50A      0.054973    51A      0.057416  
      52A      0.060492    53A      0.063035    54A      0.073449  
      55A      0.082496    56A      0.085542    57A      0.087105  
      58A      0.088641    59A      0.094025    60A      0.094147  
      61A      0.095477    62A      0.096840    63A      0.101670  
      64A      0.105587    65A      0.112462    66A      0.120604  
      67A      0.128081    68A      0.130240    69A      0.140006  
      70A      0.142833    71A      0.146398    72A      0.157922  
      73A      0.175714    74A      0.179966    75A      0.181605  
      76A      0.191197    77A      0.194847    78A      0.208422  
      79A      0.211032    80A      0.219044    81A      0.221172  
      82A      0.226429    83A      0.234892    84A      0.237913  
      85A      0.245520    86A      0.249706    87A      0.256965  
      88A      0.258781    89A      0.261175    90A      0.262547  
      91A      0.266691    92A      0.282809    93A      0.282936  
      94A      0.286563    95A      0.287883    96A      0.293422  
      97A      0.297759    98A      0.304360    99A      0.308916  
     100A      0.312765   101A      0.319110   102A      0.322124  
     103A      0.328289   104A      0.330821   105A      0.336936  
     106A      0.344806   107A      0.346934   108A      0.355503  
     109A      0.357137   110A      0.361546   111A      0.363441  
     112A      0.375352   113A      0.380310   114A      0.381382  
     115A      0.384994   116A      0.396169   117A      0.402310  
     118A      0.407979   119A      0.422725   120A      0.424636  
     121A      0.433642   122A      0.439733   123A      0.447417  
     124A      0.454565   125A      0.461658   126A      0.473881  
     127A      0.488466   128A      0.502038   129A      0.541959  
     130A      0.572439   131A      0.576738   132A      0.594378  
     133A      0.601677   134A      0.615092   135A      0.630454  
     136A      0.635667   137A      0.640352   138A      0.647631  
     139A      0.654834   140A      0.661428   141A      0.671332  
     142A      0.679331   143A      0.694269   144A      0.699293  
     145A      0.705767   146A      0.711108   147A      0.714533  
     148A      0.723027   149A      0.726041   150A      0.737268  
     151A      0.741598   152A      0.751893   153A      0.764305  
     154A      0.766561   155A      0.772208   156A      0.785192  
     157A      0.788464   158A      0.791349   159A      0.800108  
     160A      0.805632   161A      0.808304   162A      0.810046  
     163A      0.821104   164A      0.824929   165A      0.838286  
     166A      0.847834   167A      0.849734   168A      0.851499  
     169A      0.866681   170A      0.875027   171A      0.883526  
     172A      0.887242   173A      0.901897   174A      0.903451  
     175A      0.918316   176A      0.922312   177A      0.927895  
     178A      0.935154   179A      0.943958   180A      0.956762  
     181A      0.962580   182A      0.968692   183A      0.984774  
     184A      0.995182   185A      1.001006   186A      1.006439  
     187A      1.014360   188A      1.017767   189A      1.023519  
     190A      1.039872   191A      1.043905   192A      1.052316  
     193A      1.061749   194A      1.063299   195A      1.071477  
     196A      1.076054   197A      1.098358   198A      1.101503  
     199A      1.112560   200A      1.120153   201A      1.135340  
     202A      1.139705   203A      1.143054   204A      1.153171  
     205A      1.163799   206A      1.170143   207A      1.187878  
     208A      1.190127   209A      1.202185   210A      1.206705  
     211A      1.235993   212A      1.249589   213A      1.259332  
     214A      1.268173   215A      1.297665   216A      1.300404  
     217A      1.305784   218A      1.332148   219A      1.338201  
     220A      1.348336   221A      1.363748   222A      1.385402  
     223A      1.394354   224A      1.408975   225A      1.416895  
     226A      1.427183   227A      1.438843   228A      1.446084  
     229A      1.463632   230A      1.480522   231A      1.534680  
     232A      1.543118   233A      1.547366   234A      1.562384  
     235A      1.588045   236A      1.609852   237A      1.627325  
     238A      1.639308   239A      1.644539   240A      1.650125  
     241A      1.678107   242A      1.686720   243A      1.702209  
     244A      1.713541   245A      1.723918   246A      1.735233  
     247A      1.744211   248A      1.747090   249A      1.757914  
     250A      1.765535   251A      1.772033   252A      1.807496  
     253A      1.817731   254A      1.831635   255A      1.839123  
     256A      1.859642   257A      1.868259   258A      1.894905  
     259A      1.907379   260A      1.931536   261A      1.943987  
     262A      1.975475   263A      1.996716   264A      2.078473  
     265A      2.239459   266A      2.262901   267A      2.268157  
     268A      2.288445   269A      2.306936   270A      2.310890  
     271A      2.327117   272A      2.358467   273A      2.366513  
     274A      2.380868   275A      2.390324   276A      2.399735  
     277A      2.406897   278A      2.415633   279A      2.423997  
     280A      2.436422   281A      2.452194   282A      2.466867  
     283A      2.481225   284A      2.489703   285A      2.497415  
     286A      2.509891   287A      2.515867   288A      2.525637  
     289A      2.540865   290A      2.555472   291A      2.563122  
     292A      2.578644   293A      2.593870   294A      2.605764  
     295A      2.629025   296A      2.644765   297A      2.652813  
     298A      2.667503   299A      2.679133   300A      2.690205  
     301A      2.709870   302A      2.724762   303A      2.736935  
     304A      2.751451   305A      2.770257   306A      2.794840  
     307A      2.839765   308A      2.849151   309A      2.881260  
     310A      2.990965   311A      3.017558   312A      3.028069  
     313A      3.040035   314A      3.063382   315A      3.064595  
     316A      3.073090   317A      3.082662   318A      3.109883  
     319A      3.115937   320A      3.138869   321A      3.157969  
     322A      3.162037   323A      3.170134   324A      3.178830  
     325A      3.193030   326A      3.194833   327A      3.210503  
     328A      3.229009   329A      3.250776   330A      3.260987  
     331A      3.283104   332A      3.294244   333A      3.372007  
     334A      3.377172   335A      3.448444   336A      3.456707  
     337A      3.486827   338A      3.526862   339A      3.547399  
     340A      3.562670   341A      3.574604   342A      3.613763  
     343A      3.641070   344A      3.648158   345A      4.232465  
     346A      4.250196   347A      4.257989   348A      4.271874  
     349A      4.307295   350A      4.333383   351A      4.338785  
     352A      4.365793   353A      4.370303   354A      4.370945  
     355A      4.394368   356A      4.401671   357A      4.403219  
     358A      4.426366   359A      4.429556   360A      4.457931  
     361A      4.475328   362A      4.480120   363A      4.498217  
     364A      4.512594   365A      4.518554   366A      4.550596  
     367A      4.591119   368A      4.595375   369A      4.603143  
     370A      4.614727   371A      4.640291   372A      4.649319  
     373A      4.680323   374A      4.740321   375A      4.755734  
     376A      4.777248   377A      4.801804   378A      4.819610  
     379A      4.829147   380A      4.841140   381A      4.851555  
     382A      4.882694   383A      4.888166   384A      4.897372  
     385A      4.934208   386A      4.947601   387A      4.971954  
     388A      5.012994   389A      5.038222   390A      5.070837  
     391A      5.078421   392A      5.207350   393A      5.225393  
     394A      5.248073   395A      5.309506   396A      5.344960  
     397A      5.357593   398A      5.376451   399A      5.402808  
     400A      5.410623   401A      5.434367   402A      5.446993  
     403A      5.456024   404A      5.481651   405A      5.527993  
     406A      5.559589   407A      5.566481   408A      5.569918  
     409A      5.606152   410A      5.709837   411A      5.714053  
     412A      5.720212   413A      5.735823   414A      5.813709  
     415A      5.993452   416A      6.012702   417A      6.027458  
     418A      6.117941   419A      6.131057   420A      6.167737  
     421A      6.219607   422A      6.231801   423A      6.245821  
     424A      6.335375   425A      6.347365   426A      6.460467  
     427A      6.522999   428A      6.563256   429A      6.604879  
     430A      6.791087   431A      6.858477   432A      6.910755  
     433A      6.936922   434A      6.994278   435A      7.524564  
     436A      7.552330   437A      7.558111   438A      7.570584  
     439A      7.580956   440A      7.637365   441A      7.648652  
     442A      7.690882   443A      7.701930   444A      7.769575  
     445A      7.873919   446A      7.891507   447A      7.906187  
     448A      7.910588   449A      7.937666   450A      7.950289  
     451A      7.958095   452A      7.973468   453A      8.041656  
     454A      8.076823   455A      8.100936   456A      8.111774  
     457A      8.135340   458A      8.159521   459A      8.229554  
     460A      8.409439   461A      8.521329   462A      8.533526  
     463A      8.582290   464A      8.600411   465A      8.624872  
     466A      8.642124   467A      8.721839   468A      8.732233  
     469A      8.818963   470A      9.563235   471A      9.570439  
     472A      9.609649   473A      9.637849   474A      9.640542  
     475A      9.753474   476A      9.756400   477A      9.768724  
     478A      9.785320   479A      9.826691   480A      9.836175  
     481A      9.850224   482A      9.860018   483A      9.927682  
     484A      9.934876   485A     10.027566   486A     10.058350  
     487A     10.068346   488A     10.108050   489A     10.156454  
     490A     10.873331   491A     10.964082   492A     10.966073  
     493A     11.049790   494A     11.082765   495A     11.497268  
     496A     11.537793   497A     11.575669   498A     11.654374  
     499A     11.677317   500A     11.746805   501A     11.823713  
     502A     11.999500   503A     12.033034   504A     12.147692  
     505A     13.329046   506A     13.334401   507A     13.353911  
     508A     13.439329   509A     13.581325   510A     13.701435  
     511A     13.729590   512A     13.752176   513A     13.774887  
     514A     13.815241   515A     63.789644   516A     64.073217  
     517A     64.820572   518A     64.909932   519A     66.522093  

    Final Occupation by Irrep:
              A 
    DOCC [     9 ]
    NA   [     9 ]
    NB   [     9 ]

  @DF-RHF Final Energy:  -599.01751616167144

   => Energetics <=

    Nuclear Repulsion Energy =              0.0000000000000000
    One-Electron Energy =                -819.7319772967726976
    Two-Electron Energy =                 220.7144611351012884
    Total Energy =                       -599.0175161616714377

Computation Completed


Properties will be evaluated at   0.000000,   0.000000,   0.000000 [a0]

Properties computed using the SCF density matrix


 Multipole Moments:

 ------------------------------------------------------------------------------------
     Multipole            Electronic (a.u.)      Nuclear  (a.u.)        Total (a.u.)
 ------------------------------------------------------------------------------------

 L = 1.  Multiply by 2.5417464519 to convert [e a0] to [Debye]
 Dipole X            :         -0.0000651            0.0000000           -0.0000651
 Dipole Y            :         -0.0003196            0.0000000           -0.0003196
 Dipole Z            :         -0.0001237            0.0000000           -0.0001237
 Magnitude           :                                                    0.0003489

 ------------------------------------------------------------------------------------

*** tstop() called on moses-razer at Sat Jan  6 19:44:59 2024
Module time:
	user time   =      42.47 seconds =       0.71 minutes
	system time =       3.49 seconds =       0.06 minutes
	total time  =         14 seconds =       0.23 minutes
Total time:
	user time   =     124.60 seconds =       2.08 minutes
	system time =       8.28 seconds =       0.14 minutes
	total time  =         38 seconds =       0.63 minutes

*** tstart() called on moses-razer
*** at Sat Jan  6 19:44:59 2024


  //>>>>>>>>>>>>>>>>>>>>>>>>>>>>>>>>>>>//
  //               DFMP2               //
  //<<<<<<<<<<<<<<<<<<<<<<<<<<<<<<<<<<<//

   => Loading Basis Set <=

    Name: (AUG-CC-PVTZ AUX)
    Role: RIFIT
    Keyword: DF_BASIS_MP2
    atoms 1                            entry K          line  1282 file /home/kchung25/anaconda3/envs/p415env/share/psi4/basis/def2-qzvpp-ri.gbs 
    atoms 2, 5, 8, 11, 14              entry O          line   264 file /home/kchung25/anaconda3/envs/p415env/share/psi4/basis/aug-cc-pvtz-ri.gbs 
    atoms 3-4, 6-7, 9-10, 12-13, 15-16 entry H          line    30 file /home/kchung25/anaconda3/envs/p415env/share/psi4/basis/aug-cc-pvtz-ri.gbs 

	 --------------------------------------------------------
	                          DF-MP2                         
	      2nd-Order Density-Fitted Moller-Plesset Theory     
	              RMP2 Wavefunction,   6 Threads             
	                                                         
	        Rob Parrish, Justin Turney, Andy Simmonett,      
	           Ed Hohenstein, and C. David Sherrill          
	 --------------------------------------------------------

   => Auxiliary Basis Set <=

  Basis Set: (AUG-CC-PVTZ AUX)
    Blend: AUG-CC-PVTZ-RI + DEF2-QZVPP-RI
    Number of shells: 329
    Number of basis functions: 1189
    Number of Cartesian functions: 1492
    Spherical Harmonics?: true
    Max angular momentum: 4

	 --------------------------------------------------------
	                 NBF =   519, NAUX =  1189
	 --------------------------------------------------------
	   CLASS    FOCC     OCC    AOCC    AVIR     VIR    FVIR
	   PAIRS       0       9       9     510     510       0
	 --------------------------------------------------------

	-----------------------------------------------------------
	 ==================> DF-MP2 Energies <==================== 
	-----------------------------------------------------------
	 Reference Energy          =    -599.0175161616714377 [Eh]
	 Singles Energy            =      -0.0000000000000000 [Eh]
	 Same-Spin Energy          =      -0.0377130894251936 [Eh]
	 Opposite-Spin Energy      =      -0.0921297369149829 [Eh]
	 Correlation Energy        =      -0.1298428263401764 [Eh]
	 Total Energy              =    -599.1473589880116606 [Eh]
	-----------------------------------------------------------
	 ================> DF-SCS-MP2 Energies <================== 
	-----------------------------------------------------------
	 SCS Same-Spin Scale       =       0.3333333333333333 [-]
	 SCS Opposite-Spin Scale   =       1.2000000000000000 [-]
	 SCS Same-Spin Energy      =      -0.0125710298083979 [Eh]
	 SCS Opposite-Spin Energy  =      -0.1105556842979794 [Eh]
	 SCS Correlation Energy    =      -0.1231267141063773 [Eh]
	 SCS Total Energy          =    -599.1406428757778713 [Eh]
	-----------------------------------------------------------


*** tstop() called on moses-razer at Sat Jan  6 19:45:07 2024
Module time:
	user time   =      18.60 seconds =       0.31 minutes
	system time =       1.46 seconds =       0.02 minutes
	total time  =          8 seconds =       0.13 minutes
Total time:
	user time   =     143.21 seconds =       2.39 minutes
	system time =       9.74 seconds =       0.16 minutes
	total time  =         46 seconds =       0.77 minutes

    Psi4 stopped on: Saturday, 06 January 2024 07:45PM
    Psi4 wall time for execution: 0:00:21.75


    -----------------------------------------------------------------------
          Psi4: An Open-Source Ab Initio Electronic Structure Package
                               Psi4 1.9 release

                         Git: Rev {} zzzzzzz 


    D. G. A. Smith, L. A. Burns, A. C. Simmonett, R. M. Parrish,
    M. C. Schieber, R. Galvelis, P. Kraus, H. Kruse, R. Di Remigio,
    A. Alenaizan, A. M. James, S. Lehtola, J. P. Misiewicz, M. Scheurer,
    R. A. Shaw, J. B. Schriber, Y. Xie, Z. L. Glick, D. A. Sirianni,
    J. S. O'Brien, J. M. Waldrop, A. Kumar, E. G. Hohenstein,
    B. P. Pritchard, B. R. Brooks, H. F. Schaefer III, A. Yu. Sokolov,
    K. Patkowski, A. E. DePrince III, U. Bozkaya, R. A. King,
    F. A. Evangelista, J. M. Turney, T. D. Crawford, C. D. Sherrill,
    J. Chem. Phys. 152(18) 184108 (2020). https://doi.org/10.1063/5.0006002

                            Additional Code Authors
    E. T. Seidl, C. L. Janssen, E. F. Valeev, M. L. Leininger,
    J. F. Gonthier, R. M. Richard, H. R. McAlexander, M. Saitow, X. Wang,
    P. Verma, M. H. Lechner, A. Jiang, S. Behnle, A. G. Heide,
    M. F. Herbst, and D. L. Poole

             Previous Authors, Complete List of Code Contributors,
                       and Citations for Specific Modules
    https://github.com/psi4/psi4/blob/master/codemeta.json
    https://github.com/psi4/psi4/graphs/contributors
    http://psicode.org/psi4manual/master/introduction.html#citing-psifour

    -----------------------------------------------------------------------


    Psi4 started on: Saturday, 06 January 2024 07:44PM

    Process ID: 553614
    Host:       moses-razer
    PSIDATADIR: /home/kchung25/anaconda3/envs/psi4_19/share/psi4
    Memory:     55.9 GiB
    Threads:    6
    
  ==> Input QCSchema <==

--------------------------------------------------------------------------
{'driver': 'energy',
 'extras': {'psiapi': True, 'wfn_qcvars_only': True},
 'id': None,
 'keywords': {'SCF_TYPE': 'DF', 'function_kwargs': {}},
 'model': {'basis': 'aug-cc-pvtz', 'method': 'mp2'},
 'molecule': {'atom_labels': ['', '', '', '', '', '', '', '', '', '', '', '', '', '', '', ''],
              'atomic_numbers': [19, 8, 1, 1, 8, 1, 1, 8, 1, 1, 8, 1, 1, 8, 1, 1],
              'extras': {},
              'fix_com': True,
              'fix_orientation': True,
              'fix_symmetry': 'c1',
              'fragment_charges': [1.0, 0.0],
              'fragment_multiplicities': [1, 1],
              'fragments': [[0], [1, 2, 3, 4, 5, 6, 7, 8, 9, 10, 11, 12, 13, 14, 15]],
              'geometry': [0.0, 0.0, 0.0, 5.3909294324826975, -0.6312649019353129, -0.353012178592275,
                           6.925957743644342, -1.4588723483056942, 0.21487130909518234, 5.62567499123932,
                           -0.47003724836350197, -2.1890266183862153, -3.451083990725477, -0.6092458131214783,
                           -3.7503013357043433, -2.45222011423548, -0.11704207730635605, -5.204755504328718,
                           -3.1839334083695037, -2.4921216813745217, -3.762601563054948, -0.6607465192185805,
                           -4.434472899974099, 1.985047690678172, 0.39535905133765953, -5.894496091490198,
                           2.36186852872509, -2.3986293710436213, -4.991048266526818, 2.138244008216787,
                           -3.63555905509267, -0.3369400578952562, 4.1256878716220395, -2.7167723231689482,
                           -1.9199787510002824, 4.202830271515479, -4.740385544615464, -0.46840263526498094,
                           2.7539281182477002, 1.6072763203901483, -1.930461061818197, -4.0912778486035775,
                           1.1241621672384783, -3.2085943343067282, -5.26129044082404, 3.1154818589270445,
                           -1.3700079772560398, -5.028325004077598],
              'mass_numbers': [39, 16, 1, 1, 16, 1, 1, 16, 1, 1, 16, 1, 1, 16, 1, 1],
              'masses': [38.9637064864, 15.99491461957, 1.00782503223, 1.00782503223, 15.99491461957, 1.00782503223,
                         1.00782503223, 15.99491461957, 1.00782503223, 1.00782503223, 15.99491461957, 1.00782503223,
                         1.00782503223, 15.99491461957, 1.00782503223, 1.00782503223],
              'molecular_charge': 1.0,
              'molecular_multiplicity': 1,
              'name': 'dimer',
              'provenance': {'creator': 'QCElemental',
                             'routine': 'qcelemental.molparse.from_string',
                             'version': '0.27.1'},
              'real': [True, True, True, True, True, True, True, True, True, True, True, True, True, True, True, True],
              'schema_name': 'qcschema_molecule',
              'schema_version': 2,
              'symbols': ['K', 'O', 'H', 'H', 'O', 'H', 'H', 'O', 'H', 'H', 'O', 'H', 'H', 'O', 'H', 'H'],
              'validated': True},
 'protocols': {'stdout': True},
 'provenance': {'creator': 'QCElemental', 'routine': 'qcelemental.models.results', 'version': '0.27.1'},
 'schema_name': 'qcschema_input',
 'schema_version': 1}
--------------------------------------------------------------------------

Scratch directory: /scratch/
   => Libint2 <=

    Primary   basis highest AM E, G, H:  5, 4, 3
    Auxiliary basis highest AM E, G, H:  6, 5, 4
    Onebody   basis highest AM E, G, H:  6, 5, 4
    Solid Harmonics ordering:            gaussian

*** tstart() called on moses-razer
*** at Sat Jan  6 19:45:07 2024

   => Loading Basis Set <=

    Name: AUG-CC-PVTZ
    Role: ORBITAL
    Keyword: BASIS
    atoms 1                            entry K          line  1152 file /home/kchung25/anaconda3/envs/p415env/share/psi4/basis/aug-cc-pvtz.gbs 
    atoms 2, 5, 8, 11, 14              entry O          line   331 file /home/kchung25/anaconda3/envs/p415env/share/psi4/basis/aug-cc-pvtz.gbs 
    atoms 3-4, 6-7, 9-10, 12-13, 15-16 entry H          line    40 file /home/kchung25/anaconda3/envs/p415env/share/psi4/basis/aug-cc-pvtz.gbs 


         ---------------------------------------------------------
                                   SCF
               by Justin Turney, Rob Parrish, Andy Simmonett
                          and Daniel G. A. Smith
                              RHF Reference
                        6 Threads,  57220 MiB Core
         ---------------------------------------------------------

  ==> Geometry <==

    Molecular point group: c1
    Full point group: C1

    Geometry (in Bohr), charge = 1, multiplicity = 1:

       Center              X                  Y                   Z               Mass       
    ------------   -----------------  -----------------  -----------------  -----------------
         K            0.000000000000     0.000000000000     0.000000000000    38.963706486400
         O            5.390929432483    -0.631264901935    -0.353012178592    15.994914619570
         H            6.925957743644    -1.458872348306     0.214871309095     1.007825032230
         H            5.625674991239    -0.470037248364    -2.189026618386     1.007825032230
         O           -3.451083990725    -0.609245813121    -3.750301335704    15.994914619570
         H           -2.452220114235    -0.117042077306    -5.204755504329     1.007825032230
         H           -3.183933408370    -2.492121681375    -3.762601563055     1.007825032230
         O           -0.660746519219    -4.434472899974     1.985047690678    15.994914619570
         H            0.395359051338    -5.894496091490     2.361868528725     1.007825032230
         H           -2.398629371044    -4.991048266527     2.138244008217     1.007825032230
         O           -3.635559055093    -0.336940057895     4.125687871622    15.994914619570
         H           -2.716772323169    -1.919978751000     4.202830271515     1.007825032230
         H           -4.740385544615    -0.468402635265     2.753928118248     1.007825032230
         O            1.607276320390    -1.930461061818    -4.091277848604    15.994914619570
         H            1.124162167238    -3.208594334307    -5.261290440824     1.007825032230
         H            3.115481858927    -1.370007977256    -5.028325004078     1.007825032230

  Running in c1 symmetry.

  Rotational constants: A =      0.04799  B =      0.03508  C =      0.02974 [cm^-1]
  Rotational constants: A =   1438.68240  B =   1051.63618  C =    891.58750 [MHz]
  Nuclear repulsion =  363.016783619637408

  Charge       = 1
  Multiplicity = 1
  Electrons    = 68
  Nalpha       = 34
  Nbeta        = 34

  ==> Algorithm <==

  SCF Algorithm Type is DF.
  DIIS enabled.
  MOM disabled.
  Fractional occupation disabled.
  Guess Type is SAD.
  Energy threshold   = 1.00e-08
  Density threshold  = 1.00e-08
  Integral threshold = 1.00e-12

  ==> Primary Basis <==

  Basis Set: AUG-CC-PVTZ
    Blend: AUG-CC-PVTZ
    Number of shells: 179
    Number of basis functions: 519
    Number of Cartesian functions: 594
    Spherical Harmonics?: true
    Max angular momentum: 3

   => Loading Basis Set <=

    Name: (AUG-CC-PVTZ AUX)
    Role: JKFIT
    Keyword: DF_BASIS_SCF
    atoms 1                            entry K          line  1152 file /home/kchung25/anaconda3/envs/p415env/share/psi4/basis/def2-universal-jkfit.gbs 
    atoms 2, 5, 8, 11, 14              entry O          line   286 file /home/kchung25/anaconda3/envs/p415env/share/psi4/basis/aug-cc-pvtz-jkfit.gbs 
    atoms 3-4, 6-7, 9-10, 12-13, 15-16 entry H          line    70 file /home/kchung25/anaconda3/envs/p415env/share/psi4/basis/aug-cc-pvtz-jkfit.gbs 

  ==> Integral Setup <==

  DFHelper Memory: AOs need 2.139 GiB; user supplied 41.910 GiB. 
  Using in-core AOs.

  ==> MemDFJK: Density-Fitted J/K Matrices <==

    J tasked:                   Yes
    K tasked:                   Yes
    wK tasked:                   No
    OpenMP threads:               6
    Memory [MiB]:             42915
    Algorithm:                 Core
    Schwarz Cutoff:           1E-12
    Mask sparsity (%):       9.8433
    Fitting Condition:        1E-10

   => Auxiliary Basis Set <=

  Basis Set: (AUG-CC-PVTZ AUX)
    Blend: AUG-CC-PVTZ-JKFIT + DEF2-UNIVERSAL-JKFIT
    Number of shells: 334
    Number of basis functions: 1140
    Number of Cartesian functions: 1408
    Spherical Harmonics?: true
    Max angular momentum: 4

  Minimum eigenvalue in the overlap matrix is 3.8796887316E-05.
  Reciprocal condition number of the overlap matrix is 2.6090618747E-06.
    Using symmetric orthogonalization.

  ==> Pre-Iterations <==

  SCF Guess: Superposition of Atomic Densities via on-the-fly atomic UHF (no occupation information).

   -------------------------
    Irrep   Nso     Nmo    
   -------------------------
     A        519     519 
   -------------------------
    Total     519     519
   -------------------------

  ==> Iterations <==

                           Total Energy        Delta E     RMS |[F,P]|

   @DF-RHF iter SAD:  -976.80075816447902   -9.76801e+02   0.00000e+00 
   @DF-RHF iter   1:  -978.92970686452873   -2.12895e+00   2.03386e-03 DIIS/ADIIS
   @DF-RHF iter   2:  -979.20803671755607   -2.78330e-01   1.35241e-03 DIIS/ADIIS
   @DF-RHF iter   3:  -979.36050432034585   -1.52468e-01   1.00004e-04 DIIS/ADIIS
   @DF-RHF iter   4:  -979.36269989860693   -2.19558e-03   2.61942e-05 DIIS
   @DF-RHF iter   5:  -979.36284856137149   -1.48663e-04   8.50933e-06 DIIS
   @DF-RHF iter   6:  -979.36286373011148   -1.51687e-05   3.47664e-06 DIIS
   @DF-RHF iter   7:  -979.36286595718684   -2.22708e-06   6.66172e-07 DIIS
   @DF-RHF iter   8:  -979.36286611437833   -1.57191e-07   1.36088e-07 DIIS
   @DF-RHF iter   9:  -979.36286611981598   -5.43764e-09   4.13724e-08 DIIS
   @DF-RHF iter  10:  -979.36286612021468   -3.98700e-10   1.50633e-08 DIIS
   @DF-RHF iter  11:  -979.36286612025833   -4.36557e-11   5.03828e-09 DIIS
  Energy and wave function converged.


  ==> Post-Iterations <==

    Orbital Energies [Eh]
    ---------------------

    Doubly Occupied:                                                      

       1A   -133.613552     2A    -20.752064     3A    -20.744964  
       4A    -20.722419     5A    -20.718292     6A    -20.694597  
       7A    -14.571786     8A    -11.601647     9A    -11.601538  
      10A    -11.601527    11A     -1.836147    12A     -1.543181  
      13A     -1.528861    14A     -1.495421    15A     -1.494061  
      16A     -1.488491    17A     -1.048933    18A     -1.047659  
      19A     -1.044630    20A     -0.899083    21A     -0.889026  
      22A     -0.855304    23A     -0.851568    24A     -0.846783  
      25A     -0.794375    26A     -0.767789    27A     -0.743881  
      28A     -0.737744    29A     -0.717376    30A     -0.702297  
      31A     -0.686379    32A     -0.662073    33A     -0.655760  
      34A     -0.643461  

    Virtual:                                                              

      35A     -0.101335    36A     -0.080529    37A     -0.072128  
      38A     -0.068719    39A     -0.052801    40A     -0.050652  
      41A     -0.047120    42A     -0.045921    43A     -0.044026  
      44A     -0.043746    45A     -0.039323    46A     -0.036309  
      47A     -0.035042    48A     -0.026211    49A     -0.023406  
      50A     -0.022508    51A     -0.020588    52A     -0.018994  
      53A     -0.016373    54A     -0.013969    55A     -0.012504  
      56A     -0.012128    57A     -0.006609    58A     -0.004763  
      59A     -0.003094    60A      0.000951    61A      0.006898  
      62A      0.011192    63A      0.015388    64A      0.020684  
      65A      0.031575    66A      0.037960    67A      0.039251  
      68A      0.051574    69A      0.052929    70A      0.058525  
      71A      0.063999    72A      0.065886    73A      0.069875  
      74A      0.073488    75A      0.077271    76A      0.080516  
      77A      0.083535    78A      0.088645    79A      0.095571  
      80A      0.100235    81A      0.101218    82A      0.110174  
      83A      0.112475    84A      0.114091    85A      0.117350  
      86A      0.120943    87A      0.127657    88A      0.130055  
      89A      0.140756    90A      0.144912    91A      0.148815  
      92A      0.154338    93A      0.156804    94A      0.160551  
      95A      0.165617    96A      0.172398    97A      0.176810  
      98A      0.191864    99A      0.194895   100A      0.197978  
     101A      0.202405   102A      0.213532   103A      0.219311  
     104A      0.228610   105A      0.236122   106A      0.240267  
     107A      0.243723   108A      0.248079   109A      0.256281  
     110A      0.266479   111A      0.270042   112A      0.274021  
     113A      0.283828   114A      0.286736   115A      0.300696  
     116A      0.304869   117A      0.307128   118A      0.311563  
     119A      0.317651   120A      0.320093   121A      0.323107  
     122A      0.326990   123A      0.330240   124A      0.335560  
     125A      0.341475   126A      0.347510   127A      0.349155  
     128A      0.352117   129A      0.357684   130A      0.361973  
     131A      0.373612   132A      0.376335   133A      0.381997  
     134A      0.383478   135A      0.389404   136A      0.402496  
     137A      0.404703   138A      0.405763   139A      0.412610  
     140A      0.415838   141A      0.424629   142A      0.431862  
     143A      0.433964   144A      0.449170   145A      0.457704  
     146A      0.459793   147A      0.463526   148A      0.474231  
     149A      0.476974   150A      0.481927   151A      0.495459  
     152A      0.503082   153A      0.508815   154A      0.526179  
     155A      0.552339   156A      0.556803   157A      0.562753  
     158A      0.585566   159A      0.592613   160A      0.597830  
     161A      0.614871   162A      0.628389   163A      0.638247  
     164A      0.640736   165A      0.658186   166A      0.667449  
     167A      0.679174   168A      0.683530   169A      0.689515  
     170A      0.708371   171A      0.711273   172A      0.718669  
     173A      0.731353   174A      0.736600   175A      0.746964  
     176A      0.762624   177A      0.768713   178A      0.771424  
     179A      0.773536   180A      0.783911   181A      0.802394  
     182A      0.808983   183A      0.816545   184A      0.824188  
     185A      0.842121   186A      0.846040   187A      0.852019  
     188A      0.856114   189A      0.868691   190A      0.873345  
     191A      0.879677   192A      0.892525   193A      0.894610  
     194A      0.895736   195A      0.907156   196A      0.918888  
     197A      0.923547   198A      0.933944   199A      0.937303  
     200A      0.938720   201A      0.951582   202A      0.953390  
     203A      0.958123   204A      0.967247   205A      0.971596  
     206A      0.978279   207A      0.983797   208A      0.994167  
     209A      0.997102   210A      0.997532   211A      1.009526  
     212A      1.013123   213A      1.022972   214A      1.033429  
     215A      1.037504   216A      1.049478   217A      1.052714  
     218A      1.056247   219A      1.062429   220A      1.069754  
     221A      1.078110   222A      1.083690   223A      1.091751  
     224A      1.103014   225A      1.110079   226A      1.114839  
     227A      1.131917   228A      1.141791   229A      1.150304  
     230A      1.159587   231A      1.166993   232A      1.174015  
     233A      1.180805   234A      1.193657   235A      1.204223  
     236A      1.215376   237A      1.225481   238A      1.236325  
     239A      1.241136   240A      1.255664   241A      1.271227  
     242A      1.276956   243A      1.282005   244A      1.309066  
     245A      1.332769   246A      1.338982   247A      1.352511  
     248A      1.362958   249A      1.376167   250A      1.409447  
     251A      1.414464   252A      1.422199   253A      1.443684  
     254A      1.454867   255A      1.480473   256A      1.487223  
     257A      1.510007   258A      1.516835   259A      1.528329  
     260A      1.544882   261A      1.561386   262A      1.569005  
     263A      1.601897   264A      1.606984   265A      1.625022  
     266A      1.655050   267A      1.672241   268A      1.692311  
     269A      1.705543   270A      1.729209   271A      1.751501  
     272A      1.761456   273A      1.797602   274A      1.811476  
     275A      1.825607   276A      1.837002   277A      1.847949  
     278A      1.861385   279A      1.880873   280A      1.902681  
     281A      1.928195   282A      1.931610   283A      1.956501  
     284A      2.000683   285A      2.028848   286A      2.043246  
     287A      2.063111   288A      2.076276   289A      2.133056  
     290A      2.187171   291A      2.202794   292A      2.209340  
     293A      2.217621   294A      2.237447   295A      2.246303  
     296A      2.253377   297A      2.274931   298A      2.287278  
     299A      2.301652   300A      2.312367   301A      2.326684  
     302A      2.334838   303A      2.355491   304A      2.356572  
     305A      2.371256   306A      2.374934   307A      2.384944  
     308A      2.397930   309A      2.416569   310A      2.420563  
     311A      2.423539   312A      2.437089   313A      2.446477  
     314A      2.457198   315A      2.480606   316A      2.484240  
     317A      2.499022   318A      2.513913   319A      2.528819  
     320A      2.543592   321A      2.560992   322A      2.573438  
     323A      2.591823   324A      2.613486   325A      2.621949  
     326A      2.626688   327A      2.632570   328A      2.646899  
     329A      2.654735   330A      2.675139   331A      2.692483  
     332A      2.707418   333A      2.710635   334A      2.719488  
     335A      2.726480   336A      2.737136   337A      2.763227  
     338A      2.768259   339A      2.775113   340A      2.794269  
     341A      2.800789   342A      2.808901   343A      2.816682  
     344A      2.839621   345A      2.846308   346A      2.903189  
     347A      2.921535   348A      2.944162   349A      3.052169  
     350A      3.546944   351A      3.594535   352A      3.646165  
     353A      3.653089   354A      3.665514   355A      3.711949  
     356A      3.724631   357A      3.736111   358A      3.760437  
     359A      3.861457   360A      3.924463   361A      3.936008  
     362A      3.972109   363A      3.979688   364A      3.990657  
     365A      4.025654   366A      4.041016   367A      4.059608  
     368A      4.083969   369A      4.090610   370A      4.096492  
     371A      4.102520   372A      4.114831   373A      4.123279  
     374A      4.128788   375A      4.156769   376A      4.164567  
     377A      4.181207   378A      4.190800   379A      4.205752  
     380A      4.220406   381A      4.227756   382A      4.248706  
     383A      4.272504   384A      4.282708   385A      4.297896  
     386A      4.309929   387A      4.318058   388A      4.323072  
     389A      4.333855   390A      4.343146   391A      4.345485  
     392A      4.353024   393A      4.361993   394A      4.383518  
     395A      4.387120   396A      4.422393   397A      4.437430  
     398A      4.442487   399A      4.480965   400A      4.498341  
     401A      4.520562   402A      4.550120   403A      4.553853  
     404A      4.617010   405A      4.622032   406A      4.655144  
     407A      4.673405   408A      4.688098   409A      4.695936  
     410A      4.708648   411A      4.779471   412A      4.802164  
     413A      4.829281   414A      4.849663   415A      4.944515  
     416A      4.975247   417A      4.983160   418A      4.993478  
     419A      5.017802   420A      5.046316   421A      5.062280  
     422A      5.072223   423A      5.079974   424A      5.080937  
     425A      5.110503   426A      5.124362   427A      5.180348  
     428A      5.190655   429A      5.196291   430A      5.203083  
     431A      5.235446   432A      5.271568   433A      5.284287  
     434A      5.323984   435A      5.338076   436A      5.353533  
     437A      5.376999   438A      5.464231   439A      5.466761  
     440A      5.521330   441A      5.542591   442A      5.583682  
     443A      5.669643   444A      5.684343   445A      6.125550  
     446A      6.144945   447A      6.161051   448A      6.185689  
     449A      6.262798   450A      6.413118   451A      6.451919  
     452A      6.459714   453A      6.471353   454A      6.498893  
     455A      6.596502   456A      6.621566   457A      6.647103  
     458A      6.665158   459A      6.684024   460A      6.745117  
     461A      6.770762   462A      6.805596   463A      6.839178  
     464A      6.871640   465A      6.993544   466A      7.014560  
     467A      7.026446   468A      7.035066   469A      7.052021  
     470A      7.065997   471A      7.082256   472A      7.139724  
     473A      7.144647   474A      7.160729   475A      7.167697  
     476A      7.174814   477A      7.183135   478A      7.192564  
     479A      7.206121   480A      7.212874   481A      7.218087  
     482A      7.234433   483A      7.248976   484A      7.252913  
     485A      7.254899   486A      7.277825   487A      7.288465  
     488A      7.296478   489A      7.303012   490A      7.319849  
     491A      7.347710   492A      7.364008   493A      7.373888  
     494A      7.383645   495A      7.402687   496A      7.488309  
     497A      7.501926   498A      7.525969   499A      7.643734  
     500A      7.657502   501A      7.700647   502A      7.762869  
     503A      7.770378   504A      7.794501   505A      7.797946  
     506A      7.816724   507A      7.901915   508A      7.908258  
     509A      7.940312   510A      8.576076   511A      8.621006  
     512A      8.649589   513A      8.741923   514A      8.764646  
     515A     15.229555   516A     15.374340   517A     15.722434  
     518A     15.761476   519A     16.685744  

    Final Occupation by Irrep:
              A 
    DOCC [    34 ]
    NA   [    34 ]
    NB   [    34 ]

  @DF-RHF Final Energy:  -979.36286612025833

   => Energetics <=

    Nuclear Repulsion Energy =            363.0167836196374083
    One-Electron Energy =               -2063.5539541915200061
    Two-Electron Energy =                 721.1743044516242662
    Total Energy =                       -979.3628661202583316

Computation Completed


Properties will be evaluated at   0.000000,   0.000000,   0.000000 [a0]

Properties computed using the SCF density matrix


 Multipole Moments:

 ------------------------------------------------------------------------------------
     Multipole            Electronic (a.u.)      Nuclear  (a.u.)        Total (a.u.)
 ------------------------------------------------------------------------------------

 L = 1.  Multiply by 2.5417464519 to convert [e a0] to [Debye]
 Dipole X            :          5.5674226           -4.2987754            1.2686471
 Dipole Y            :         83.1965124          -85.9296793           -2.7331669
 Dipole Z            :         24.3669854          -26.4451033           -2.0781179
 Magnitude           :                                                    3.6603608

 ------------------------------------------------------------------------------------

*** tstop() called on moses-razer at Sat Jan  6 19:45:24 2024
Module time:
	user time   =      62.25 seconds =       1.04 minutes
	system time =       3.88 seconds =       0.06 minutes
	total time  =         17 seconds =       0.28 minutes
Total time:
	user time   =     205.83 seconds =       3.43 minutes
	system time =      13.62 seconds =       0.23 minutes
	total time  =         63 seconds =       1.05 minutes

*** tstart() called on moses-razer
*** at Sat Jan  6 19:45:24 2024


  //>>>>>>>>>>>>>>>>>>>>>>>>>>>>>>>>>>>//
  //               DFMP2               //
  //<<<<<<<<<<<<<<<<<<<<<<<<<<<<<<<<<<<//

   => Loading Basis Set <=

    Name: (AUG-CC-PVTZ AUX)
    Role: RIFIT
    Keyword: DF_BASIS_MP2
    atoms 1                            entry K          line  1282 file /home/kchung25/anaconda3/envs/p415env/share/psi4/basis/def2-qzvpp-ri.gbs 
    atoms 2, 5, 8, 11, 14              entry O          line   264 file /home/kchung25/anaconda3/envs/p415env/share/psi4/basis/aug-cc-pvtz-ri.gbs 
    atoms 3-4, 6-7, 9-10, 12-13, 15-16 entry H          line    30 file /home/kchung25/anaconda3/envs/p415env/share/psi4/basis/aug-cc-pvtz-ri.gbs 

	 --------------------------------------------------------
	                          DF-MP2                         
	      2nd-Order Density-Fitted Moller-Plesset Theory     
	              RMP2 Wavefunction,   6 Threads             
	                                                         
	        Rob Parrish, Justin Turney, Andy Simmonett,      
	           Ed Hohenstein, and C. David Sherrill          
	 --------------------------------------------------------

   => Auxiliary Basis Set <=

  Basis Set: (AUG-CC-PVTZ AUX)
    Blend: AUG-CC-PVTZ-RI + DEF2-QZVPP-RI
    Number of shells: 329
    Number of basis functions: 1189
    Number of Cartesian functions: 1492
    Spherical Harmonics?: true
    Max angular momentum: 4

	 --------------------------------------------------------
	                 NBF =   519, NAUX =  1189
	 --------------------------------------------------------
	   CLASS    FOCC     OCC    AOCC    AVIR     VIR    FVIR
	   PAIRS       0      34      34     485     485       0
	 --------------------------------------------------------

	-----------------------------------------------------------
	 ==================> DF-MP2 Energies <==================== 
	-----------------------------------------------------------
	 Reference Energy          =    -979.3628661202583316 [Eh]
	 Singles Energy            =      -0.0000000000000000 [Eh]
	 Same-Spin Energy          =      -0.3891306130219830 [Eh]
	 Opposite-Spin Energy      =      -1.1801357475489802 [Eh]
	 Correlation Energy        =      -1.5692663605709631 [Eh]
	 Total Energy              =    -980.9321324808292957 [Eh]
	-----------------------------------------------------------
	 ================> DF-SCS-MP2 Energies <================== 
	-----------------------------------------------------------
	 SCS Same-Spin Scale       =       0.3333333333333333 [-]
	 SCS Opposite-Spin Scale   =       1.2000000000000000 [-]
	 SCS Same-Spin Energy      =      -0.1297102043406610 [Eh]
	 SCS Opposite-Spin Energy  =      -1.4161628970587763 [Eh]
	 SCS Correlation Energy    =      -1.5458731013994373 [Eh]
	 SCS Total Energy          =    -980.9087392216578110 [Eh]
	-----------------------------------------------------------


*** tstop() called on moses-razer at Sat Jan  6 19:45:34 2024
Module time:
	user time   =      31.30 seconds =       0.52 minutes
	system time =       1.76 seconds =       0.03 minutes
	total time  =         10 seconds =       0.17 minutes
Total time:
	user time   =     237.13 seconds =       3.95 minutes
	system time =      15.38 seconds =       0.26 minutes
	total time  =         73 seconds =       1.22 minutes

    Psi4 stopped on: Saturday, 06 January 2024 07:45PM
    Psi4 wall time for execution: 0:00:27.26


  //>>>>>>>>>>>>>>>>>>>>>>>>>>>>>>>>>>>//
  //          ManyBody Results         //
  //<<<<<<<<<<<<<<<<<<<<<<<<<<<<<<<<<<<//


   ==> N-Body: Counterpoise Corrected (CP) energies <==

        n-Body     Total Energy            Interaction Energy                          N-body Contribution to Interaction Energy
                   [Eh]                    [Eh]                  [kcal/mol]            [Eh]                  [kcal/mol]
             1  N/A                         0.000000000000        0.000000000000        0.000000000000        0.000000000000
  FULL/RTN   2  N/A                        -0.079742462707      -50.039150811299       -0.079742462707      -50.039150811299


    Psi4 stopped on: Saturday, 06 January 2024 07:45PM
    Psi4 wall time for execution: 0:01:14.49

*** Psi4 exiting successfully. Buy a developer a beer!
