
    -----------------------------------------------------------------------
          Psi4: An Open-Source Ab Initio Electronic Structure Package
                               Psi4 1.9 release

                         Git: Rev {} zzzzzzz 


    D. G. A. Smith, L. A. Burns, A. C. Simmonett, R. M. Parrish,
    M. C. Schieber, R. Galvelis, P. Kraus, H. Kruse, R. Di Remigio,
    A. Alenaizan, A. M. James, S. Lehtola, J. P. Misiewicz, M. Scheurer,
    R. A. Shaw, J. B. Schriber, Y. Xie, Z. L. Glick, D. A. Sirianni,
    J. S. O'Brien, J. M. Waldrop, A. Kumar, E. G. Hohenstein,
    B. P. Pritchard, B. R. Brooks, H. F. Schaefer III, A. Yu. Sokolov,
    K. Patkowski, A. E. DePrince III, U. Bozkaya, R. A. King,
    F. A. Evangelista, J. M. Turney, T. D. Crawford, C. D. Sherrill,
    J. Chem. Phys. 152(18) 184108 (2020). https://doi.org/10.1063/5.0006002

                            Additional Code Authors
    E. T. Seidl, C. L. Janssen, E. F. Valeev, M. L. Leininger,
    J. F. Gonthier, R. M. Richard, H. R. McAlexander, M. Saitow, X. Wang,
    P. Verma, M. H. Lechner, A. Jiang, S. Behnle, A. G. Heide,
    M. F. Herbst, and D. L. Poole

             Previous Authors, Complete List of Code Contributors,
                       and Citations for Specific Modules
    https://github.com/psi4/psi4/blob/master/codemeta.json
    https://github.com/psi4/psi4/graphs/contributors
    http://psicode.org/psi4manual/master/introduction.html#citing-psifour

    -----------------------------------------------------------------------


    Psi4 started on: Wednesday, 24 January 2024 03:17PM

    Process ID: 1222428
    Host:       moses-razer
    PSIDATADIR: /home/kchung25/anaconda3/envs/psi4_19/share/psi4
    Memory:     500.0 MiB
    Threads:    6
    
  ==> Input File <==

--------------------------------------------------------------------------
MEMORY 60 GB

molecule dimer {
1 1
K          0.000000     0.000000     0.000000
Gh(O)      2.396279     0.775608    -0.451841
Gh(H)      2.861485     0.358524    -1.212679
Gh(H)      2.964841     0.677780     0.338905
Gh(O)     -0.804734     2.543152     1.001045
Gh(H)     -0.610352     3.441400     0.770337
Gh(H)     -0.791853     2.593161     1.934941
Gh(O)      1.230894    -1.869188    -1.275336
Gh(H)      1.585639    -1.664232    -2.153730
Gh(H)      1.204694    -2.795554    -1.187042
Gh(O)     -1.211205     1.758805    -1.667366
Gh(H)     -1.911099     2.172143    -1.102733
Gh(H)     -0.856874     2.386555    -2.247478
Gh(O)      0.894477    -0.492812     2.544623
Gh(H)      1.829653    -0.334025     2.571714
Gh(H)      0.668104    -0.888251     3.434370
Gh(O)     -1.983101    -1.526150     1.175537
Gh(H)     -2.303839    -1.002062     1.943197
Gh(H)     -1.706738    -2.417397     1.491046

units ang
no_reorient
no_com
symmetry c1
}

set {
basis        aug-cc-pVTZ
scf_type     df
}

energy("mp2")
--------------------------------------------------------------------------

  Memory set to  55.879 GiB by Python driver.

Scratch directory: /scratch/
   => Libint2 <=

    Primary   basis highest AM E, G, H:  5, 4, 3
    Auxiliary basis highest AM E, G, H:  6, 5, 4
    Onebody   basis highest AM E, G, H:  6, 5, 4
    Solid Harmonics ordering:            gaussian

*** tstart() called on moses-razer
*** at Wed Jan 24 15:17:26 2024

   => Loading Basis Set <=

    Name: AUG-CC-PVTZ
    Role: ORBITAL
    Keyword: BASIS
    atoms 1                                   entry K          line  1152 file /home/kchung25/anaconda3/envs/p415env/share/psi4/basis/aug-cc-pvtz.gbs 
    atoms 2, 5, 8, 11, 14, 17                 entry O          line   331 file /home/kchung25/anaconda3/envs/p415env/share/psi4/basis/aug-cc-pvtz.gbs 
    atoms 3-4, 6-7, 9-10, 12-13, 15-16, 18-19 entry H          line    40 file /home/kchung25/anaconda3/envs/p415env/share/psi4/basis/aug-cc-pvtz.gbs 


         ---------------------------------------------------------
                                   SCF
               by Justin Turney, Rob Parrish, Andy Simmonett
                          and Daniel G. A. Smith
                              RHF Reference
                        6 Threads,  57220 MiB Core
         ---------------------------------------------------------

  ==> Geometry <==

    Molecular point group: c1
    Full point group: C1

    Geometry (in Angstrom), charge = 1, multiplicity = 1:

       Center              X                  Y                   Z               Mass       
    ------------   -----------------  -----------------  -----------------  -----------------
         K            0.000000000000     0.000000000000     0.000000000000    38.963706486400
      Gh(O)           2.396279000000     0.775608000000    -0.451841000000    15.994914619570
      Gh(H)           2.861485000000     0.358524000000    -1.212679000000     1.007825032230
      Gh(H)           2.964841000000     0.677780000000     0.338905000000     1.007825032230
      Gh(O)          -0.804734000000     2.543152000000     1.001045000000    15.994914619570
      Gh(H)          -0.610352000000     3.441400000000     0.770337000000     1.007825032230
      Gh(H)          -0.791853000000     2.593161000000     1.934941000000     1.007825032230
      Gh(O)           1.230894000000    -1.869188000000    -1.275336000000    15.994914619570
      Gh(H)           1.585639000000    -1.664232000000    -2.153730000000     1.007825032230
      Gh(H)           1.204694000000    -2.795554000000    -1.187042000000     1.007825032230
      Gh(O)          -1.211205000000     1.758805000000    -1.667366000000    15.994914619570
      Gh(H)          -1.911099000000     2.172143000000    -1.102733000000     1.007825032230
      Gh(H)          -0.856874000000     2.386555000000    -2.247478000000     1.007825032230
      Gh(O)           0.894477000000    -0.492812000000     2.544623000000    15.994914619570
      Gh(H)           1.829653000000    -0.334025000000     2.571714000000     1.007825032230
      Gh(H)           0.668104000000    -0.888251000000     3.434370000000     1.007825032230
      Gh(O)          -1.983101000000    -1.526150000000     1.175537000000    15.994914619570
      Gh(H)          -2.303839000000    -1.002062000000     1.943197000000     1.007825032230
      Gh(H)          -1.706738000000    -2.417397000000     1.491046000000     1.007825032230

  Running in c1 symmetry.

  Rotational constants: A =      0.03388  B =      0.03106  C =      0.02716 [cm^-1]
  Rotational constants: A =   1015.70057  B =    931.06595  C =    814.22370 [MHz]
  Nuclear repulsion =    0.000000000000000

  Charge       = 1
  Multiplicity = 1
  Electrons    = 18
  Nalpha       = 9
  Nbeta        = 9

  ==> Algorithm <==

  SCF Algorithm Type is DF.
  DIIS enabled.
  MOM disabled.
  Fractional occupation disabled.
  Guess Type is SAD.
  Energy threshold   = 1.00e-08
  Density threshold  = 1.00e-08
  Integral threshold = 1.00e-12

  ==> Primary Basis <==

  Basis Set: AUG-CC-PVTZ
    Blend: AUG-CC-PVTZ
    Number of shells: 211
    Number of basis functions: 611
    Number of Cartesian functions: 699
    Spherical Harmonics?: true
    Max angular momentum: 3

   => Loading Basis Set <=

    Name: (AUG-CC-PVTZ AUX)
    Role: JKFIT
    Keyword: DF_BASIS_SCF
    atoms 1                                   entry K          line  1152 file /home/kchung25/anaconda3/envs/p415env/share/psi4/basis/def2-universal-jkfit.gbs 
    atoms 2, 5, 8, 11, 14, 17                 entry O          line   286 file /home/kchung25/anaconda3/envs/p415env/share/psi4/basis/aug-cc-pvtz-jkfit.gbs 
    atoms 3-4, 6-7, 9-10, 12-13, 15-16, 18-19 entry H          line    70 file /home/kchung25/anaconda3/envs/p415env/share/psi4/basis/aug-cc-pvtz-jkfit.gbs 

  ==> Integral Setup <==

  DFHelper Memory: AOs need 3.369 GiB; user supplied 41.910 GiB. 
  Using in-core AOs.

  ==> MemDFJK: Density-Fitted J/K Matrices <==

    J tasked:                   Yes
    K tasked:                   Yes
    wK tasked:                   No
    OpenMP threads:               6
    Memory [MiB]:             42915
    Algorithm:                 Core
    Schwarz Cutoff:           1E-12
    Mask sparsity (%):      12.1542
    Fitting Condition:        1E-10

   => Auxiliary Basis Set <=

  Basis Set: (AUG-CC-PVTZ AUX)
    Blend: AUG-CC-PVTZ-JKFIT + DEF2-UNIVERSAL-JKFIT
    Number of shells: 392
    Number of basis functions: 1336
    Number of Cartesian functions: 1649
    Spherical Harmonics?: true
    Max angular momentum: 4

  Minimum eigenvalue in the overlap matrix is 3.7025999344E-05.
  Reciprocal condition number of the overlap matrix is 2.5252053513E-06.
    Using symmetric orthogonalization.

  ==> Pre-Iterations <==

  SCF Guess: Superposition of Atomic Densities via on-the-fly atomic UHF (no occupation information).

   -------------------------
    Irrep   Nso     Nmo    
   -------------------------
     A        611     611 
   -------------------------
    Total     611     611
   -------------------------

  ==> Iterations <==

                           Total Energy        Delta E     RMS |[F,P]|

   @DF-RHF iter SAD:  -599.05178460383422   -5.99052e+02   0.00000e+00 
   @DF-RHF iter   1:  -599.01745382390675    3.43308e-02   1.95872e-05 DIIS
   @DF-RHF iter   2:  -599.01751581539077   -6.19915e-05   2.20088e-06 DIIS
   @DF-RHF iter   3:  -599.01751721156154   -1.39617e-06   4.04827e-07 DIIS
   @DF-RHF iter   4:  -599.01751724806149   -3.65000e-08   1.96157e-08 DIIS
   @DF-RHF iter   5:  -599.01751724815279   -9.12905e-11   2.39691e-09 DIIS
  Energy and wave function converged.


  ==> Post-Iterations <==

    Orbital Energies [Eh]
    ---------------------

    Doubly Occupied:                                                      

       1A   -133.752445     2A    -14.708156     3A    -11.738215  
       4A    -11.738215     5A    -11.738214     6A     -1.963863  
       7A     -1.170576     8A     -1.170567     9A     -1.170563  

    Virtual:                                                              

      10A     -0.146957    11A     -0.095554    12A     -0.095553  
      13A     -0.095551    14A     -0.060675    15A     -0.057996  
      16A     -0.057987    17A     -0.057950    18A     -0.057946  
      19A     -0.057941    20A     -0.045541    21A     -0.045540  
      22A     -0.045539    23A     -0.031399    24A     -0.031376  
      25A     -0.031318    26A     -0.031311    27A     -0.031283  
      28A     -0.019389    29A     -0.019239    30A     -0.018793  
      31A     -0.017343    32A     -0.015282    33A     -0.015032  
      34A     -0.014380    35A     -0.012902    36A     -0.010066  
      37A     -0.007623    38A     -0.004865    39A      0.003358  
      40A      0.005205    41A      0.007524    42A      0.009045  
      43A      0.009358    44A      0.020843    45A      0.023123  
      46A      0.031302    47A      0.031544    48A      0.033953  
      49A      0.042085    50A      0.047775    51A      0.049622  
      52A      0.053210    53A      0.055807    54A      0.058516  
      55A      0.059836    56A      0.070595    57A      0.080028  
      58A      0.083271    59A      0.085236    60A      0.087496  
      61A      0.089296    62A      0.093798    63A      0.098373  
      64A      0.102882    65A      0.106283    66A      0.108369  
      67A      0.109956    68A      0.114095    69A      0.125434  
      70A      0.133564    71A      0.136517    72A      0.137638  
      73A      0.142905    74A      0.149755    75A      0.158091  
      76A      0.161057    77A      0.170147    78A      0.172794  
      79A      0.178056    80A      0.185695    81A      0.195998  
      82A      0.199488    83A      0.202241    84A      0.204651  
      85A      0.206379    86A      0.211375    87A      0.215570  
      88A      0.225222    89A      0.229616    90A      0.232418  
      91A      0.236426    92A      0.239250    93A      0.251487  
      94A      0.257074    95A      0.262218    96A      0.269817  
      97A      0.274565    98A      0.276854    99A      0.282729  
     100A      0.284466   101A      0.287951   102A      0.291743  
     103A      0.295400   104A      0.301614   105A      0.304346  
     106A      0.310915   107A      0.311679   108A      0.315009  
     109A      0.317506   110A      0.323040   111A      0.325094  
     112A      0.328901   113A      0.331600   114A      0.337702  
     115A      0.339855   116A      0.344844   117A      0.346147  
     118A      0.354706   119A      0.356123   120A      0.357888  
     121A      0.363059   122A      0.368338   123A      0.374711  
     124A      0.385769   125A      0.392675   126A      0.397021  
     127A      0.398052   128A      0.402499   129A      0.405313  
     130A      0.410538   131A      0.416183   132A      0.416607  
     133A      0.425799   134A      0.432266   135A      0.435644  
     136A      0.448218   137A      0.463713   138A      0.468861  
     139A      0.481766   140A      0.491602   141A      0.501032  
     142A      0.507079   143A      0.543452   144A      0.549700  
     145A      0.571699   146A      0.580729   147A      0.593094  
     148A      0.604205   149A      0.614894   150A      0.621201  
     151A      0.626025   152A      0.642978   153A      0.644275  
     154A      0.658148   155A      0.664565   156A      0.673726  
     157A      0.676357   158A      0.680241   159A      0.682508  
     160A      0.698821   161A      0.708377   162A      0.711590  
     163A      0.716514   164A      0.720260   165A      0.730124  
     166A      0.731597   167A      0.738616   168A      0.742915  
     169A      0.743791   170A      0.753676   171A      0.763834  
     172A      0.766359   173A      0.767104   174A      0.779117  
     175A      0.782760   176A      0.789447   177A      0.791384  
     178A      0.800867   179A      0.804882   180A      0.811646  
     181A      0.813497   182A      0.820503   183A      0.828325  
     184A      0.833457   185A      0.843123   186A      0.848093  
     187A      0.855525   188A      0.861669   189A      0.865221  
     190A      0.868027   191A      0.874981   192A      0.879964  
     193A      0.884961   194A      0.891136   195A      0.897913  
     196A      0.901443   197A      0.908611   198A      0.919669  
     199A      0.924675   200A      0.929639   201A      0.932397  
     202A      0.940252   203A      0.954092   204A      0.961493  
     205A      0.967989   206A      0.970941   207A      0.977216  
     208A      0.980664   209A      0.985188   210A      0.998176  
     211A      1.002126   212A      1.005218   213A      1.017948  
     214A      1.022178   215A      1.029228   216A      1.034138  
     217A      1.035748   218A      1.043037   219A      1.046024  
     220A      1.048218   221A      1.064786   222A      1.065726  
     223A      1.077695   224A      1.079633   225A      1.085422  
     226A      1.089704   227A      1.100969   228A      1.108659  
     229A      1.113830   230A      1.119013   231A      1.125103  
     232A      1.134649   233A      1.137908   234A      1.140235  
     235A      1.151290   236A      1.152823   237A      1.167132  
     238A      1.172224   239A      1.174812   240A      1.187689  
     241A      1.198058   242A      1.202339   243A      1.203750  
     244A      1.210241   245A      1.221722   246A      1.231096  
     247A      1.238332   248A      1.256479   249A      1.269668  
     250A      1.279969   251A      1.290602   252A      1.306711  
     253A      1.317921   254A      1.334959   255A      1.356181  
     256A      1.377049   257A      1.388014   258A      1.394402  
     259A      1.411348   260A      1.422974   261A      1.445119  
     262A      1.454220   263A      1.472396   264A      1.479585  
     265A      1.499301   266A      1.512522   267A      1.531345  
     268A      1.549396   269A      1.587796   270A      1.606995  
     271A      1.621643   272A      1.623703   273A      1.637679  
     274A      1.646142   275A      1.656169   276A      1.666187  
     277A      1.674603   278A      1.689072   279A      1.699617  
     280A      1.705200   281A      1.715723   282A      1.718502  
     283A      1.729734   284A      1.736605   285A      1.750192  
     286A      1.755239   287A      1.767358   288A      1.771280  
     289A      1.777296   290A      1.786253   291A      1.794305  
     292A      1.805509   293A      1.818492   294A      1.823431  
     295A      1.833480   296A      1.852134   297A      1.875424  
     298A      1.878926   299A      1.888849   300A      1.899751  
     301A      1.911385   302A      1.928871   303A      1.957187  
     304A      2.007463   305A      2.028597   306A      2.203135  
     307A      2.220212   308A      2.230421   309A      2.250079  
     310A      2.259318   311A      2.269464   312A      2.291314  
     313A      2.309141   314A      2.315701   315A      2.332919  
     316A      2.337761   317A      2.351861   318A      2.357246  
     319A      2.361989   320A      2.379566   321A      2.390089  
     322A      2.393442   323A      2.400299   324A      2.404751  
     325A      2.408102   326A      2.411058   327A      2.425312  
     328A      2.430946   329A      2.443154   330A      2.449130  
     331A      2.462915   332A      2.467415   333A      2.470860  
     334A      2.478416   335A      2.494649   336A      2.516906  
     337A      2.526332   338A      2.546935   339A      2.550922  
     340A      2.559074   341A      2.569326   342A      2.581854  
     343A      2.588959   344A      2.602727   345A      2.614111  
     346A      2.630274   347A      2.652895   348A      2.686016  
     349A      2.714447   350A      2.717816   351A      2.729464  
     352A      2.735155   353A      2.746543   354A      2.758540  
     355A      2.765547   356A      2.783295   357A      2.802024  
     358A      2.818016   359A      2.860052   360A      2.999487  
     361A      3.009228   362A      3.031424   363A      3.045422  
     364A      3.055166   365A      3.061875   366A      3.080236  
     367A      3.084005   368A      3.091981   369A      3.095737  
     370A      3.110344   371A      3.120321   372A      3.130557  
     373A      3.135026   374A      3.151254   375A      3.159018  
     376A      3.165825   377A      3.168465   378A      3.177468  
     379A      3.186820   380A      3.188315   381A      3.197459  
     382A      3.211909   383A      3.222301   384A      3.234730  
     385A      3.248653   386A      3.258673   387A      3.276282  
     388A      3.288669   389A      3.290622   390A      3.418477  
     391A      3.432418   392A      3.441145   393A      3.459190  
     394A      3.478745   395A      3.499305   396A      3.547380  
     397A      3.549660   398A      3.572973   399A      3.583229  
     400A      3.610024   401A      3.631786   402A      4.200015  
     403A      4.235987   404A      4.247954   405A      4.263599  
     406A      4.272871   407A      4.308271   408A      4.329745  
     409A      4.351224   410A      4.359506   411A      4.362972  
     412A      4.381604   413A      4.384417   414A      4.396857  
     415A      4.406102   416A      4.413971   417A      4.425037  
     418A      4.438549   419A      4.442800   420A      4.464858  
     421A      4.472076   422A      4.495636   423A      4.498805  
     424A      4.513739   425A      4.526192   426A      4.536302  
     427A      4.549240   428A      4.553318   429A      4.563151  
     430A      4.565505   431A      4.584657   432A      4.602176  
     433A      4.608595   434A      4.624039   435A      4.634315  
     436A      4.658099   437A      4.688384   438A      4.767767  
     439A      4.778544   440A      4.788265   441A      4.800037  
     442A      4.811322   443A      4.822090   444A      4.835545  
     445A      4.851376   446A      4.864324   447A      4.878276  
     448A      4.887746   449A      4.909936   450A      4.923244  
     451A      4.929236   452A      4.941858   453A      4.953806  
     454A      4.975225   455A      4.988496   456A      4.994371  
     457A      5.021717   458A      5.030174   459A      5.064248  
     460A      5.110911   461A      5.143570   462A      5.260767  
     463A      5.270781   464A      5.341627   465A      5.355772  
     466A      5.360745   467A      5.364471   468A      5.392533  
     469A      5.397992   470A      5.401151   471A      5.431871  
     472A      5.445821   473A      5.450018   474A      5.520663  
     475A      5.539131   476A      5.549377   477A      5.601109  
     478A      5.617959   479A      5.630203   480A      5.646502  
     481A      5.657436   482A      5.682734   483A      5.711917  
     484A      5.726381   485A      5.872828   486A      5.964658  
     487A      5.980614   488A      6.009143   489A      6.034951  
     490A      6.063872   491A      6.068619   492A      6.102716  
     493A      6.150883   494A      6.203040   495A      6.233895  
     496A      6.279697   497A      6.294241   498A      6.485367  
     499A      6.511443   500A      6.539207   501A      6.594617  
     502A      6.636898   503A      6.668003   504A      6.806205  
     505A      6.831887   506A      6.915186   507A      6.998600  
     508A      7.004452   509A      7.083446   510A      7.488188  
     511A      7.501111   512A      7.505653   513A      7.514141  
     514A      7.528586   515A      7.544861   516A      7.593294  
     517A      7.597864   518A      7.622469   519A      7.630331  
     520A      7.649322   521A      7.748088   522A      7.874945  
     523A      7.889437   524A      7.906931   525A      7.922878  
     526A      7.932193   527A      7.946437   528A      8.001459  
     529A      8.012285   530A      8.021097   531A      8.028307  
     532A      8.047796   533A      8.079001   534A      8.088311  
     535A      8.098874   536A      8.118471   537A      8.131173  
     538A      8.149048   539A      8.188685   540A      8.461470  
     541A      8.473540   542A      8.520712   543A      8.531501  
     544A      8.562141   545A      8.630189   546A      8.638863  
     547A      8.681559   548A      8.686121   549A      8.731587  
     550A      8.735302   551A      8.838450   552A      9.589246  
     553A      9.600689   554A      9.619416   555A      9.657278  
     556A      9.669792   557A      9.700588   558A      9.737396  
     559A      9.743664   560A      9.752005   561A      9.769007  
     562A      9.778961   563A      9.816367   564A      9.835429  
     565A      9.837065   566A      9.853206   567A      9.870388  
     568A      9.884882   569A      9.898049   570A      9.992025  
     571A     10.004495   572A     10.006582   573A     10.028121  
     574A     10.057647   575A     10.082919   576A     10.851842  
     577A     10.873447   578A     10.904604   579A     10.934123  
     580A     11.046027   581A     11.240035   582A     11.467600  
     583A     11.504266   584A     11.530535   585A     11.558146  
     586A     11.593215   587A     11.628269   588A     11.746880  
     589A     11.790723   590A     11.929659   591A     12.133596  
     592A     12.164665   593A     12.261899   594A     13.228885  
     595A     13.260948   596A     13.329481   597A     13.452926  
     598A     13.479487   599A     13.617902   600A     13.668478  
     601A     13.695878   602A     13.722383   603A     13.739030  
     604A     13.766939   605A     13.808006   606A     63.650062  
     607A     63.982816   608A     64.324763   609A     65.378524  
     610A     65.448060   611A     66.100634  

    Final Occupation by Irrep:
              A 
    DOCC [     9 ]
    NA   [     9 ]
    NB   [     9 ]

  @DF-RHF Final Energy:  -599.01751724815279

   => Energetics <=

    Nuclear Repulsion Energy =              0.0000000000000000
    One-Electron Energy =                -819.7334057746622875
    Two-Electron Energy =                 220.7158885265094739
    Total Energy =                       -599.0175172481527852

Computation Completed


Properties will be evaluated at   0.000000,   0.000000,   0.000000 [a0]

Properties computed using the SCF density matrix


 Multipole Moments:

 ------------------------------------------------------------------------------------
     Multipole            Electronic (a.u.)      Nuclear  (a.u.)        Total (a.u.)
 ------------------------------------------------------------------------------------

 L = 1.  Multiply by 2.5417464519 to convert [e a0] to [Debye]
 Dipole X            :          0.0001076            0.0000000            0.0001076
 Dipole Y            :          0.0000204            0.0000000            0.0000204
 Dipole Z            :          0.0000717            0.0000000            0.0000717
 Magnitude           :                                                    0.0001309

 ------------------------------------------------------------------------------------

*** tstop() called on moses-razer at Wed Jan 24 15:17:45 2024
Module time:
	user time   =      66.32 seconds =       1.11 minutes
	system time =       4.80 seconds =       0.08 minutes
	total time  =         19 seconds =       0.32 minutes
Total time:
	user time   =      66.32 seconds =       1.11 minutes
	system time =       4.80 seconds =       0.08 minutes
	total time  =         19 seconds =       0.32 minutes

*** tstart() called on moses-razer
*** at Wed Jan 24 15:17:45 2024


  //>>>>>>>>>>>>>>>>>>>>>>>>>>>>>>>>>>>//
  //               DFMP2               //
  //<<<<<<<<<<<<<<<<<<<<<<<<<<<<<<<<<<<//

   => Loading Basis Set <=

    Name: (AUG-CC-PVTZ AUX)
    Role: RIFIT
    Keyword: DF_BASIS_MP2
    atoms 1                                   entry K          line  1282 file /home/kchung25/anaconda3/envs/p415env/share/psi4/basis/def2-qzvpp-ri.gbs 
    atoms 2, 5, 8, 11, 14, 17                 entry O          line   264 file /home/kchung25/anaconda3/envs/p415env/share/psi4/basis/aug-cc-pvtz-ri.gbs 
    atoms 3-4, 6-7, 9-10, 12-13, 15-16, 18-19 entry H          line    30 file /home/kchung25/anaconda3/envs/p415env/share/psi4/basis/aug-cc-pvtz-ri.gbs 

	 --------------------------------------------------------
	                          DF-MP2                         
	      2nd-Order Density-Fitted Moller-Plesset Theory     
	              RMP2 Wavefunction,   6 Threads             
	                                                         
	        Rob Parrish, Justin Turney, Andy Simmonett,      
	           Ed Hohenstein, and C. David Sherrill          
	 --------------------------------------------------------

   => Auxiliary Basis Set <=

  Basis Set: (AUG-CC-PVTZ AUX)
    Blend: AUG-CC-PVTZ-RI + DEF2-QZVPP-RI
    Number of shells: 385
    Number of basis functions: 1387
    Number of Cartesian functions: 1738
    Spherical Harmonics?: true
    Max angular momentum: 4

	 --------------------------------------------------------
	                 NBF =   611, NAUX =  1387
	 --------------------------------------------------------
	   CLASS    FOCC     OCC    AOCC    AVIR     VIR    FVIR
	   PAIRS       0       9       9     602     602       0
	 --------------------------------------------------------

	-----------------------------------------------------------
	 ==================> DF-MP2 Energies <==================== 
	-----------------------------------------------------------
	 Reference Energy          =    -599.0175172481527852 [Eh]
	 Singles Energy            =      -0.0000000000000000 [Eh]
	 Same-Spin Energy          =      -0.0391937527912970 [Eh]
	 Opposite-Spin Energy      =      -0.0963021234678545 [Eh]
	 Correlation Energy        =      -0.1354958762591515 [Eh]
	 Total Energy              =    -599.1530131244119275 [Eh]
	-----------------------------------------------------------
	 ================> DF-SCS-MP2 Energies <================== 
	-----------------------------------------------------------
	 SCS Same-Spin Scale       =       0.3333333333333333 [-]
	 SCS Opposite-Spin Scale   =       1.2000000000000000 [-]
	 SCS Same-Spin Energy      =      -0.0130645842637657 [Eh]
	 SCS Opposite-Spin Energy  =      -0.1155625481614254 [Eh]
	 SCS Correlation Energy    =      -0.1286271324251911 [Eh]
	 SCS Total Energy          =    -599.1461443805779936 [Eh]
	-----------------------------------------------------------


*** tstop() called on moses-razer at Wed Jan 24 15:17:57 2024
Module time:
	user time   =      28.95 seconds =       0.48 minutes
	system time =       2.14 seconds =       0.04 minutes
	total time  =         12 seconds =       0.20 minutes
Total time:
	user time   =      95.28 seconds =       1.59 minutes
	system time =       6.94 seconds =       0.12 minutes
	total time  =         31 seconds =       0.52 minutes

    Psi4 stopped on: Wednesday, 24 January 2024 03:17PM
    Psi4 wall time for execution: 0:00:30.86

*** Psi4 exiting successfully. Buy a developer a beer!
