
    -----------------------------------------------------------------------
          Psi4: An Open-Source Ab Initio Electronic Structure Package
                               Psi4 1.9 release

                         Git: Rev {} zzzzzzz 


    D. G. A. Smith, L. A. Burns, A. C. Simmonett, R. M. Parrish,
    M. C. Schieber, R. Galvelis, P. Kraus, H. Kruse, R. Di Remigio,
    A. Alenaizan, A. M. James, S. Lehtola, J. P. Misiewicz, M. Scheurer,
    R. A. Shaw, J. B. Schriber, Y. Xie, Z. L. Glick, D. A. Sirianni,
    J. S. O'Brien, J. M. Waldrop, A. Kumar, E. G. Hohenstein,
    B. P. Pritchard, B. R. Brooks, H. F. Schaefer III, A. Yu. Sokolov,
    K. Patkowski, A. E. DePrince III, U. Bozkaya, R. A. King,
    F. A. Evangelista, J. M. Turney, T. D. Crawford, C. D. Sherrill,
    J. Chem. Phys. 152(18) 184108 (2020). https://doi.org/10.1063/5.0006002

                            Additional Code Authors
    E. T. Seidl, C. L. Janssen, E. F. Valeev, M. L. Leininger,
    J. F. Gonthier, R. M. Richard, H. R. McAlexander, M. Saitow, X. Wang,
    P. Verma, M. H. Lechner, A. Jiang, S. Behnle, A. G. Heide,
    M. F. Herbst, and D. L. Poole

             Previous Authors, Complete List of Code Contributors,
                       and Citations for Specific Modules
    https://github.com/psi4/psi4/blob/master/codemeta.json
    https://github.com/psi4/psi4/graphs/contributors
    http://psicode.org/psi4manual/master/introduction.html#citing-psifour

    -----------------------------------------------------------------------


    Psi4 started on: Wednesday, 24 January 2024 07:41PM

    Process ID: 1249403
    Host:       moses-razer
    PSIDATADIR: /home/kchung25/anaconda3/envs/psi4_19/share/psi4
    Memory:     500.0 MiB
    Threads:    6
    
  ==> Input File <==

--------------------------------------------------------------------------
MEMORY 60 GB

molecule dimer {
0 1
Gh(K)      0.000000     0.000000     0.000000
Gh(O)      0.612876    -1.115935    -2.349051
Gh(H)      0.426290    -1.552454    -3.196404
Gh(H)      1.249709    -1.726035    -1.997265
Gh(O)      0.226950    -1.309350     2.562510
Gh(H)      0.264022    -0.641943     3.257966
Gh(H)      1.068749    -1.730800     2.570162
O         -2.056105     0.919747    -1.186773
H         -2.198049     0.297455    -1.925318
H         -2.809767     1.060828    -0.585807
Gh(O)     -1.976233    -2.079701    -0.110673
Gh(H)     -1.733104    -3.050987    -0.116702
Gh(H)     -2.703697    -1.948167    -0.750612
Gh(O)      1.852186     1.592652     1.468527
Gh(H)      2.464721     2.245763     1.040167
Gh(H)      1.990939     1.633926     2.445297
Gh(O)      2.746451    -1.160995     0.084226
Gh(H)      3.055897    -0.685917    -0.671043
Gh(H)      3.443294    -1.731569     0.452839

units ang
no_reorient
no_com
symmetry c1
}

set {
basis        aug-cc-pVTZ
scf_type     df
}

energy("mp2")
--------------------------------------------------------------------------

  Memory set to  55.879 GiB by Python driver.

Scratch directory: /scratch/
   => Libint2 <=

    Primary   basis highest AM E, G, H:  5, 4, 3
    Auxiliary basis highest AM E, G, H:  6, 5, 4
    Onebody   basis highest AM E, G, H:  6, 5, 4
    Solid Harmonics ordering:            gaussian

*** tstart() called on moses-razer
*** at Wed Jan 24 19:41:39 2024

   => Loading Basis Set <=

    Name: AUG-CC-PVTZ
    Role: ORBITAL
    Keyword: BASIS
    atoms 1                                   entry K          line  1152 file /home/kchung25/anaconda3/envs/p415env/share/psi4/basis/aug-cc-pvtz.gbs 
    atoms 2, 5, 8, 11, 14, 17                 entry O          line   331 file /home/kchung25/anaconda3/envs/p415env/share/psi4/basis/aug-cc-pvtz.gbs 
    atoms 3-4, 6-7, 9-10, 12-13, 15-16, 18-19 entry H          line    40 file /home/kchung25/anaconda3/envs/p415env/share/psi4/basis/aug-cc-pvtz.gbs 


         ---------------------------------------------------------
                                   SCF
               by Justin Turney, Rob Parrish, Andy Simmonett
                          and Daniel G. A. Smith
                              RHF Reference
                        6 Threads,  57220 MiB Core
         ---------------------------------------------------------

  ==> Geometry <==

    Molecular point group: c1
    Full point group: C1

    Geometry (in Angstrom), charge = 0, multiplicity = 1:

       Center              X                  Y                   Z               Mass       
    ------------   -----------------  -----------------  -----------------  -----------------
      Gh(K)           0.000000000000     0.000000000000     0.000000000000    38.963706486400
      Gh(O)           0.612876000000    -1.115935000000    -2.349051000000    15.994914619570
      Gh(H)           0.426290000000    -1.552454000000    -3.196404000000     1.007825032230
      Gh(H)           1.249709000000    -1.726035000000    -1.997265000000     1.007825032230
      Gh(O)           0.226950000000    -1.309350000000     2.562510000000    15.994914619570
      Gh(H)           0.264022000000    -0.641943000000     3.257966000000     1.007825032230
      Gh(H)           1.068749000000    -1.730800000000     2.570162000000     1.007825032230
         O           -2.056105000000     0.919747000000    -1.186773000000    15.994914619570
         H           -2.198049000000     0.297455000000    -1.925318000000     1.007825032230
         H           -2.809767000000     1.060828000000    -0.585807000000     1.007825032230
      Gh(O)          -1.976233000000    -2.079701000000    -0.110673000000    15.994914619570
      Gh(H)          -1.733104000000    -3.050987000000    -0.116702000000     1.007825032230
      Gh(H)          -2.703697000000    -1.948167000000    -0.750612000000     1.007825032230
      Gh(O)           1.852186000000     1.592652000000     1.468527000000    15.994914619570
      Gh(H)           2.464721000000     2.245763000000     1.040167000000     1.007825032230
      Gh(H)           1.990939000000     1.633926000000     2.445297000000     1.007825032230
      Gh(O)           2.746451000000    -1.160995000000     0.084226000000    15.994914619570
      Gh(H)           3.055897000000    -0.685917000000    -0.671043000000     1.007825032230
      Gh(H)           3.443294000000    -1.731569000000     0.452839000000     1.007825032230

  Running in c1 symmetry.

  Rotational constants: A =      0.03685  B =      0.02572  C =      0.02515 [cm^-1]
  Rotational constants: A =   1104.77263  B =    771.03811  C =    753.96350 [MHz]
  Nuclear repulsion =    9.001463988620808

  Charge       = 0
  Multiplicity = 1
  Electrons    = 10
  Nalpha       = 5
  Nbeta        = 5

  ==> Algorithm <==

  SCF Algorithm Type is DF.
  DIIS enabled.
  MOM disabled.
  Fractional occupation disabled.
  Guess Type is SAD.
  Energy threshold   = 1.00e-08
  Density threshold  = 1.00e-08
  Integral threshold = 1.00e-12

  ==> Primary Basis <==

  Basis Set: AUG-CC-PVTZ
    Blend: AUG-CC-PVTZ
    Number of shells: 211
    Number of basis functions: 611
    Number of Cartesian functions: 699
    Spherical Harmonics?: true
    Max angular momentum: 3

   => Loading Basis Set <=

    Name: (AUG-CC-PVTZ AUX)
    Role: JKFIT
    Keyword: DF_BASIS_SCF
    atoms 1                                   entry K          line  1152 file /home/kchung25/anaconda3/envs/p415env/share/psi4/basis/def2-universal-jkfit.gbs 
    atoms 2, 5, 8, 11, 14, 17                 entry O          line   286 file /home/kchung25/anaconda3/envs/p415env/share/psi4/basis/aug-cc-pvtz-jkfit.gbs 
    atoms 3-4, 6-7, 9-10, 12-13, 15-16, 18-19 entry H          line    70 file /home/kchung25/anaconda3/envs/p415env/share/psi4/basis/aug-cc-pvtz-jkfit.gbs 

  ==> Integral Setup <==

  DFHelper Memory: AOs need 3.336 GiB; user supplied 41.910 GiB. 
  Using in-core AOs.

  ==> MemDFJK: Density-Fitted J/K Matrices <==

    J tasked:                   Yes
    K tasked:                   Yes
    wK tasked:                   No
    OpenMP threads:               6
    Memory [MiB]:             42915
    Algorithm:                 Core
    Schwarz Cutoff:           1E-12
    Mask sparsity (%):      13.0531
    Fitting Condition:        1E-10

   => Auxiliary Basis Set <=

  Basis Set: (AUG-CC-PVTZ AUX)
    Blend: AUG-CC-PVTZ-JKFIT + DEF2-UNIVERSAL-JKFIT
    Number of shells: 392
    Number of basis functions: 1336
    Number of Cartesian functions: 1649
    Spherical Harmonics?: true
    Max angular momentum: 4

  Minimum eigenvalue in the overlap matrix is 3.3965581110E-05.
  Reciprocal condition number of the overlap matrix is 2.3103294294E-06.
    Using symmetric orthogonalization.

  ==> Pre-Iterations <==

  SCF Guess: Superposition of Atomic Densities via on-the-fly atomic UHF (no occupation information).

   -------------------------
    Irrep   Nso     Nmo    
   -------------------------
     A        611     611 
   -------------------------
    Total     611     611
   -------------------------

  ==> Iterations <==

                           Total Energy        Delta E     RMS |[F,P]|

   @DF-RHF iter SAD:   -75.44666376278349   -7.54467e+01   0.00000e+00 
   @DF-RHF iter   1:   -75.97185883601900   -5.25195e-01   7.65278e-04 DIIS/ADIIS
   @DF-RHF iter   2:   -76.02333482368230   -5.14760e-02   5.25839e-04 DIIS/ADIIS
   @DF-RHF iter   3:   -76.05528876326775   -3.19539e-02   3.55901e-05 DIIS
   @DF-RHF iter   4:   -76.05571011982786   -4.21357e-04   8.98607e-06 DIIS
   @DF-RHF iter   5:   -76.05573932264747   -2.92028e-05   2.09483e-06 DIIS
   @DF-RHF iter   6:   -76.05574192168675   -2.59904e-06   4.86547e-07 DIIS
   @DF-RHF iter   7:   -76.05574207632300   -1.54636e-07   9.55593e-08 DIIS
   @DF-RHF iter   8:   -76.05574208153926   -5.21626e-09   1.55233e-08 DIIS
   @DF-RHF iter   9:   -76.05574208164963   -1.10361e-10   3.91276e-09 DIIS
  Energy and wave function converged.


  ==> Post-Iterations <==

    Orbital Energies [Eh]
    ---------------------

    Doubly Occupied:                                                      

       1A    -20.564281     2A     -1.336494     3A     -0.728603  
       4A     -0.558604     5A     -0.505019  

    Virtual:                                                              

       6A      0.006917     7A      0.009313     8A      0.009630  
       9A      0.010812    10A      0.017553    11A      0.017881  
      12A      0.018368    13A      0.018963    14A      0.019025  
      15A      0.030808    16A      0.033395    17A      0.035156  
      18A      0.039290    19A      0.053572    20A      0.055856  
      21A      0.057585    22A      0.060652    23A      0.062411  
      24A      0.069604    25A      0.072315    26A      0.074362  
      27A      0.075238    28A      0.077196    29A      0.078407  
      30A      0.081354    31A      0.087286    32A      0.090180  
      33A      0.096225    34A      0.097460    35A      0.098662  
      36A      0.100449    37A      0.118857    38A      0.128620  
      39A      0.139787    40A      0.142639    41A      0.150847  
      42A      0.153064    43A      0.158780    44A      0.164818  
      45A      0.166540    46A      0.167730    47A      0.172467  
      48A      0.180925    49A      0.181705    50A      0.184435  
      51A      0.192580    52A      0.194739    53A      0.199704  
      54A      0.200422    55A      0.203162    56A      0.213567  
      57A      0.218015    58A      0.219109    59A      0.226633  
      60A      0.231611    61A      0.236976    62A      0.243957  
      63A      0.248308    64A      0.257748    65A      0.262329  
      66A      0.268153    67A      0.277159    68A      0.286094  
      69A      0.289894    70A      0.296389    71A      0.299582  
      72A      0.309652    73A      0.317613    74A      0.319764  
      75A      0.329243    76A      0.336616    77A      0.340100  
      78A      0.344141    79A      0.348355    80A      0.352913  
      81A      0.358566    82A      0.368645    83A      0.370162  
      84A      0.371871    85A      0.375120    86A      0.378430  
      87A      0.385185    88A      0.387877    89A      0.394220  
      90A      0.404879    91A      0.414370    92A      0.414845  
      93A      0.417356    94A      0.423093    95A      0.426848  
      96A      0.428615    97A      0.432910    98A      0.436962  
      99A      0.440303   100A      0.444169   101A      0.449034  
     102A      0.451849   103A      0.457172   104A      0.464685  
     105A      0.467431   106A      0.473994   107A      0.478215  
     108A      0.479720   109A      0.482164   110A      0.489496  
     111A      0.491212   112A      0.497447   113A      0.505495  
     114A      0.506342   115A      0.507957   116A      0.514829  
     117A      0.525640   118A      0.532461   119A      0.537212  
     120A      0.539594   121A      0.545924   122A      0.553733  
     123A      0.558799   124A      0.583456   125A      0.591002  
     126A      0.591748   127A      0.604634   128A      0.609977  
     129A      0.617601   130A      0.625577   131A      0.644844  
     132A      0.663009   133A      0.666837   134A      0.685244  
     135A      0.709012   136A      0.712291   137A      0.717283  
     138A      0.724966   139A      0.739858   140A      0.760328  
     141A      0.767709   142A      0.782485   143A      0.790173  
     144A      0.799860   145A      0.804687   146A      0.809894  
     147A      0.811608   148A      0.815791   149A      0.824104  
     150A      0.829148   151A      0.841920   152A      0.847120  
     153A      0.849958   154A      0.853058   155A      0.855710  
     156A      0.867896   157A      0.872729   158A      0.880608  
     159A      0.886459   160A      0.890812   161A      0.895641  
     162A      0.906897   163A      0.910050   164A      0.917208  
     165A      0.921136   166A      0.928871   167A      0.936989  
     168A      0.939696   169A      0.941462   170A      0.944910  
     171A      0.952781   172A      0.962437   173A      0.968426  
     174A      0.978714   175A      0.980809   176A      0.983396  
     177A      0.990436   178A      0.992287   179A      1.004195  
     180A      1.007004   181A      1.008291   182A      1.010285  
     183A      1.023516   184A      1.034132   185A      1.040321  
     186A      1.045783   187A      1.047181   188A      1.056617  
     189A      1.058578   190A      1.069133   191A      1.071920  
     192A      1.079204   193A      1.083530   194A      1.089676  
     195A      1.103261   196A      1.104386   197A      1.107550  
     198A      1.110096   199A      1.114092   200A      1.124318  
     201A      1.127221   202A      1.132024   203A      1.144004  
     204A      1.145602   205A      1.151615   206A      1.161892  
     207A      1.169781   208A      1.174632   209A      1.178105  
     210A      1.185376   211A      1.191394   212A      1.192983  
     213A      1.202211   214A      1.203203   215A      1.216851  
     216A      1.221868   217A      1.229629   218A      1.236907  
     219A      1.245476   220A      1.249261   221A      1.260058  
     222A      1.261796   223A      1.279892   224A      1.283561  
     225A      1.288556   226A      1.291321   227A      1.299324  
     228A      1.305622   229A      1.314119   230A      1.322028  
     231A      1.325003   232A      1.329437   233A      1.337207  
     234A      1.345860   235A      1.354192   236A      1.364026  
     237A      1.370638   238A      1.385263   239A      1.390447  
     240A      1.410202   241A      1.412744   242A      1.424930  
     243A      1.439004   244A      1.449966   245A      1.453226  
     246A      1.458453   247A      1.479299   248A      1.508802  
     249A      1.531921   250A      1.538361   251A      1.549699  
     252A      1.555846   253A      1.571900   254A      1.581327  
     255A      1.609019   256A      1.639921   257A      1.650262  
     258A      1.667191   259A      1.682417   260A      1.694397  
     261A      1.711211   262A      1.730471   263A      1.755938  
     264A      1.771772   265A      1.772588   266A      1.792311  
     267A      1.802296   268A      1.811062   269A      1.822824  
     270A      1.828257   271A      1.841531   272A      1.851774  
     273A      1.861722   274A      1.871251   275A      1.876235  
     276A      1.890265   277A      1.897592   278A      1.911102  
     279A      1.918474   280A      1.919628   281A      1.927428  
     282A      1.936903   283A      1.945750   284A      1.967381  
     285A      1.979769   286A      1.995573   287A      2.014562  
     288A      2.026016   289A      2.027096   290A      2.035247  
     291A      2.050219   292A      2.060303   293A      2.076330  
     294A      2.103612   295A      2.167167   296A      2.259820  
     297A      2.313453   298A      2.334560   299A      2.355012  
     300A      2.360039   301A      2.381670   302A      2.410072  
     303A      2.414695   304A      2.432439   305A      2.443001  
     306A      2.455142   307A      2.466004   308A      2.479362  
     309A      2.481743   310A      2.495280   311A      2.512523  
     312A      2.522372   313A      2.535523   314A      2.542250  
     315A      2.557365   316A      2.562181   317A      2.573814  
     318A      2.576359   319A      2.581018   320A      2.583142  
     321A      2.595466   322A      2.601711   323A      2.614538  
     324A      2.615177   325A      2.638864   326A      2.647123  
     327A      2.663631   328A      2.667989   329A      2.676817  
     330A      2.686569   331A      2.689561   332A      2.695147  
     333A      2.701438   334A      2.714873   335A      2.730107  
     336A      2.743438   337A      2.749668   338A      2.765231  
     339A      2.794135   340A      2.803440   341A      2.815298  
     342A      2.832889   343A      2.844835   344A      2.851312  
     345A      2.880104   346A      2.903627   347A      2.906900  
     348A      2.913458   349A      2.925177   350A      2.937142  
     351A      2.956314   352A      2.963229   353A      2.976902  
     354A      2.985305   355A      3.007397   356A      3.019595  
     357A      3.023407   358A      3.040026   359A      3.071333  
     360A      3.092516   361A      3.137742   362A      3.206475  
     363A      3.212629   364A      3.231026   365A      3.233826  
     366A      3.239443   367A      3.260035   368A      3.265994  
     369A      3.286056   370A      3.291188   371A      3.297169  
     372A      3.300349   373A      3.320222   374A      3.332724  
     375A      3.340285   376A      3.350285   377A      3.358746  
     378A      3.372081   379A      3.376365   380A      3.392054  
     381A      3.405201   382A      3.429239   383A      3.439266  
     384A      3.444463   385A      3.480012   386A      3.543618  
     387A      3.563857   388A      3.622925   389A      3.659835  
     390A      3.666034   391A      3.695573   392A      3.723802  
     393A      3.744316   394A      3.752443   395A      3.759962  
     396A      3.772537   397A      3.807711   398A      3.823518  
     399A      3.959026   400A      4.122068   401A      4.238202  
     402A      4.293164   403A      4.341659   404A      4.349266  
     405A      4.368605   406A      4.375084   407A      4.413206  
     408A      4.430996   409A      4.449997   410A      4.471969  
     411A      4.486631   412A      4.491252   413A      4.502446  
     414A      4.519526   415A      4.527266   416A      4.529583  
     417A      4.551183   418A      4.554115   419A      4.570345  
     420A      4.584853   421A      4.597067   422A      4.615075  
     423A      4.631393   424A      4.636981   425A      4.652684  
     426A      4.669756   427A      4.678796   428A      4.685261  
     429A      4.696778   430A      4.704882   431A      4.715182  
     432A      4.722505   433A      4.735130   434A      4.745046  
     435A      4.761401   436A      4.766180   437A      4.778121  
     438A      4.793845   439A      4.811203   440A      4.862208  
     441A      4.935975   442A      4.942051   443A      4.947027  
     444A      4.965162   445A      4.976280   446A      4.985347  
     447A      4.998670   448A      5.018889   449A      5.032170  
     450A      5.061447   451A      5.067846   452A      5.081221  
     453A      5.099214   454A      5.107043   455A      5.144309  
     456A      5.148994   457A      5.160155   458A      5.177698  
     459A      5.204501   460A      5.217938   461A      5.227927  
     462A      5.275436   463A      5.367638   464A      5.431274  
     465A      5.432318   466A      5.432882   467A      5.476757  
     468A      5.515596   469A      5.523071   470A      5.551532  
     471A      5.571648   472A      5.595759   473A      5.600934  
     474A      5.620978   475A      5.639991   476A      5.648076  
     477A      5.654570   478A      5.713478   479A      5.726906  
     480A      5.744287   481A      5.777299   482A      5.785059  
     483A      5.853646   484A      5.869619   485A      5.907945  
     486A      5.964566   487A      6.107789   488A      6.142665  
     489A      6.166666   490A      6.170517   491A      6.191005  
     492A      6.268148   493A      6.274963   494A      6.302261  
     495A      6.376641   496A      6.414895   497A      6.457703  
     498A      6.661239   499A      6.681431   500A      6.702343  
     501A      6.715295   502A      6.741727   503A      6.762594  
     504A      6.830613   505A      6.893734   506A      6.971235  
     507A      6.983150   508A      7.121812   509A      7.146061  
     510A      7.176848   511A      7.251046   512A      7.272479  
     513A      7.334800   514A      7.369349   515A      7.437652  
     516A      7.511976   517A      7.605446   518A      7.677991  
     519A      7.699392   520A      7.720552   521A      7.727670  
     522A      7.736019   523A      7.773733   524A      7.778790  
     525A      7.790670   526A      7.808869   527A      7.878486  
     528A      7.922170   529A      8.028392   530A      8.074659  
     531A      8.087300   532A      8.091936   533A      8.127002  
     534A      8.134662   535A      8.163334   536A      8.188283  
     537A      8.209648   538A      8.217577   539A      8.232397  
     540A      8.243806   541A      8.298357   542A      8.331471  
     543A      8.337140   544A      8.349727   545A      8.620266  
     546A      8.630208   547A      8.683879   548A      8.707099  
     549A      8.712479   550A      8.788434   551A      8.820758  
     552A      8.834979   553A      8.888244   554A      8.890277  
     555A      8.923954   556A      9.733757   557A      9.793582  
     558A      9.822115   559A      9.867561   560A      9.897431  
     561A      9.935000   562A      9.956253   563A      9.969820  
     564A      9.992515   565A      9.999908   566A     10.018583  
     567A     10.033818   568A     10.039617   569A     10.059485  
     570A     10.066313   571A     10.197329   572A     10.197723  
     573A     10.199184   574A     10.242814   575A     10.299833  
     576A     10.504708   577A     11.011064   578A     11.023390  
     579A     11.166760   580A     11.268104   581A     11.276647  
     582A     11.629377   583A     11.645932   584A     11.749437  
     585A     11.785360   586A     11.805845   587A     11.896241  
     588A     11.932852   589A     12.237181   590A     12.298280  
     591A     12.313334   592A     13.388433   593A     13.411668  
     594A     13.602950   595A     13.661131   596A     13.669480  
     597A     13.873405   598A     13.887058   599A     13.914663  
     600A     13.951471   601A     14.012492   602A     15.914168  
     603A     31.123604   604A     31.216642   605A     31.589868  
     606A     63.487733   607A     63.717098   608A     65.380630  
     609A     65.499897   610A     65.681308   611A    198.283428  

    Final Occupation by Irrep:
              A 
    DOCC [     5 ]
    NA   [     5 ]
    NB   [     5 ]

  @DF-RHF Final Energy:   -76.05574208164963

   => Energetics <=

    Nuclear Repulsion Energy =              9.0014639886208077
    One-Electron Energy =                -122.7284055909185696
    Two-Electron Energy =                  37.6711995206481305
    Total Energy =                        -76.0557420816496261

Computation Completed


Properties will be evaluated at   0.000000,   0.000000,   0.000000 [a0]

Properties computed using the SCF density matrix


 Multipole Moments:

 ------------------------------------------------------------------------------------
     Multipole            Electronic (a.u.)      Nuclear  (a.u.)        Total (a.u.)
 ------------------------------------------------------------------------------------

 L = 1.  Multiply by 2.5417464519 to convert [e a0] to [Debye]
 Dipole X            :         39.9349054          -40.5472034           -0.6122980
 Dipole Y            :        -16.7999989           16.4713423           -0.3286565
 Dipole Z            :         22.5927839          -22.6867461           -0.0939621
 Magnitude           :                                                    0.7012509

 ------------------------------------------------------------------------------------

*** tstop() called on moses-razer at Wed Jan 24 19:41:56 2024
Module time:
	user time   =      64.20 seconds =       1.07 minutes
	system time =       3.19 seconds =       0.05 minutes
	total time  =         17 seconds =       0.28 minutes
Total time:
	user time   =      64.20 seconds =       1.07 minutes
	system time =       3.19 seconds =       0.05 minutes
	total time  =         17 seconds =       0.28 minutes

*** tstart() called on moses-razer
*** at Wed Jan 24 19:41:56 2024


  //>>>>>>>>>>>>>>>>>>>>>>>>>>>>>>>>>>>//
  //               DFMP2               //
  //<<<<<<<<<<<<<<<<<<<<<<<<<<<<<<<<<<<//

   => Loading Basis Set <=

    Name: (AUG-CC-PVTZ AUX)
    Role: RIFIT
    Keyword: DF_BASIS_MP2
    atoms 1                                   entry K          line  1282 file /home/kchung25/anaconda3/envs/p415env/share/psi4/basis/def2-qzvpp-ri.gbs 
    atoms 2, 5, 8, 11, 14, 17                 entry O          line   264 file /home/kchung25/anaconda3/envs/p415env/share/psi4/basis/aug-cc-pvtz-ri.gbs 
    atoms 3-4, 6-7, 9-10, 12-13, 15-16, 18-19 entry H          line    30 file /home/kchung25/anaconda3/envs/p415env/share/psi4/basis/aug-cc-pvtz-ri.gbs 

	 --------------------------------------------------------
	                          DF-MP2                         
	      2nd-Order Density-Fitted Moller-Plesset Theory     
	              RMP2 Wavefunction,   6 Threads             
	                                                         
	        Rob Parrish, Justin Turney, Andy Simmonett,      
	           Ed Hohenstein, and C. David Sherrill          
	 --------------------------------------------------------

   => Auxiliary Basis Set <=

  Basis Set: (AUG-CC-PVTZ AUX)
    Blend: AUG-CC-PVTZ-RI + DEF2-QZVPP-RI
    Number of shells: 385
    Number of basis functions: 1387
    Number of Cartesian functions: 1738
    Spherical Harmonics?: true
    Max angular momentum: 4

	 --------------------------------------------------------
	                 NBF =   611, NAUX =  1387
	 --------------------------------------------------------
	   CLASS    FOCC     OCC    AOCC    AVIR     VIR    FVIR
	   PAIRS       0       5       5     606     606       0
	 --------------------------------------------------------

	-----------------------------------------------------------
	 ==================> DF-MP2 Energies <==================== 
	-----------------------------------------------------------
	 Reference Energy          =     -76.0557420816496261 [Eh]
	 Singles Energy            =      -0.0000000000000000 [Eh]
	 Same-Spin Energy          =      -0.0686323922457422 [Eh]
	 Opposite-Spin Energy      =      -0.2161861789541147 [Eh]
	 Correlation Energy        =      -0.2848185711998569 [Eh]
	 Total Energy              =     -76.3405606528494900 [Eh]
	-----------------------------------------------------------
	 ================> DF-SCS-MP2 Energies <================== 
	-----------------------------------------------------------
	 SCS Same-Spin Scale       =       0.3333333333333333 [-]
	 SCS Opposite-Spin Scale   =       1.2000000000000000 [-]
	 SCS Same-Spin Energy      =      -0.0228774640819141 [Eh]
	 SCS Opposite-Spin Energy  =      -0.2594234147449376 [Eh]
	 SCS Correlation Energy    =      -0.2823008788268517 [Eh]
	 SCS Total Energy          =     -76.3380429604764714 [Eh]
	-----------------------------------------------------------


*** tstop() called on moses-razer at Wed Jan 24 19:42:06 2024
Module time:
	user time   =      24.26 seconds =       0.40 minutes
	system time =       1.75 seconds =       0.03 minutes
	total time  =         10 seconds =       0.17 minutes
Total time:
	user time   =      88.46 seconds =       1.47 minutes
	system time =       4.94 seconds =       0.08 minutes
	total time  =         27 seconds =       0.45 minutes

    Psi4 stopped on: Wednesday, 24 January 2024 07:42PM
    Psi4 wall time for execution: 0:00:26.50

*** Psi4 exiting successfully. Buy a developer a beer!
