
    -----------------------------------------------------------------------
          Psi4: An Open-Source Ab Initio Electronic Structure Package
                               Psi4 1.9 release

                         Git: Rev {} zzzzzzz 


    D. G. A. Smith, L. A. Burns, A. C. Simmonett, R. M. Parrish,
    M. C. Schieber, R. Galvelis, P. Kraus, H. Kruse, R. Di Remigio,
    A. Alenaizan, A. M. James, S. Lehtola, J. P. Misiewicz, M. Scheurer,
    R. A. Shaw, J. B. Schriber, Y. Xie, Z. L. Glick, D. A. Sirianni,
    J. S. O'Brien, J. M. Waldrop, A. Kumar, E. G. Hohenstein,
    B. P. Pritchard, B. R. Brooks, H. F. Schaefer III, A. Yu. Sokolov,
    K. Patkowski, A. E. DePrince III, U. Bozkaya, R. A. King,
    F. A. Evangelista, J. M. Turney, T. D. Crawford, C. D. Sherrill,
    J. Chem. Phys. 152(18) 184108 (2020). https://doi.org/10.1063/5.0006002

                            Additional Code Authors
    E. T. Seidl, C. L. Janssen, E. F. Valeev, M. L. Leininger,
    J. F. Gonthier, R. M. Richard, H. R. McAlexander, M. Saitow, X. Wang,
    P. Verma, M. H. Lechner, A. Jiang, S. Behnle, A. G. Heide,
    M. F. Herbst, and D. L. Poole

             Previous Authors, Complete List of Code Contributors,
                       and Citations for Specific Modules
    https://github.com/psi4/psi4/blob/master/codemeta.json
    https://github.com/psi4/psi4/graphs/contributors
    http://psicode.org/psi4manual/master/introduction.html#citing-psifour

    -----------------------------------------------------------------------


    Psi4 started on: Wednesday, 24 January 2024 07:47PM

    Process ID: 1249520
    Host:       moses-razer
    PSIDATADIR: /home/kchung25/anaconda3/envs/psi4_19/share/psi4
    Memory:     500.0 MiB
    Threads:    6
    
  ==> Input File <==

--------------------------------------------------------------------------
MEMORY 60 GB

molecule dimer {
0 1
Gh(K)      0.000000     0.000000     0.000000
Gh(O)      0.819292    -2.789941     0.291306
Gh(H)      1.195094    -2.776841    -0.566002
Gh(H)     -0.077964    -3.026358     0.173959
Gh(O)      1.764010    -0.126028     2.022779
Gh(H)      1.754232     0.527948     2.711207
Gh(H)      2.705527    -0.165887     1.849429
Gh(O)      0.734762    -1.062837    -2.508725
Gh(H)     -0.095661    -1.571347    -2.543715
Gh(H)      0.877683    -0.850644    -3.477691
Gh(O)     -1.962159    -1.257408    -1.533300
Gh(H)     -1.941275    -2.118908    -1.072393
Gh(H)     -2.659976    -0.760867    -1.081823
Gh(O)     -1.800433     2.262698     0.326586
Gh(H)     -2.152082     2.644699     1.205225
Gh(H)     -2.536440     1.995678    -0.220888
O          2.083767     1.285735    -1.472343
H          2.549628     1.827404    -0.889650
H          2.615719     0.570403    -1.811064
Gh(O)     -2.043898    -0.136581     1.786181
Gh(H)     -2.602896    -0.897183     2.048392
Gh(H)     -2.544444     0.705464     1.976021

units ang
no_reorient
no_com
symmetry c1
}

set {
basis        aug-cc-pVTZ
scf_type     df
}

energy("mp2")
--------------------------------------------------------------------------

  Memory set to  55.879 GiB by Python driver.

Scratch directory: /scratch/
   => Libint2 <=

    Primary   basis highest AM E, G, H:  5, 4, 3
    Auxiliary basis highest AM E, G, H:  6, 5, 4
    Onebody   basis highest AM E, G, H:  6, 5, 4
    Solid Harmonics ordering:            gaussian

*** tstart() called on moses-razer
*** at Wed Jan 24 19:47:47 2024

   => Loading Basis Set <=

    Name: AUG-CC-PVTZ
    Role: ORBITAL
    Keyword: BASIS
    atoms 1                                          entry K          line  1152 file /home/kchung25/anaconda3/envs/p415env/share/psi4/basis/aug-cc-pvtz.gbs 
    atoms 2, 5, 8, 11, 14, 17, 20                    entry O          line   331 file /home/kchung25/anaconda3/envs/p415env/share/psi4/basis/aug-cc-pvtz.gbs 
    atoms 3-4, 6-7, 9-10, 12-13, 15-16, 18-19, 21-22 entry H          line    40 file /home/kchung25/anaconda3/envs/p415env/share/psi4/basis/aug-cc-pvtz.gbs 


         ---------------------------------------------------------
                                   SCF
               by Justin Turney, Rob Parrish, Andy Simmonett
                          and Daniel G. A. Smith
                              RHF Reference
                        6 Threads,  57220 MiB Core
         ---------------------------------------------------------

  ==> Geometry <==

    Molecular point group: c1
    Full point group: C1

    Geometry (in Angstrom), charge = 0, multiplicity = 1:

       Center              X                  Y                   Z               Mass       
    ------------   -----------------  -----------------  -----------------  -----------------
      Gh(K)           0.000000000000     0.000000000000     0.000000000000    38.963706486400
      Gh(O)           0.819292000000    -2.789941000000     0.291306000000    15.994914619570
      Gh(H)           1.195094000000    -2.776841000000    -0.566002000000     1.007825032230
      Gh(H)          -0.077964000000    -3.026358000000     0.173959000000     1.007825032230
      Gh(O)           1.764010000000    -0.126028000000     2.022779000000    15.994914619570
      Gh(H)           1.754232000000     0.527948000000     2.711207000000     1.007825032230
      Gh(H)           2.705527000000    -0.165887000000     1.849429000000     1.007825032230
      Gh(O)           0.734762000000    -1.062837000000    -2.508725000000    15.994914619570
      Gh(H)          -0.095661000000    -1.571347000000    -2.543715000000     1.007825032230
      Gh(H)           0.877683000000    -0.850644000000    -3.477691000000     1.007825032230
      Gh(O)          -1.962159000000    -1.257408000000    -1.533300000000    15.994914619570
      Gh(H)          -1.941275000000    -2.118908000000    -1.072393000000     1.007825032230
      Gh(H)          -2.659976000000    -0.760867000000    -1.081823000000     1.007825032230
      Gh(O)          -1.800433000000     2.262698000000     0.326586000000    15.994914619570
      Gh(H)          -2.152082000000     2.644699000000     1.205225000000     1.007825032230
      Gh(H)          -2.536440000000     1.995678000000    -0.220888000000     1.007825032230
         O            2.083767000000     1.285735000000    -1.472343000000    15.994914619570
         H            2.549628000000     1.827404000000    -0.889650000000     1.007825032230
         H            2.615719000000     0.570403000000    -1.811064000000     1.007825032230
      Gh(O)          -2.043898000000    -0.136581000000     1.786181000000    15.994914619570
      Gh(H)          -2.602896000000    -0.897183000000     2.048392000000     1.007825032230
      Gh(H)          -2.544444000000     0.705464000000     1.976021000000     1.007825032230

  Running in c1 symmetry.

  Rotational constants: A =      0.02793  B =      0.02358  C =      0.02229 [cm^-1]
  Rotational constants: A =    837.20062  B =    706.86651  C =    668.31475 [MHz]
  Nuclear repulsion =    9.370394646935974

  Charge       = 0
  Multiplicity = 1
  Electrons    = 10
  Nalpha       = 5
  Nbeta        = 5

  ==> Algorithm <==

  SCF Algorithm Type is DF.
  DIIS enabled.
  MOM disabled.
  Fractional occupation disabled.
  Guess Type is SAD.
  Energy threshold   = 1.00e-08
  Density threshold  = 1.00e-08
  Integral threshold = 1.00e-12

  ==> Primary Basis <==

  Basis Set: AUG-CC-PVTZ
    Blend: AUG-CC-PVTZ
    Number of shells: 243
    Number of basis functions: 703
    Number of Cartesian functions: 804
    Spherical Harmonics?: true
    Max angular momentum: 3

   => Loading Basis Set <=

    Name: (AUG-CC-PVTZ AUX)
    Role: JKFIT
    Keyword: DF_BASIS_SCF
    atoms 1                                          entry K          line  1152 file /home/kchung25/anaconda3/envs/p415env/share/psi4/basis/def2-universal-jkfit.gbs 
    atoms 2, 5, 8, 11, 14, 17, 20                    entry O          line   286 file /home/kchung25/anaconda3/envs/p415env/share/psi4/basis/aug-cc-pvtz-jkfit.gbs 
    atoms 3-4, 6-7, 9-10, 12-13, 15-16, 18-19, 21-22 entry H          line    70 file /home/kchung25/anaconda3/envs/p415env/share/psi4/basis/aug-cc-pvtz-jkfit.gbs 

  ==> Integral Setup <==

  DFHelper Memory: AOs need 5.039 GiB; user supplied 41.910 GiB. 
  Using in-core AOs.

  ==> MemDFJK: Density-Fitted J/K Matrices <==

    J tasked:                   Yes
    K tasked:                   Yes
    wK tasked:                   No
    OpenMP threads:               6
    Memory [MiB]:             42915
    Algorithm:                 Core
    Schwarz Cutoff:           1E-12
    Mask sparsity (%):      13.1293
    Fitting Condition:        1E-10

   => Auxiliary Basis Set <=

  Basis Set: (AUG-CC-PVTZ AUX)
    Blend: AUG-CC-PVTZ-JKFIT + DEF2-UNIVERSAL-JKFIT
    Number of shells: 450
    Number of basis functions: 1532
    Number of Cartesian functions: 1890
    Spherical Harmonics?: true
    Max angular momentum: 4

  Minimum eigenvalue in the overlap matrix is 3.6964330260E-05.
  Reciprocal condition number of the overlap matrix is 2.2332677412E-06.
    Using symmetric orthogonalization.

  ==> Pre-Iterations <==

  SCF Guess: Superposition of Atomic Densities via on-the-fly atomic UHF (no occupation information).

   -------------------------
    Irrep   Nso     Nmo    
   -------------------------
     A        703     703 
   -------------------------
    Total     703     703
   -------------------------

  ==> Iterations <==

                           Total Energy        Delta E     RMS |[F,P]|

   @DF-RHF iter SAD:   -75.49196782262563   -7.54920e+01   0.00000e+00 
   @DF-RHF iter   1:   -75.97677251339105   -4.84805e-01   6.70709e-04 ADIIS/DIIS
   @DF-RHF iter   2:   -76.02979628240270   -5.30238e-02   4.43468e-04 ADIIS/DIIS
   @DF-RHF iter   3:   -76.05935862999510   -2.95623e-02   2.99661e-05 DIIS
   @DF-RHF iter   4:   -76.05972787892334   -3.69249e-04   6.90296e-06 DIIS
   @DF-RHF iter   5:   -76.05974867846716   -2.07995e-05   1.53036e-06 DIIS
   @DF-RHF iter   6:   -76.05975035553365   -1.67707e-06   3.45309e-07 DIIS
   @DF-RHF iter   7:   -76.05975045187508   -9.63414e-08   6.83435e-08 DIIS
   @DF-RHF iter   8:   -76.05975045528155   -3.40647e-09   1.09083e-08 DIIS
   @DF-RHF iter   9:   -76.05975045534835   -6.68052e-11   2.59936e-09 DIIS
  Energy and wave function converged.


  ==> Post-Iterations <==

    Orbital Energies [Eh]
    ---------------------

    Doubly Occupied:                                                      

       1A    -20.559924     2A     -1.358288     3A     -0.744003  
       4A     -0.572843     5A     -0.509703  

    Virtual:                                                              

       6A      0.006886     7A      0.009151     8A      0.009530  
       9A      0.010760    10A      0.017508    11A      0.017628  
      12A      0.018231    13A      0.018526    14A      0.019042  
      15A      0.030536    16A      0.031894    17A      0.034989  
      18A      0.039178    19A      0.052052    20A      0.053583  
      21A      0.056979    22A      0.058075    23A      0.060769  
      24A      0.071442    25A      0.072400    26A      0.073394  
      27A      0.075209    28A      0.076096    29A      0.077303  
      30A      0.078730    31A      0.083539    32A      0.086359  
      33A      0.092466    34A      0.098740    35A      0.101261  
      36A      0.102500    37A      0.106093    38A      0.107415  
      39A      0.116767    40A      0.140789    41A      0.141557  
      42A      0.147415    43A      0.149600    44A      0.153011  
      45A      0.157998    46A      0.161459    47A      0.167696  
      48A      0.168271    49A      0.173309    50A      0.175943  
      51A      0.177483    52A      0.179269    53A      0.187703  
      54A      0.195180    55A      0.198346    56A      0.207251  
      57A      0.210576    58A      0.216355    59A      0.222104  
      60A      0.227662    61A      0.229157    62A      0.229847  
      63A      0.235403    64A      0.244647    65A      0.244939  
      66A      0.248039    67A      0.249535    68A      0.253619  
      69A      0.257193    70A      0.270087    71A      0.275177  
      72A      0.284139    73A      0.286240    74A      0.294086  
      75A      0.295515    76A      0.305840    77A      0.316222  
      78A      0.322054    79A      0.324475    80A      0.330100  
      81A      0.331237    82A      0.337098    83A      0.341887  
      84A      0.345071    85A      0.347922    86A      0.352732  
      87A      0.357045    88A      0.364967    89A      0.368049  
      90A      0.373967    91A      0.378724    92A      0.384054  
      93A      0.389202    94A      0.391140    95A      0.396814  
      96A      0.399355    97A      0.405030    98A      0.412219  
      99A      0.415144   100A      0.421401   101A      0.430082  
     102A      0.432092   103A      0.436521   104A      0.444478  
     105A      0.449000   106A      0.452679   107A      0.454151  
     108A      0.455860   109A      0.459820   110A      0.462078  
     111A      0.466022   112A      0.476059   113A      0.477403  
     114A      0.480658   115A      0.484057   116A      0.487455  
     117A      0.491604   118A      0.499604   119A      0.501263  
     120A      0.505418   121A      0.509772   122A      0.516300  
     123A      0.519585   124A      0.521108   125A      0.526677  
     126A      0.531432   127A      0.533305   128A      0.540925  
     129A      0.550369   130A      0.554266   131A      0.558093  
     132A      0.566577   133A      0.569763   134A      0.573119  
     135A      0.576818   136A      0.589528   137A      0.595268  
     138A      0.600579   139A      0.613057   140A      0.621904  
     141A      0.624435   142A      0.627603   143A      0.643064  
     144A      0.651650   145A      0.670293   146A      0.675735  
     147A      0.687326   148A      0.706165   149A      0.729889  
     150A      0.732549   151A      0.739463   152A      0.745462  
     153A      0.759439   154A      0.765554   155A      0.772924  
     156A      0.779840   157A      0.785691   158A      0.795987  
     159A      0.799804   160A      0.803327   161A      0.813225  
     162A      0.820067   163A      0.825852   164A      0.833395  
     165A      0.839561   166A      0.842154   167A      0.845853  
     168A      0.855633   169A      0.864084   170A      0.870972  
     171A      0.872271   172A      0.877336   173A      0.884416  
     174A      0.885914   175A      0.892448   176A      0.895258  
     177A      0.901961   178A      0.913749   179A      0.917737  
     180A      0.921010   181A      0.923190   182A      0.936320  
     183A      0.938220   184A      0.947334   185A      0.947976  
     186A      0.951885   187A      0.956345   188A      0.969316  
     189A      0.969670   190A      0.972549   191A      0.983265  
     192A      0.985183   193A      0.994182   194A      1.000987  
     195A      1.001579   196A      1.011533   197A      1.019257  
     198A      1.025267   199A      1.026884   200A      1.032986  
     201A      1.035496   202A      1.042173   203A      1.047051  
     204A      1.053936   205A      1.056409   206A      1.064271  
     207A      1.067360   208A      1.068478   209A      1.072696  
     210A      1.076580   211A      1.086710   212A      1.089886  
     213A      1.096826   214A      1.097555   215A      1.105520  
     216A      1.111090   217A      1.112881   218A      1.122406  
     219A      1.128976   220A      1.134761   221A      1.144101  
     222A      1.148604   223A      1.153537   224A      1.160568  
     225A      1.166400   226A      1.179131   227A      1.184072  
     228A      1.190374   229A      1.190653   230A      1.195391  
     231A      1.201958   232A      1.208656   233A      1.210482  
     234A      1.220152   235A      1.222414   236A      1.225672  
     237A      1.234480   238A      1.237084   239A      1.244997  
     240A      1.248628   241A      1.259308   242A      1.263321  
     243A      1.272784   244A      1.276947   245A      1.282748  
     246A      1.287060   247A      1.289487   248A      1.296850  
     249A      1.308381   250A      1.312493   251A      1.324451  
     252A      1.328212   253A      1.330642   254A      1.344859  
     255A      1.355536   256A      1.357719   257A      1.365041  
     258A      1.374484   259A      1.381910   260A      1.386713  
     261A      1.394622   262A      1.404360   263A      1.413137  
     264A      1.425530   265A      1.428127   266A      1.435274  
     267A      1.441756   268A      1.449661   269A      1.458150  
     270A      1.467577   271A      1.474697   272A      1.480134  
     273A      1.491194   274A      1.492263   275A      1.520786  
     276A      1.528589   277A      1.547992   278A      1.554411  
     279A      1.561143   280A      1.570281   281A      1.576863  
     282A      1.590617   283A      1.595968   284A      1.604219  
     285A      1.626366   286A      1.632280   287A      1.646209  
     288A      1.664111   289A      1.667511   290A      1.682160  
     291A      1.696837   292A      1.707587   293A      1.735557  
     294A      1.737655   295A      1.759744   296A      1.761710  
     297A      1.778246   298A      1.780567   299A      1.797527  
     300A      1.816776   301A      1.822756   302A      1.825543  
     303A      1.831982   304A      1.848842   305A      1.866431  
     306A      1.872087   307A      1.880360   308A      1.891031  
     309A      1.896011   310A      1.902960   311A      1.906180  
     312A      1.916263   313A      1.920206   314A      1.937561  
     315A      1.939015   316A      1.945403   317A      1.953084  
     318A      1.971306   319A      1.977692   320A      2.001115  
     321A      2.007928   322A      2.016659   323A      2.027163  
     324A      2.036167   325A      2.040165   326A      2.046574  
     327A      2.068864   328A      2.077088   329A      2.091474  
     330A      2.095492   331A      2.132412   332A      2.149328  
     333A      2.163538   334A      2.171269   335A      2.201358  
     336A      2.210473   337A      2.238736   338A      2.345424  
     339A      2.356999   340A      2.382892   341A      2.415143  
     342A      2.418180   343A      2.441090   344A      2.448757  
     345A      2.457351   346A      2.470627   347A      2.490197  
     348A      2.497555   349A      2.520347   350A      2.532132  
     351A      2.536574   352A      2.543998   353A      2.559840  
     354A      2.571113   355A      2.578548   356A      2.586539  
     357A      2.598772   358A      2.602138   359A      2.607240  
     360A      2.613116   361A      2.625332   362A      2.632957  
     363A      2.641198   364A      2.646680   365A      2.653824  
     366A      2.660929   367A      2.668883   368A      2.679245  
     369A      2.681346   370A      2.688691   371A      2.699532  
     372A      2.713293   373A      2.718274   374A      2.721774  
     375A      2.731092   376A      2.738877   377A      2.746372  
     378A      2.759281   379A      2.765820   380A      2.784178  
     381A      2.791596   382A      2.800331   383A      2.810111  
     384A      2.817254   385A      2.823794   386A      2.849341  
     387A      2.852053   388A      2.870196   389A      2.878127  
     390A      2.888366   391A      2.894842   392A      2.904178  
     393A      2.918539   394A      2.930509   395A      2.943058  
     396A      2.952596   397A      2.959064   398A      2.986299  
     399A      2.990713   400A      3.002327   401A      3.022010  
     402A      3.029846   403A      3.036623   404A      3.048245  
     405A      3.059803   406A      3.076540   407A      3.094901  
     408A      3.143893   409A      3.162938   410A      3.178376  
     411A      3.201720   412A      3.223049   413A      3.234782  
     414A      3.240936   415A      3.245233   416A      3.260350  
     417A      3.277597   418A      3.285476   419A      3.290086  
     420A      3.303346   421A      3.324752   422A      3.325991  
     423A      3.336997   424A      3.339498   425A      3.360770  
     426A      3.369409   427A      3.386932   428A      3.391448  
     429A      3.405278   430A      3.416122   431A      3.424771  
     432A      3.428971   433A      3.436468   434A      3.444552  
     435A      3.462863   436A      3.484083   437A      3.491627  
     438A      3.512155   439A      3.539225   440A      3.545849  
     441A      3.571419   442A      3.615649   443A      3.689323  
     444A      3.701740   445A      3.720434   446A      3.735922  
     447A      3.754385   448A      3.758372   449A      3.778896  
     450A      3.808706   451A      3.823940   452A      3.836756  
     453A      3.845564   454A      3.900417   455A      3.938340  
     456A      3.993587   457A      4.162593   458A      4.301583  
     459A      4.341749   460A      4.379978   461A      4.404455  
     462A      4.431955   463A      4.443009   464A      4.453429  
     465A      4.469521   466A      4.485202   467A      4.490748  
     468A      4.504058   469A      4.520375   470A      4.524318  
     471A      4.530268   472A      4.542952   473A      4.545554  
     474A      4.554285   475A      4.570099   476A      4.578114  
     477A      4.584852   478A      4.603225   479A      4.603488  
     480A      4.616360   481A      4.625171   482A      4.634262  
     483A      4.643440   484A      4.664158   485A      4.672894  
     486A      4.675621   487A      4.690145   488A      4.693278  
     489A      4.718889   490A      4.744685   491A      4.746639  
     492A      4.750379   493A      4.755620   494A      4.769343  
     495A      4.780249   496A      4.794304   497A      4.800321  
     498A      4.806390   499A      4.816811   500A      4.826703  
     501A      4.858281   502A      4.869893   503A      4.910082  
     504A      4.959369   505A      4.974509   506A      4.986846  
     507A      5.003496   508A      5.021984   509A      5.031435  
     510A      5.040261   511A      5.060785   512A      5.068617  
     513A      5.087790   514A      5.098522   515A      5.122507  
     516A      5.136940   517A      5.140753   518A      5.165096  
     519A      5.180581   520A      5.186260   521A      5.214107  
     522A      5.230636   523A      5.263144   524A      5.265232  
     525A      5.274587   526A      5.284734   527A      5.292652  
     528A      5.324716   529A      5.403776   530A      5.433400  
     531A      5.450863   532A      5.482942   533A      5.501144  
     534A      5.517413   535A      5.542902   536A      5.549329  
     537A      5.566202   538A      5.593758   539A      5.610008  
     540A      5.627700   541A      5.643640   542A      5.645836  
     543A      5.648184   544A      5.664242   545A      5.705859  
     546A      5.711259   547A      5.712990   548A      5.768952  
     549A      5.783651   550A      5.814118   551A      5.827490  
     552A      5.891926   553A      5.929218   554A      5.949491  
     555A      5.993433   556A      6.016611   557A      6.032668  
     558A      6.165723   559A      6.183751   560A      6.205133  
     561A      6.228715   562A      6.234680   563A      6.298441  
     564A      6.310735   565A      6.329230   566A      6.359413  
     567A      6.390182   568A      6.417709   569A      6.450900  
     570A      6.538467   571A      6.638997   572A      6.669199  
     573A      6.700646   574A      6.726004   575A      6.738232  
     576A      6.748591   577A      6.786410   578A      6.826345  
     579A      6.905614   580A      7.003957   581A      7.048000  
     582A      7.054536   583A      7.151628   584A      7.169364  
     585A      7.230308   586A      7.243218   587A      7.351306  
     588A      7.372782   589A      7.404471   590A      7.482977  
     591A      7.551758   592A      7.704629   593A      7.728948  
     594A      7.733895   595A      7.738383   596A      7.779034  
     597A      7.801576   598A      7.822422   599A      7.838380  
     600A      7.843609   601A      7.879766   602A      7.907910  
     603A      7.930550   604A      7.940598   605A      7.963990  
     606A      8.058960   607A      8.079788   608A      8.087232  
     609A      8.124356   610A      8.127127   611A      8.154516  
     612A      8.156228   613A      8.158421   614A      8.204446  
     615A      8.225466   616A      8.230255   617A      8.249561  
     618A      8.256940   619A      8.301890   620A      8.314849  
     621A      8.339276   622A      8.354372   623A      8.384006  
     624A      8.416637   625A      8.672041   626A      8.687163  
     627A      8.717070   628A      8.726525   629A      8.738007  
     630A      8.756517   631A      8.757293   632A      8.808064  
     633A      8.894673   634A      8.913431   635A      8.938137  
     636A      9.008067   637A      9.017162   638A      9.825097  
     639A      9.827667   640A      9.848809   641A      9.890690  
     642A      9.907162   643A      9.932970   644A      9.961596  
     645A      9.967464   646A      9.988562   647A     10.005368  
     648A     10.022828   649A     10.039227   650A     10.052882  
     651A     10.058283   652A     10.091333   653A     10.093835  
     654A     10.134586   655A     10.140330   656A     10.189019  
     657A     10.262634   658A     10.268481   659A     10.272467  
     660A     10.294003   661A     10.332395   662A     10.519939  
     663A     10.959800   664A     11.039520   665A     11.113972  
     666A     11.213669   667A     11.331666   668A     11.402661  
     669A     11.703122   670A     11.760608   671A     11.775753  
     672A     11.812909   673A     11.824479   674A     11.917505  
     675A     11.949559   676A     12.010613   677A     12.074460  
     678A     12.188587   679A     12.283189   680A     12.482162  
     681A     13.454111   682A     13.504902   683A     13.543065  
     684A     13.650693   685A     13.677214   686A     13.878631  
     687A     13.888718   688A     13.914484   689A     13.960794  
     690A     13.995624   691A     14.019466   692A     14.044216  
     693A     16.985891   694A     31.297793   695A     31.530415  
     696A     31.580897   697A     64.191586   698A     64.255270  
     699A     64.290117   700A     65.210478   701A     65.511752  
     702A     67.197547   703A    198.322938  

    Final Occupation by Irrep:
              A 
    DOCC [     5 ]
    NA   [     5 ]
    NB   [     5 ]

  @DF-RHF Final Energy:   -76.05975045534835

   => Energetics <=

    Nuclear Repulsion Energy =              9.3703946469359742
    One-Electron Energy =                -123.3707641468834453
    Two-Electron Energy =                  37.9406190445991243
    Total Energy =                        -76.0597504553483361

Computation Completed


Properties will be evaluated at   0.000000,   0.000000,   0.000000 [a0]

Properties computed using the SCF density matrix


 Multipole Moments:

 ------------------------------------------------------------------------------------
     Multipole            Electronic (a.u.)      Nuclear  (a.u.)        Total (a.u.)
 ------------------------------------------------------------------------------------

 L = 1.  Multiply by 2.5417464519 to convert [e a0] to [Debye]
 Dipole X            :        -40.5737114           41.2630827            0.6893713
 Dipole Y            :        -24.0851100           23.9686947           -0.1164153
 Dipole Z            :         27.5330743          -27.3622101            0.1708642
 Magnitude           :                                                    0.7197082

 ------------------------------------------------------------------------------------

*** tstop() called on moses-razer at Wed Jan 24 19:48:11 2024
Module time:
	user time   =      95.89 seconds =       1.60 minutes
	system time =       3.89 seconds =       0.06 minutes
	total time  =         24 seconds =       0.40 minutes
Total time:
	user time   =      95.89 seconds =       1.60 minutes
	system time =       3.89 seconds =       0.06 minutes
	total time  =         24 seconds =       0.40 minutes

*** tstart() called on moses-razer
*** at Wed Jan 24 19:48:11 2024


  //>>>>>>>>>>>>>>>>>>>>>>>>>>>>>>>>>>>//
  //               DFMP2               //
  //<<<<<<<<<<<<<<<<<<<<<<<<<<<<<<<<<<<//

   => Loading Basis Set <=

    Name: (AUG-CC-PVTZ AUX)
    Role: RIFIT
    Keyword: DF_BASIS_MP2
    atoms 1                                          entry K          line  1282 file /home/kchung25/anaconda3/envs/p415env/share/psi4/basis/def2-qzvpp-ri.gbs 
    atoms 2, 5, 8, 11, 14, 17, 20                    entry O          line   264 file /home/kchung25/anaconda3/envs/p415env/share/psi4/basis/aug-cc-pvtz-ri.gbs 
    atoms 3-4, 6-7, 9-10, 12-13, 15-16, 18-19, 21-22 entry H          line    30 file /home/kchung25/anaconda3/envs/p415env/share/psi4/basis/aug-cc-pvtz-ri.gbs 

	 --------------------------------------------------------
	                          DF-MP2                         
	      2nd-Order Density-Fitted Moller-Plesset Theory     
	              RMP2 Wavefunction,   6 Threads             
	                                                         
	        Rob Parrish, Justin Turney, Andy Simmonett,      
	           Ed Hohenstein, and C. David Sherrill          
	 --------------------------------------------------------

   => Auxiliary Basis Set <=

  Basis Set: (AUG-CC-PVTZ AUX)
    Blend: AUG-CC-PVTZ-RI + DEF2-QZVPP-RI
    Number of shells: 441
    Number of basis functions: 1585
    Number of Cartesian functions: 1984
    Spherical Harmonics?: true
    Max angular momentum: 4

	 --------------------------------------------------------
	                 NBF =   703, NAUX =  1585
	 --------------------------------------------------------
	   CLASS    FOCC     OCC    AOCC    AVIR     VIR    FVIR
	   PAIRS       0       5       5     698     698       0
	 --------------------------------------------------------

	-----------------------------------------------------------
	 ==================> DF-MP2 Energies <==================== 
	-----------------------------------------------------------
	 Reference Energy          =     -76.0597504553483503 [Eh]
	 Singles Energy            =      -0.0000000000000000 [Eh]
	 Same-Spin Energy          =      -0.0679811707261644 [Eh]
	 Opposite-Spin Energy      =      -0.2143519569508819 [Eh]
	 Correlation Energy        =      -0.2823331276770463 [Eh]
	 Total Energy              =     -76.3420835830253992 [Eh]
	-----------------------------------------------------------
	 ================> DF-SCS-MP2 Energies <================== 
	-----------------------------------------------------------
	 SCS Same-Spin Scale       =       0.3333333333333333 [-]
	 SCS Opposite-Spin Scale   =       1.2000000000000000 [-]
	 SCS Same-Spin Energy      =      -0.0226603902420548 [Eh]
	 SCS Opposite-Spin Energy  =      -0.2572223483410583 [Eh]
	 SCS Correlation Energy    =      -0.2798827385831131 [Eh]
	 SCS Total Energy          =     -76.3396331939314621 [Eh]
	-----------------------------------------------------------


*** tstop() called on moses-razer at Wed Jan 24 19:48:23 2024
Module time:
	user time   =      32.72 seconds =       0.55 minutes
	system time =       2.38 seconds =       0.04 minutes
	total time  =         12 seconds =       0.20 minutes
Total time:
	user time   =     128.61 seconds =       2.14 minutes
	system time =       6.27 seconds =       0.10 minutes
	total time  =         36 seconds =       0.60 minutes

    Psi4 stopped on: Wednesday, 24 January 2024 07:48PM
    Psi4 wall time for execution: 0:00:36.19

*** Psi4 exiting successfully. Buy a developer a beer!
