
    -----------------------------------------------------------------------
          Psi4: An Open-Source Ab Initio Electronic Structure Package
                               Psi4 1.9 release

                         Git: Rev {} zzzzzzz 


    D. G. A. Smith, L. A. Burns, A. C. Simmonett, R. M. Parrish,
    M. C. Schieber, R. Galvelis, P. Kraus, H. Kruse, R. Di Remigio,
    A. Alenaizan, A. M. James, S. Lehtola, J. P. Misiewicz, M. Scheurer,
    R. A. Shaw, J. B. Schriber, Y. Xie, Z. L. Glick, D. A. Sirianni,
    J. S. O'Brien, J. M. Waldrop, A. Kumar, E. G. Hohenstein,
    B. P. Pritchard, B. R. Brooks, H. F. Schaefer III, A. Yu. Sokolov,
    K. Patkowski, A. E. DePrince III, U. Bozkaya, R. A. King,
    F. A. Evangelista, J. M. Turney, T. D. Crawford, C. D. Sherrill,
    J. Chem. Phys. 152(18) 184108 (2020). https://doi.org/10.1063/5.0006002

                            Additional Code Authors
    E. T. Seidl, C. L. Janssen, E. F. Valeev, M. L. Leininger,
    J. F. Gonthier, R. M. Richard, H. R. McAlexander, M. Saitow, X. Wang,
    P. Verma, M. H. Lechner, A. Jiang, S. Behnle, A. G. Heide,
    M. F. Herbst, and D. L. Poole

             Previous Authors, Complete List of Code Contributors,
                       and Citations for Specific Modules
    https://github.com/psi4/psi4/blob/master/codemeta.json
    https://github.com/psi4/psi4/graphs/contributors
    http://psicode.org/psi4manual/master/introduction.html#citing-psifour

    -----------------------------------------------------------------------


    Psi4 started on: Wednesday, 24 January 2024 04:52PM

    Process ID: 1242492
    Host:       moses-razer
    PSIDATADIR: /home/kchung25/anaconda3/envs/psi4_19/share/psi4
    Memory:     500.0 MiB
    Threads:    6
    
  ==> Input File <==

--------------------------------------------------------------------------
MEMORY 60 GB

molecule dimer {
0 1
Gh(K)      0.000000     0.000000     0.000000
Gh(O)      0.934950     1.557658     1.866682
Gh(H)      1.223641     2.403238     1.526633
Gh(H)      1.560546     1.275463     2.571452
Gh(O)     -0.413699    -2.204341    -1.603818
Gh(H)     -1.436891    -2.151326    -1.552654
Gh(H)     -0.309238    -2.351733    -2.534913
Gh(O)      2.387388    -0.706598     0.434979
Gh(H)      3.112159    -1.260928     0.324550
Gh(H)      2.611801    -0.158530     1.180506
Gh(O)     -2.888982    -0.504542     0.112087
Gh(H)     -3.193254    -0.834635     0.984426
Gh(H)     -3.583834     0.130394    -0.063180
Gh(O)      2.029999     0.579035    -1.935349
Gh(H)      2.782212     0.571319    -1.253322
Gh(H)      2.354613     1.285694    -2.436344
O         -0.653789    -1.945918     2.055554
H         -0.923902    -1.843674     2.940345
H         -1.151574    -2.735000     1.778164

units ang
no_reorient
no_com
symmetry c1
}

set {
basis        aug-cc-pVTZ
scf_type     df
}

energy("mp2")
--------------------------------------------------------------------------

  Memory set to  55.879 GiB by Python driver.

Scratch directory: /scratch/
   => Libint2 <=

    Primary   basis highest AM E, G, H:  5, 4, 3
    Auxiliary basis highest AM E, G, H:  6, 5, 4
    Onebody   basis highest AM E, G, H:  6, 5, 4
    Solid Harmonics ordering:            gaussian

*** tstart() called on moses-razer
*** at Wed Jan 24 16:52:17 2024

   => Loading Basis Set <=

    Name: AUG-CC-PVTZ
    Role: ORBITAL
    Keyword: BASIS
    atoms 1                                   entry K          line  1152 file /home/kchung25/anaconda3/envs/p415env/share/psi4/basis/aug-cc-pvtz.gbs 
    atoms 2, 5, 8, 11, 14, 17                 entry O          line   331 file /home/kchung25/anaconda3/envs/p415env/share/psi4/basis/aug-cc-pvtz.gbs 
    atoms 3-4, 6-7, 9-10, 12-13, 15-16, 18-19 entry H          line    40 file /home/kchung25/anaconda3/envs/p415env/share/psi4/basis/aug-cc-pvtz.gbs 


         ---------------------------------------------------------
                                   SCF
               by Justin Turney, Rob Parrish, Andy Simmonett
                          and Daniel G. A. Smith
                              RHF Reference
                        6 Threads,  57220 MiB Core
         ---------------------------------------------------------

  ==> Geometry <==

    Molecular point group: c1
    Full point group: C1

    Geometry (in Angstrom), charge = 0, multiplicity = 1:

       Center              X                  Y                   Z               Mass       
    ------------   -----------------  -----------------  -----------------  -----------------
      Gh(K)           0.000000000000     0.000000000000     0.000000000000    38.963706486400
      Gh(O)           0.934950000000     1.557658000000     1.866682000000    15.994914619570
      Gh(H)           1.223641000000     2.403238000000     1.526633000000     1.007825032230
      Gh(H)           1.560546000000     1.275463000000     2.571452000000     1.007825032230
      Gh(O)          -0.413699000000    -2.204341000000    -1.603818000000    15.994914619570
      Gh(H)          -1.436891000000    -2.151326000000    -1.552654000000     1.007825032230
      Gh(H)          -0.309238000000    -2.351733000000    -2.534913000000     1.007825032230
      Gh(O)           2.387388000000    -0.706598000000     0.434979000000    15.994914619570
      Gh(H)           3.112159000000    -1.260928000000     0.324550000000     1.007825032230
      Gh(H)           2.611801000000    -0.158530000000     1.180506000000     1.007825032230
      Gh(O)          -2.888982000000    -0.504542000000     0.112087000000    15.994914619570
      Gh(H)          -3.193254000000    -0.834635000000     0.984426000000     1.007825032230
      Gh(H)          -3.583834000000     0.130394000000    -0.063180000000     1.007825032230
      Gh(O)           2.029999000000     0.579035000000    -1.935349000000    15.994914619570
      Gh(H)           2.782212000000     0.571319000000    -1.253322000000     1.007825032230
      Gh(H)           2.354613000000     1.285694000000    -2.436344000000     1.007825032230
         O           -0.653789000000    -1.945918000000     2.055554000000    15.994914619570
         H           -0.923902000000    -1.843674000000     2.940345000000     1.007825032230
         H           -1.151574000000    -2.735000000000     1.778164000000     1.007825032230

  Running in c1 symmetry.

  Rotational constants: A =      0.03765  B =      0.02820  C =      0.02422 [cm^-1]
  Rotational constants: A =   1128.76539  B =    845.47603  C =    726.17564 [MHz]
  Nuclear repulsion =    9.254862932943711

  Charge       = 0
  Multiplicity = 1
  Electrons    = 10
  Nalpha       = 5
  Nbeta        = 5

  ==> Algorithm <==

  SCF Algorithm Type is DF.
  DIIS enabled.
  MOM disabled.
  Fractional occupation disabled.
  Guess Type is SAD.
  Energy threshold   = 1.00e-08
  Density threshold  = 1.00e-08
  Integral threshold = 1.00e-12

  ==> Primary Basis <==

  Basis Set: AUG-CC-PVTZ
    Blend: AUG-CC-PVTZ
    Number of shells: 211
    Number of basis functions: 611
    Number of Cartesian functions: 699
    Spherical Harmonics?: true
    Max angular momentum: 3

   => Loading Basis Set <=

    Name: (AUG-CC-PVTZ AUX)
    Role: JKFIT
    Keyword: DF_BASIS_SCF
    atoms 1                                   entry K          line  1152 file /home/kchung25/anaconda3/envs/p415env/share/psi4/basis/def2-universal-jkfit.gbs 
    atoms 2, 5, 8, 11, 14, 17                 entry O          line   286 file /home/kchung25/anaconda3/envs/p415env/share/psi4/basis/aug-cc-pvtz-jkfit.gbs 
    atoms 3-4, 6-7, 9-10, 12-13, 15-16, 18-19 entry H          line    70 file /home/kchung25/anaconda3/envs/p415env/share/psi4/basis/aug-cc-pvtz-jkfit.gbs 

  ==> Integral Setup <==

  DFHelper Memory: AOs need 3.352 GiB; user supplied 41.910 GiB. 
  Using in-core AOs.

  ==> MemDFJK: Density-Fitted J/K Matrices <==

    J tasked:                   Yes
    K tasked:                   Yes
    wK tasked:                   No
    OpenMP threads:               6
    Memory [MiB]:             42915
    Algorithm:                 Core
    Schwarz Cutoff:           1E-12
    Mask sparsity (%):      12.6143
    Fitting Condition:        1E-10

   => Auxiliary Basis Set <=

  Basis Set: (AUG-CC-PVTZ AUX)
    Blend: AUG-CC-PVTZ-JKFIT + DEF2-UNIVERSAL-JKFIT
    Number of shells: 392
    Number of basis functions: 1336
    Number of Cartesian functions: 1649
    Spherical Harmonics?: true
    Max angular momentum: 4

  Minimum eigenvalue in the overlap matrix is 3.1180485861E-05.
  Reciprocal condition number of the overlap matrix is 2.0843962190E-06.
    Using symmetric orthogonalization.

  ==> Pre-Iterations <==

  SCF Guess: Superposition of Atomic Densities via on-the-fly atomic UHF (no occupation information).

   -------------------------
    Irrep   Nso     Nmo    
   -------------------------
     A        611     611 
   -------------------------
    Total     611     611
   -------------------------

  ==> Iterations <==

                           Total Energy        Delta E     RMS |[F,P]|

   @DF-RHF iter SAD:   -75.48585533178301   -7.54859e+01   0.00000e+00 
   @DF-RHF iter   1:   -75.97515536470414   -4.89300e-01   7.69161e-04 DIIS/ADIIS
   @DF-RHF iter   2:   -76.02812860018375   -5.29732e-02   5.21296e-04 DIIS/ADIIS
   @DF-RHF iter   3:   -76.05930677910206   -3.11782e-02   3.53780e-05 DIIS
   @DF-RHF iter   4:   -76.05968807139564   -3.81292e-04   8.36086e-06 DIIS
   @DF-RHF iter   5:   -76.05971135098567   -2.32796e-05   1.91053e-06 DIIS
   @DF-RHF iter   6:   -76.05971326851935   -1.91753e-06   4.17245e-07 DIIS
   @DF-RHF iter   7:   -76.05971336894538   -1.00426e-07   7.40705e-08 DIIS
   @DF-RHF iter   8:   -76.05971337172963   -2.78425e-09   1.23426e-08 DIIS
   @DF-RHF iter   9:   -76.05971337178985   -6.02256e-11   2.98814e-09 DIIS
  Energy and wave function converged.


  ==> Post-Iterations <==

    Orbital Energies [Eh]
    ---------------------

    Doubly Occupied:                                                      

       1A    -20.567015     2A     -1.358386     3A     -0.716203  
       4A     -0.590250     5A     -0.511464  

    Virtual:                                                              

       6A      0.006787     7A      0.009584     8A      0.010119  
       9A      0.010650    10A      0.017690    11A      0.018048  
      12A      0.018346    13A      0.018900    14A      0.019021  
      15A      0.031376    16A      0.034527    17A      0.036487  
      18A      0.039530    19A      0.054034    20A      0.056439  
      21A      0.057598    22A      0.061315    23A      0.062292  
      24A      0.069875    25A      0.072408    26A      0.073247  
      27A      0.074221    28A      0.077621    29A      0.080838  
      30A      0.084508    31A      0.090573    32A      0.092295  
      33A      0.094699    34A      0.098361    35A      0.104288  
      36A      0.108743    37A      0.115137    38A      0.119366  
      39A      0.135408    40A      0.147635    41A      0.150504  
      42A      0.152594    43A      0.158710    44A      0.166927  
      45A      0.168741    46A      0.174304    47A      0.178717  
      48A      0.181877    49A      0.183661    50A      0.187539  
      51A      0.192860    52A      0.193842    53A      0.200626  
      54A      0.209161    55A      0.215117    56A      0.216916  
      57A      0.219991    58A      0.228396    59A      0.231051  
      60A      0.233838    61A      0.236488    62A      0.247552  
      63A      0.251824    64A      0.256774    65A      0.259138  
      66A      0.267210    67A      0.276970    68A      0.283835  
      69A      0.285967    70A      0.290542    71A      0.298993  
      72A      0.307118    73A      0.310427    74A      0.324412  
      75A      0.329023    76A      0.331446    77A      0.338799  
      78A      0.350931    79A      0.352411    80A      0.355020  
      81A      0.359908    82A      0.365172    83A      0.366769  
      84A      0.371640    85A      0.376202    86A      0.384703  
      87A      0.394206    88A      0.400821    89A      0.401330  
      90A      0.405375    91A      0.412428    92A      0.415184  
      93A      0.419271    94A      0.427346    95A      0.430512  
      96A      0.435890    97A      0.440506    98A      0.443137  
      99A      0.453118   100A      0.455632   101A      0.462195  
     102A      0.463509   103A      0.464892   104A      0.470355  
     105A      0.477811   106A      0.479458   107A      0.482893  
     108A      0.484117   109A      0.487393   110A      0.492704  
     111A      0.497708   112A      0.501764   113A      0.504221  
     114A      0.512720   115A      0.515351   116A      0.521100  
     117A      0.527928   118A      0.533276   119A      0.538323  
     120A      0.553114   121A      0.555581   122A      0.563853  
     123A      0.567881   124A      0.584799   125A      0.593453  
     126A      0.597520   127A      0.604798   128A      0.613184  
     129A      0.630005   130A      0.632578   131A      0.656146  
     132A      0.666949   133A      0.688223   134A      0.700813  
     135A      0.712659   136A      0.721259   137A      0.735321  
     138A      0.743938   139A      0.756079   140A      0.763103  
     141A      0.777520   142A      0.786268   143A      0.795091  
     144A      0.801360   145A      0.804135   146A      0.811477  
     147A      0.818732   148A      0.823189   149A      0.831660  
     150A      0.831802   151A      0.843358   152A      0.847728  
     153A      0.862458   154A      0.866681   155A      0.870788  
     156A      0.882193   157A      0.885399   158A      0.895512  
     159A      0.902777   160A      0.909424   161A      0.910300  
     162A      0.915877   163A      0.924375   164A      0.928110  
     165A      0.933470   166A      0.938180   167A      0.942928  
     168A      0.944895   169A      0.947936   170A      0.952634  
     171A      0.959059   172A      0.961019   173A      0.969561  
     174A      0.974749   175A      0.980608   176A      0.988765  
     177A      1.001930   178A      1.002683   179A      1.006267  
     180A      1.012579   181A      1.018231   182A      1.024021  
     183A      1.030960   184A      1.037907   185A      1.038752  
     186A      1.056353   187A      1.057627   188A      1.065518  
     189A      1.068432   190A      1.070197   191A      1.078343  
     192A      1.090051   193A      1.099163   194A      1.101088  
     195A      1.106277   196A      1.111848   197A      1.115991  
     198A      1.128021   199A      1.130758   200A      1.134121  
     201A      1.142994   202A      1.145389   203A      1.156672  
     204A      1.162114   205A      1.167772   206A      1.176964  
     207A      1.183375   208A      1.188496   209A      1.192563  
     210A      1.195608   211A      1.204306   212A      1.207777  
     213A      1.209389   214A      1.229316   215A      1.234010  
     216A      1.240907   217A      1.249845   218A      1.253568  
     219A      1.257981   220A      1.266842   221A      1.269137  
     222A      1.281290   223A      1.289391   224A      1.292392  
     225A      1.299151   226A      1.305531   227A      1.314768  
     228A      1.325429   229A      1.331456   230A      1.338344  
     231A      1.347016   232A      1.363391   233A      1.375606  
     234A      1.377442   235A      1.383964   236A      1.389178  
     237A      1.396960   238A      1.407013   239A      1.418681  
     240A      1.425860   241A      1.442766   242A      1.450255  
     243A      1.468110   244A      1.481399   245A      1.498934  
     246A      1.504061   247A      1.525765   248A      1.535886  
     249A      1.547447   250A      1.553340   251A      1.583207  
     252A      1.598648   253A      1.609527   254A      1.613591  
     255A      1.644498   256A      1.659543   257A      1.675508  
     258A      1.697640   259A      1.714870   260A      1.738789  
     261A      1.755804   262A      1.759848   263A      1.766929  
     264A      1.780617   265A      1.799936   266A      1.815786  
     267A      1.827445   268A      1.838196   269A      1.841708  
     270A      1.846875   271A      1.857065   272A      1.867121  
     273A      1.877959   274A      1.882167   275A      1.897680  
     276A      1.902765   277A      1.913657   278A      1.917562  
     279A      1.920451   280A      1.935600   281A      1.941850  
     282A      1.946431   283A      1.949835   284A      1.972649  
     285A      1.994222   286A      2.010921   287A      2.018011  
     288A      2.035169   289A      2.047305   290A      2.082508  
     291A      2.142157   292A      2.157190   293A      2.175723  
     294A      2.207327   295A      2.240938   296A      2.278884  
     297A      2.306157   298A      2.346910   299A      2.363947  
     300A      2.382838   301A      2.414941   302A      2.424345  
     303A      2.436677   304A      2.444011   305A      2.445612  
     306A      2.450309   307A      2.473823   308A      2.495065  
     309A      2.508467   310A      2.520917   311A      2.529656  
     312A      2.543557   313A      2.551057   314A      2.560819  
     315A      2.574881   316A      2.576816   317A      2.582641  
     318A      2.590224   319A      2.600802   320A      2.614654  
     321A      2.619438   322A      2.623686   323A      2.635921  
     324A      2.639572   325A      2.645148   326A      2.652502  
     327A      2.661253   328A      2.675843   329A      2.684460  
     330A      2.697692   331A      2.707572   332A      2.718614  
     333A      2.731194   334A      2.743977   335A      2.749395  
     336A      2.768748   337A      2.771054   338A      2.784350  
     339A      2.804784   340A      2.825637   341A      2.837427  
     342A      2.853879   343A      2.869350   344A      2.878056  
     345A      2.886140   346A      2.896535   347A      2.910675  
     348A      2.921825   349A      2.933756   350A      2.943110  
     351A      2.945609   352A      2.975449   353A      2.984405  
     354A      3.006552   355A      3.018859   356A      3.021691  
     357A      3.054726   358A      3.073612   359A      3.086529  
     360A      3.142774   361A      3.180766   362A      3.197230  
     363A      3.212005   364A      3.232258   365A      3.241533  
     366A      3.250047   367A      3.269278   368A      3.278045  
     369A      3.299640   370A      3.309890   371A      3.329813  
     372A      3.345443   373A      3.356948   374A      3.366853  
     375A      3.378852   376A      3.383284   377A      3.405178  
     378A      3.408454   379A      3.416822   380A      3.440316  
     381A      3.448468   382A      3.461029   383A      3.474989  
     384A      3.534580   385A      3.581084   386A      3.607909  
     387A      3.616924   388A      3.647392   389A      3.664956  
     390A      3.727451   391A      3.738798   392A      3.757082  
     393A      3.780981   394A      3.789206   395A      3.808432  
     396A      3.824918   397A      3.834530   398A      3.897215  
     399A      3.914417   400A      4.096220   401A      4.224284  
     402A      4.274210   403A      4.309424   404A      4.344410  
     405A      4.402882   406A      4.437275   407A      4.445765  
     408A      4.459073   409A      4.467833   410A      4.473004  
     411A      4.478319   412A      4.485637   413A      4.492060  
     414A      4.513977   415A      4.527925   416A      4.536054  
     417A      4.548354   418A      4.563246   419A      4.579836  
     420A      4.585486   421A      4.590626   422A      4.611965  
     423A      4.631446   424A      4.666697   425A      4.673843  
     426A      4.687320   427A      4.696883   428A      4.705203  
     429A      4.724595   430A      4.737992   431A      4.750197  
     432A      4.768312   433A      4.777809   434A      4.784399  
     435A      4.808349   436A      4.828482   437A      4.852354  
     438A      4.862189   439A      4.880768   440A      4.908898  
     441A      4.928090   442A      4.952278   443A      4.960533  
     444A      4.977167   445A      4.981854   446A      4.995144  
     447A      5.012621   448A      5.027463   449A      5.037541  
     450A      5.075495   451A      5.086080   452A      5.106044  
     453A      5.117006   454A      5.165585   455A      5.189218  
     456A      5.209702   457A      5.217761   458A      5.270114  
     459A      5.287996   460A      5.309952   461A      5.347726  
     462A      5.417214   463A      5.432759   464A      5.443194  
     465A      5.466153   466A      5.491869   467A      5.503349  
     468A      5.517945   469A      5.582786   470A      5.588027  
     471A      5.593009   472A      5.612439   473A      5.645465  
     474A      5.678541   475A      5.703222   476A      5.709510  
     477A      5.736368   478A      5.767653   479A      5.806718  
     480A      5.814568   481A      5.857412   482A      5.872192  
     483A      5.888098   484A      5.930644   485A      5.963805  
     486A      6.044810   487A      6.146271   488A      6.180037  
     489A      6.205043   490A      6.235093   491A      6.307712  
     492A      6.324568   493A      6.329005   494A      6.353904  
     495A      6.359876   496A      6.375670   497A      6.503021  
     498A      6.558754   499A      6.606676   500A      6.624766  
     501A      6.656353   502A      6.749775   503A      6.781384  
     504A      6.901179   505A      6.992601   506A      7.057731  
     507A      7.078111   508A      7.097304   509A      7.167769  
     510A      7.186527   511A      7.304568   512A      7.322794  
     513A      7.347212   514A      7.383546   515A      7.438667  
     516A      7.495163   517A      7.640859   518A      7.706703  
     519A      7.715405   520A      7.737361   521A      7.754555  
     522A      7.789245   523A      7.836212   524A      7.861297  
     525A      7.892442   526A      7.917956   527A      7.947498  
     528A      7.992432   529A      8.018502   530A      8.028999  
     531A      8.034451   532A      8.065446   533A      8.070841  
     534A      8.077637   535A      8.106678   536A      8.134873  
     537A      8.257156   538A      8.275346   539A      8.288347  
     540A      8.302326   541A      8.306564   542A      8.321142  
     543A      8.337041   544A      8.390880   545A      8.639689  
     546A      8.692882   547A      8.750944   548A      8.800252  
     549A      8.807206   550A      8.828770   551A      8.859178  
     552A      8.907378   553A      8.913711   554A      9.024482  
     555A      9.093644   556A      9.763108   557A      9.779832  
     558A      9.810577   559A      9.882964   560A      9.935810  
     561A      9.962820   562A      9.973705   563A      9.979241  
     564A     10.005526   565A     10.029408   566A     10.041996  
     567A     10.046468   568A     10.065831   569A     10.075764  
     570A     10.106274   571A     10.217185   572A     10.275532  
     573A     10.286852   574A     10.319249   575A     10.386767  
     576A     10.527137   577A     11.000844   578A     11.103095  
     579A     11.136054   580A     11.220223   581A     11.427607  
     582A     11.707687   583A     11.714186   584A     11.747294  
     585A     11.868482   586A     12.028899   587A     12.043806  
     588A     12.094005   589A     12.176076   590A     12.348634  
     591A     12.639526   592A     13.492368   593A     13.551033  
     594A     13.609577   595A     13.643523   596A     13.859556  
     597A     13.864848   598A     13.913456   599A     13.952983  
     600A     13.985488   601A     13.999602   602A     16.389097  
     603A     31.012540   604A     31.411600   605A     31.590645  
     606A     63.822127   607A     64.573858   608A     64.782221  
     609A     65.225959   610A     67.522603   611A    198.289285  

    Final Occupation by Irrep:
              A 
    DOCC [     5 ]
    NA   [     5 ]
    NB   [     5 ]

  @DF-RHF Final Energy:   -76.05971337178985

   => Energetics <=

    Nuclear Repulsion Energy =              9.2548629329437109
    One-Electron Energy =                -123.1425151055430121
    Two-Electron Energy =                  37.8279388008094486
    Total Energy =                        -76.0597133717898544

Computation Completed


Properties will be evaluated at   0.000000,   0.000000,   0.000000 [a0]

Properties computed using the SCF density matrix


 Multipole Moments:

 ------------------------------------------------------------------------------------
     Multipole            Electronic (a.u.)      Nuclear  (a.u.)        Total (a.u.)
 ------------------------------------------------------------------------------------

 L = 1.  Multiply by 2.5417464519 to convert [e a0] to [Debye]
 Dipole X            :         13.2981106          -13.8059385           -0.5078278
 Dipole Y            :         37.6197483          -38.0704565           -0.4507083
 Dipole Z            :        -39.5831189           39.9921625            0.4090436
 Magnitude           :                                                    0.7926814

 ------------------------------------------------------------------------------------

*** tstop() called on moses-razer at Wed Jan 24 16:52:34 2024
Module time:
	user time   =      64.44 seconds =       1.07 minutes
	system time =       3.16 seconds =       0.05 minutes
	total time  =         17 seconds =       0.28 minutes
Total time:
	user time   =      64.44 seconds =       1.07 minutes
	system time =       3.16 seconds =       0.05 minutes
	total time  =         17 seconds =       0.28 minutes

*** tstart() called on moses-razer
*** at Wed Jan 24 16:52:34 2024


  //>>>>>>>>>>>>>>>>>>>>>>>>>>>>>>>>>>>//
  //               DFMP2               //
  //<<<<<<<<<<<<<<<<<<<<<<<<<<<<<<<<<<<//

   => Loading Basis Set <=

    Name: (AUG-CC-PVTZ AUX)
    Role: RIFIT
    Keyword: DF_BASIS_MP2
    atoms 1                                   entry K          line  1282 file /home/kchung25/anaconda3/envs/p415env/share/psi4/basis/def2-qzvpp-ri.gbs 
    atoms 2, 5, 8, 11, 14, 17                 entry O          line   264 file /home/kchung25/anaconda3/envs/p415env/share/psi4/basis/aug-cc-pvtz-ri.gbs 
    atoms 3-4, 6-7, 9-10, 12-13, 15-16, 18-19 entry H          line    30 file /home/kchung25/anaconda3/envs/p415env/share/psi4/basis/aug-cc-pvtz-ri.gbs 

	 --------------------------------------------------------
	                          DF-MP2                         
	      2nd-Order Density-Fitted Moller-Plesset Theory     
	              RMP2 Wavefunction,   6 Threads             
	                                                         
	        Rob Parrish, Justin Turney, Andy Simmonett,      
	           Ed Hohenstein, and C. David Sherrill          
	 --------------------------------------------------------

   => Auxiliary Basis Set <=

  Basis Set: (AUG-CC-PVTZ AUX)
    Blend: AUG-CC-PVTZ-RI + DEF2-QZVPP-RI
    Number of shells: 385
    Number of basis functions: 1387
    Number of Cartesian functions: 1738
    Spherical Harmonics?: true
    Max angular momentum: 4

	 --------------------------------------------------------
	                 NBF =   611, NAUX =  1387
	 --------------------------------------------------------
	   CLASS    FOCC     OCC    AOCC    AVIR     VIR    FVIR
	   PAIRS       0       5       5     606     606       0
	 --------------------------------------------------------

	-----------------------------------------------------------
	 ==================> DF-MP2 Energies <==================== 
	-----------------------------------------------------------
	 Reference Energy          =     -76.0597133717898544 [Eh]
	 Singles Energy            =      -0.0000000000000000 [Eh]
	 Same-Spin Energy          =      -0.0683379922543263 [Eh]
	 Opposite-Spin Energy      =      -0.2154685169189748 [Eh]
	 Correlation Energy        =      -0.2838065091733011 [Eh]
	 Total Energy              =     -76.3435198809631572 [Eh]
	-----------------------------------------------------------
	 ================> DF-SCS-MP2 Energies <================== 
	-----------------------------------------------------------
	 SCS Same-Spin Scale       =       0.3333333333333333 [-]
	 SCS Opposite-Spin Scale   =       1.2000000000000000 [-]
	 SCS Same-Spin Energy      =      -0.0227793307514421 [Eh]
	 SCS Opposite-Spin Energy  =      -0.2585622203027697 [Eh]
	 SCS Correlation Energy    =      -0.2813415510542118 [Eh]
	 SCS Total Energy          =     -76.3410549228440658 [Eh]
	-----------------------------------------------------------


*** tstop() called on moses-razer at Wed Jan 24 16:52:44 2024
Module time:
	user time   =      24.00 seconds =       0.40 minutes
	system time =       1.78 seconds =       0.03 minutes
	total time  =         10 seconds =       0.17 minutes
Total time:
	user time   =      88.44 seconds =       1.47 minutes
	system time =       4.94 seconds =       0.08 minutes
	total time  =         27 seconds =       0.45 minutes

    Psi4 stopped on: Wednesday, 24 January 2024 04:52PM
    Psi4 wall time for execution: 0:00:26.82

*** Psi4 exiting successfully. Buy a developer a beer!
