
    -----------------------------------------------------------------------
          Psi4: An Open-Source Ab Initio Electronic Structure Package
                               Psi4 1.9 release

                         Git: Rev {} zzzzzzz 


    D. G. A. Smith, L. A. Burns, A. C. Simmonett, R. M. Parrish,
    M. C. Schieber, R. Galvelis, P. Kraus, H. Kruse, R. Di Remigio,
    A. Alenaizan, A. M. James, S. Lehtola, J. P. Misiewicz, M. Scheurer,
    R. A. Shaw, J. B. Schriber, Y. Xie, Z. L. Glick, D. A. Sirianni,
    J. S. O'Brien, J. M. Waldrop, A. Kumar, E. G. Hohenstein,
    B. P. Pritchard, B. R. Brooks, H. F. Schaefer III, A. Yu. Sokolov,
    K. Patkowski, A. E. DePrince III, U. Bozkaya, R. A. King,
    F. A. Evangelista, J. M. Turney, T. D. Crawford, C. D. Sherrill,
    J. Chem. Phys. 152(18) 184108 (2020). https://doi.org/10.1063/5.0006002

                            Additional Code Authors
    E. T. Seidl, C. L. Janssen, E. F. Valeev, M. L. Leininger,
    J. F. Gonthier, R. M. Richard, H. R. McAlexander, M. Saitow, X. Wang,
    P. Verma, M. H. Lechner, A. Jiang, S. Behnle, A. G. Heide,
    M. F. Herbst, and D. L. Poole

             Previous Authors, Complete List of Code Contributors,
                       and Citations for Specific Modules
    https://github.com/psi4/psi4/blob/master/codemeta.json
    https://github.com/psi4/psi4/graphs/contributors
    http://psicode.org/psi4manual/master/introduction.html#citing-psifour

    -----------------------------------------------------------------------


    Psi4 started on: Wednesday, 24 January 2024 05:26PM

    Process ID: 1246078
    Host:       moses-razer
    PSIDATADIR: /home/kchung25/anaconda3/envs/psi4_19/share/psi4
    Memory:     500.0 MiB
    Threads:    6
    
  ==> Input File <==

--------------------------------------------------------------------------
MEMORY 60 GB

molecule dimer {
0 1
Gh(K)      0.000000     0.000000     0.000000
Gh(O)     -0.873977    -0.157326    -2.492460
Gh(H)     -1.740116    -0.052883    -2.878562
Gh(H)     -0.273500     0.375994    -3.026061
Gh(O)      2.608119     0.315616     0.527310
Gh(H)      3.312820    -0.307262     0.594493
Gh(H)      2.932642     0.856303    -0.199126
Gh(O)      0.725977    -2.654096    -0.373484
Gh(H)      1.317561    -2.978209    -1.023598
Gh(H)     -0.110315    -3.095978    -0.542861
O         -2.649027    -1.197370     0.324003
H         -2.756447    -1.934451    -0.241219
H         -2.755054    -1.440674     1.244298
Gh(O)     -1.038712     2.794023    -0.587160
Gh(H)     -1.259782     2.719630    -1.535356
Gh(H)     -1.840414     2.377449    -0.164631

units ang
no_reorient
no_com
symmetry c1
}

set {
basis        aug-cc-pVTZ
scf_type     df
}

energy("mp2")
--------------------------------------------------------------------------

  Memory set to  55.879 GiB by Python driver.

Scratch directory: /scratch/
   => Libint2 <=

    Primary   basis highest AM E, G, H:  5, 4, 3
    Auxiliary basis highest AM E, G, H:  6, 5, 4
    Onebody   basis highest AM E, G, H:  6, 5, 4
    Solid Harmonics ordering:            gaussian

*** tstart() called on moses-razer
*** at Wed Jan 24 17:26:35 2024

   => Loading Basis Set <=

    Name: AUG-CC-PVTZ
    Role: ORBITAL
    Keyword: BASIS
    atoms 1                            entry K          line  1152 file /home/kchung25/anaconda3/envs/p415env/share/psi4/basis/aug-cc-pvtz.gbs 
    atoms 2, 5, 8, 11, 14              entry O          line   331 file /home/kchung25/anaconda3/envs/p415env/share/psi4/basis/aug-cc-pvtz.gbs 
    atoms 3-4, 6-7, 9-10, 12-13, 15-16 entry H          line    40 file /home/kchung25/anaconda3/envs/p415env/share/psi4/basis/aug-cc-pvtz.gbs 


         ---------------------------------------------------------
                                   SCF
               by Justin Turney, Rob Parrish, Andy Simmonett
                          and Daniel G. A. Smith
                              RHF Reference
                        6 Threads,  57220 MiB Core
         ---------------------------------------------------------

  ==> Geometry <==

    Molecular point group: c1
    Full point group: C1

    Geometry (in Angstrom), charge = 0, multiplicity = 1:

       Center              X                  Y                   Z               Mass       
    ------------   -----------------  -----------------  -----------------  -----------------
      Gh(K)           0.000000000000     0.000000000000     0.000000000000    38.963706486400
      Gh(O)          -0.873977000000    -0.157326000000    -2.492460000000    15.994914619570
      Gh(H)          -1.740116000000    -0.052883000000    -2.878562000000     1.007825032230
      Gh(H)          -0.273500000000     0.375994000000    -3.026061000000     1.007825032230
      Gh(O)           2.608119000000     0.315616000000     0.527310000000    15.994914619570
      Gh(H)           3.312820000000    -0.307262000000     0.594493000000     1.007825032230
      Gh(H)           2.932642000000     0.856303000000    -0.199126000000     1.007825032230
      Gh(O)           0.725977000000    -2.654096000000    -0.373484000000    15.994914619570
      Gh(H)           1.317561000000    -2.978209000000    -1.023598000000     1.007825032230
      Gh(H)          -0.110315000000    -3.095978000000    -0.542861000000     1.007825032230
         O           -2.649027000000    -1.197370000000     0.324003000000    15.994914619570
         H           -2.756447000000    -1.934451000000    -0.241219000000     1.007825032230
         H           -2.755054000000    -1.440674000000     1.244298000000     1.007825032230
      Gh(O)          -1.038712000000     2.794023000000    -0.587160000000    15.994914619570
      Gh(H)          -1.259782000000     2.719630000000    -1.535356000000     1.007825032230
      Gh(H)          -1.840414000000     2.377449000000    -0.164631000000     1.007825032230

  Running in c1 symmetry.

  Rotational constants: A =      0.04071  B =      0.03764  C =      0.02714 [cm^-1]
  Rotational constants: A =   1220.44326  B =   1128.36997  C =    813.71922 [MHz]
  Nuclear repulsion =    9.285493196926451

  Charge       = 0
  Multiplicity = 1
  Electrons    = 10
  Nalpha       = 5
  Nbeta        = 5

  ==> Algorithm <==

  SCF Algorithm Type is DF.
  DIIS enabled.
  MOM disabled.
  Fractional occupation disabled.
  Guess Type is SAD.
  Energy threshold   = 1.00e-08
  Density threshold  = 1.00e-08
  Integral threshold = 1.00e-12

  ==> Primary Basis <==

  Basis Set: AUG-CC-PVTZ
    Blend: AUG-CC-PVTZ
    Number of shells: 179
    Number of basis functions: 519
    Number of Cartesian functions: 594
    Spherical Harmonics?: true
    Max angular momentum: 3

   => Loading Basis Set <=

    Name: (AUG-CC-PVTZ AUX)
    Role: JKFIT
    Keyword: DF_BASIS_SCF
    atoms 1                            entry K          line  1152 file /home/kchung25/anaconda3/envs/p415env/share/psi4/basis/def2-universal-jkfit.gbs 
    atoms 2, 5, 8, 11, 14              entry O          line   286 file /home/kchung25/anaconda3/envs/p415env/share/psi4/basis/aug-cc-pvtz-jkfit.gbs 
    atoms 3-4, 6-7, 9-10, 12-13, 15-16 entry H          line    70 file /home/kchung25/anaconda3/envs/p415env/share/psi4/basis/aug-cc-pvtz-jkfit.gbs 

  ==> Integral Setup <==

  DFHelper Memory: AOs need 2.098 GiB; user supplied 41.910 GiB. 
  Using in-core AOs.

  ==> MemDFJK: Density-Fitted J/K Matrices <==

    J tasked:                   Yes
    K tasked:                   Yes
    wK tasked:                   No
    OpenMP threads:               6
    Memory [MiB]:             42915
    Algorithm:                 Core
    Schwarz Cutoff:           1E-12
    Mask sparsity (%):      11.6372
    Fitting Condition:        1E-10

   => Auxiliary Basis Set <=

  Basis Set: (AUG-CC-PVTZ AUX)
    Blend: AUG-CC-PVTZ-JKFIT + DEF2-UNIVERSAL-JKFIT
    Number of shells: 334
    Number of basis functions: 1140
    Number of Cartesian functions: 1408
    Spherical Harmonics?: true
    Max angular momentum: 4

  Minimum eigenvalue in the overlap matrix is 7.9428598394E-05.
  Reciprocal condition number of the overlap matrix is 5.8647532069E-06.
    Using symmetric orthogonalization.

  ==> Pre-Iterations <==

  SCF Guess: Superposition of Atomic Densities via on-the-fly atomic UHF (no occupation information).

   -------------------------
    Irrep   Nso     Nmo    
   -------------------------
     A        519     519 
   -------------------------
    Total     519     519
   -------------------------

  ==> Iterations <==

                           Total Energy        Delta E     RMS |[F,P]|

   @DF-RHF iter SAD:   -75.48342080862187   -7.54834e+01   0.00000e+00 
   @DF-RHF iter   1:   -75.97691307573932   -4.93492e-01   9.05955e-04 DIIS/ADIIS
   @DF-RHF iter   2:   -76.02962751211373   -5.27144e-02   6.05074e-04 DIIS/ADIIS
   @DF-RHF iter   3:   -76.05976177923274   -3.01343e-02   4.09927e-05 DIIS
   @DF-RHF iter   4:   -76.06014065944159   -3.78880e-04   9.59033e-06 DIIS
   @DF-RHF iter   5:   -76.06016282371633   -2.21643e-05   2.14220e-06 DIIS
   @DF-RHF iter   6:   -76.06016462851578   -1.80480e-06   4.82493e-07 DIIS
   @DF-RHF iter   7:   -76.06016473137925   -1.02863e-07   9.43862e-08 DIIS
   @DF-RHF iter   8:   -76.06016473490671   -3.52746e-09   1.52316e-08 DIIS
   @DF-RHF iter   9:   -76.06016473497858   -7.18785e-11   3.70164e-09 DIIS
  Energy and wave function converged.


  ==> Post-Iterations <==

    Orbital Energies [Eh]
    ---------------------

    Doubly Occupied:                                                      

       1A    -20.561945     2A     -1.354300     3A     -0.737176  
       4A     -0.573150     5A     -0.509188  

    Virtual:                                                              

       6A      0.007023     7A      0.009468     8A      0.009694  
       9A      0.010831    10A      0.017836    11A      0.018168  
      12A      0.018591    13A      0.018925    14A      0.019018  
      15A      0.031689    16A      0.033828    17A      0.035072  
      18A      0.039549    19A      0.055464    20A      0.057173  
      21A      0.059457    22A      0.061141    23A      0.061435  
      24A      0.073530    25A      0.075390    26A      0.075915  
      27A      0.078657    28A      0.079890    29A      0.081626  
      30A      0.082533    31A      0.084999    32A      0.096719  
      33A      0.101167    34A      0.104642    35A      0.113533  
      36A      0.129544    37A      0.134676    38A      0.148750  
      39A      0.149981    40A      0.153722    41A      0.155725  
      42A      0.162530    43A      0.173060    44A      0.176534  
      45A      0.178004    46A      0.182004    47A      0.184228  
      48A      0.189731    49A      0.191854    50A      0.197451  
      51A      0.202958    52A      0.210532    53A      0.212126  
      54A      0.213286    55A      0.222945    56A      0.226075  
      57A      0.230622    58A      0.239106    59A      0.256457  
      60A      0.258137    61A      0.259974    62A      0.268310  
      63A      0.271206    64A      0.279142    65A      0.289667  
      66A      0.294276    67A      0.299374    68A      0.305196  
      69A      0.315606    70A      0.323519    71A      0.332077  
      72A      0.334470    73A      0.345980    74A      0.349329  
      75A      0.359883    76A      0.363493    77A      0.368034  
      78A      0.372149    79A      0.375171    80A      0.377304  
      81A      0.387049    82A      0.395918    83A      0.399110  
      84A      0.401587    85A      0.409280    86A      0.412299  
      87A      0.419991    88A      0.425514    89A      0.430742  
      90A      0.436525    91A      0.440292    92A      0.447929  
      93A      0.451241    94A      0.456461    95A      0.457636  
      96A      0.463109    97A      0.467284    98A      0.471815  
      99A      0.475525   100A      0.487501   101A      0.492321  
     102A      0.493973   103A      0.501690   104A      0.502834  
     105A      0.505278   106A      0.519857   107A      0.523969  
     108A      0.531975   109A      0.542096   110A      0.546985  
     111A      0.554782   112A      0.564203   113A      0.570154  
     114A      0.576576   115A      0.601208   116A      0.612377  
     117A      0.620312   118A      0.642884   119A      0.661104  
     120A      0.699790   121A      0.703144   122A      0.715622  
     123A      0.722527   124A      0.742021   125A      0.752572  
     126A      0.757062   127A      0.775725   128A      0.785471  
     129A      0.791989   130A      0.798980   131A      0.808219  
     132A      0.814381   133A      0.817749   134A      0.831036  
     135A      0.835789   136A      0.839719   137A      0.851340  
     138A      0.860074   139A      0.869644   140A      0.874028  
     141A      0.878127   142A      0.878707   143A      0.883019  
     144A      0.889117   145A      0.899335   146A      0.907648  
     147A      0.910309   148A      0.915923   149A      0.922958  
     150A      0.928942   151A      0.942815   152A      0.943941  
     153A      0.945746   154A      0.955320   155A      0.964646  
     156A      0.974742   157A      0.979437   158A      0.983483  
     159A      0.987585   160A      0.995908   161A      1.005243  
     162A      1.009122   163A      1.013812   164A      1.026204  
     165A      1.036883   166A      1.045596   167A      1.050110  
     168A      1.052898   169A      1.058752   170A      1.068461  
     171A      1.070377   172A      1.082067   173A      1.085729  
     174A      1.088292   175A      1.097854   176A      1.100624  
     177A      1.112737   178A      1.115199   179A      1.126240  
     180A      1.130531   181A      1.140875   182A      1.143755  
     183A      1.158682   184A      1.161207   185A      1.170823  
     186A      1.173366   187A      1.184994   188A      1.187683  
     189A      1.200490   190A      1.207352   191A      1.216144  
     192A      1.226014   193A      1.231382   194A      1.239192  
     195A      1.241984   196A      1.251172   197A      1.266086  
     198A      1.273835   199A      1.282476   200A      1.286705  
     201A      1.305065   202A      1.307244   203A      1.318349  
     204A      1.322261   205A      1.331137   206A      1.341858  
     207A      1.361564   208A      1.373398   209A      1.387577  
     210A      1.406994   211A      1.420796   212A      1.424865  
     213A      1.438927   214A      1.444049   215A      1.465347  
     216A      1.491718   217A      1.501962   218A      1.509321  
     219A      1.515037   220A      1.553646   221A      1.560938  
     222A      1.585612   223A      1.602881   224A      1.607686  
     225A      1.663167   226A      1.670247   227A      1.700987  
     228A      1.762679   229A      1.766441   230A      1.778177  
     231A      1.781451   232A      1.793710   233A      1.799020  
     234A      1.810286   235A      1.818996   236A      1.835399  
     237A      1.837494   238A      1.846143   239A      1.872622  
     240A      1.879936   241A      1.887940   242A      1.899009  
     243A      1.907623   244A      1.914215   245A      1.920811  
     246A      1.926442   247A      1.947428   248A      1.977897  
     249A      2.010967   250A      2.050760   251A      2.078375  
     252A      2.104269   253A      2.132261   254A      2.135953  
     255A      2.169575   256A      2.258743   257A      2.296035  
     258A      2.349508   259A      2.364483   260A      2.370829  
     261A      2.375243   262A      2.396695   263A      2.405983  
     264A      2.423854   265A      2.427742   266A      2.456655  
     267A      2.468254   268A      2.478205   269A      2.483763  
     270A      2.492861   271A      2.511151   272A      2.525438  
     273A      2.530148   274A      2.548799   275A      2.564962  
     276A      2.572601   277A      2.577165   278A      2.580099  
     279A      2.589420   280A      2.599687   281A      2.600270  
     282A      2.615682   283A      2.634767   284A      2.639170  
     285A      2.648936   286A      2.657102   287A      2.668005  
     288A      2.678688   289A      2.681630   290A      2.700452  
     291A      2.708122   292A      2.722614   293A      2.733388  
     294A      2.749922   295A      2.786966   296A      2.793859  
     297A      2.826331   298A      2.838118   299A      2.855110  
     300A      2.859205   301A      2.866821   302A      2.890339  
     303A      2.915375   304A      2.931574   305A      2.947932  
     306A      2.958844   307A      2.973788   308A      2.983485  
     309A      3.001754   310A      3.020884   311A      3.108420  
     312A      3.153452   313A      3.184487   314A      3.210858  
     315A      3.224021   316A      3.231930   317A      3.259765  
     318A      3.274123   319A      3.281985   320A      3.297277  
     321A      3.302664   322A      3.348221   323A      3.354123  
     324A      3.358659   325A      3.365343   326A      3.370183  
     327A      3.397089   328A      3.413846   329A      3.418816  
     330A      3.424130   331A      3.487249   332A      3.510475  
     333A      3.599458   334A      3.615408   335A      3.673574  
     336A      3.698682   337A      3.711100   338A      3.727621  
     339A      3.743321   340A      3.762141   341A      3.768141  
     342A      3.917827   343A      4.087209   344A      4.265262  
     345A      4.291668   346A      4.342762   347A      4.397928  
     348A      4.408665   349A      4.424949   350A      4.436353  
     351A      4.440779   352A      4.457037   353A      4.474049  
     354A      4.493289   355A      4.498815   356A      4.500025  
     357A      4.519565   358A      4.541854   359A      4.547713  
     360A      4.556418   361A      4.562996   362A      4.584774  
     363A      4.602676   364A      4.604957   365A      4.621667  
     366A      4.665230   367A      4.680593   368A      4.695984  
     369A      4.708518   370A      4.722734   371A      4.731561  
     372A      4.740004   373A      4.747755   374A      4.764789  
     375A      4.790956   376A      4.803936   377A      4.820429  
     378A      4.885818   379A      4.906800   380A      4.934677  
     381A      4.938187   382A      4.949300   383A      4.964141  
     384A      4.973871   385A      4.985597   386A      4.995076  
     387A      5.034553   388A      5.072848   389A      5.166447  
     390A      5.185823   391A      5.211466   392A      5.225630  
     393A      5.239453   394A      5.245791   395A      5.263808  
     396A      5.397975   397A      5.413066   398A      5.494332  
     399A      5.547767   400A      5.552945   401A      5.555861  
     402A      5.590108   403A      5.618338   404A      5.645516  
     405A      5.646237   406A      5.650091   407A      5.659355  
     408A      5.695616   409A      5.725783   410A      5.740070  
     411A      5.837493   412A      5.882508   413A      5.894941  
     414A      5.912720   415A      5.938766   416A      6.137454  
     417A      6.156971   418A      6.160313   419A      6.166904  
     420A      6.208399   421A      6.319930   422A      6.386190  
     423A      6.431415   424A      6.451231   425A      6.513313  
     426A      6.624239   427A      6.687005   428A      6.745974  
     429A      6.770966   430A      6.785008   431A      6.891532  
     432A      6.964054   433A      7.126831   434A      7.137489  
     435A      7.173247   436A      7.227876   437A      7.331056  
     438A      7.361945   439A      7.397487   440A      7.439991  
     441A      7.506839   442A      7.650419   443A      7.700469  
     444A      7.714309   445A      7.720739   446A      7.728603  
     447A      7.842105   448A      7.857868   449A      7.867977  
     450A      7.907391   451A      7.918223   452A      8.059315  
     453A      8.066912   454A      8.085081   455A      8.105638  
     456A      8.118123   457A      8.122759   458A      8.140923  
     459A      8.236920   460A      8.245936   461A      8.278424  
     462A      8.309022   463A      8.330456   464A      8.337634  
     465A      8.578341   466A      8.745473   467A      8.766690  
     468A      8.801034   469A      8.844131   470A      8.859568  
     471A      8.862877   472A      8.905351   473A      8.917660  
     474A      9.726874   475A      9.794174   476A      9.798870  
     477A      9.865215   478A      9.931505   479A      9.940857  
     480A      9.966602   481A      9.968023   482A     10.029869  
     483A     10.038650   484A     10.051419   485A     10.055033  
     486A     10.241473   487A     10.247949   488A     10.252530  
     489A     10.257380   490A     10.419246   491A     11.092930  
     492A     11.234550   493A     11.295735   494A     11.329296  
     495A     11.689462   496A     11.731795   497A     11.748450  
     498A     11.768135   499A     11.854254   500A     12.215439  
     501A     12.282834   502A     12.345009   503A     13.455240  
     504A     13.635768   505A     13.655369   506A     13.692830  
     507A     13.831148   508A     13.862351   509A     13.884592  
     510A     13.901132   511A     16.539948   512A     30.848733  
     513A     31.254905   514A     31.320894   515A     63.586688  
     516A     65.305055   517A     65.500513   518A     65.854848  
     519A    198.122587  

    Final Occupation by Irrep:
              A 
    DOCC [     5 ]
    NA   [     5 ]
    NB   [     5 ]

  @DF-RHF Final Energy:   -76.06016473497858

   => Energetics <=

    Nuclear Repulsion Energy =              9.2854931969264509
    One-Electron Energy =                -123.2197968312076881
    Two-Electron Energy =                  37.8741388993026504
    Total Energy =                        -76.0601647349785850

Computation Completed


Properties will be evaluated at   0.000000,   0.000000,   0.000000 [a0]

Properties computed using the SCF density matrix


 Multipole Moments:

 ------------------------------------------------------------------------------------
     Multipole            Electronic (a.u.)      Nuclear  (a.u.)        Total (a.u.)
 ------------------------------------------------------------------------------------

 L = 1.  Multiply by 2.5417464519 to convert [e a0] to [Debye]
 Dipole X            :         50.3162540          -50.4627117           -0.1464577
 Dipole Y            :         23.8072812          -24.4796729           -0.6723916
 Dipole Z            :         -6.5535354            6.7937601            0.2402247
 Magnitude           :                                                    0.7288815

 ------------------------------------------------------------------------------------

*** tstop() called on moses-razer at Wed Jan 24 17:26:50 2024
Module time:
	user time   =      50.80 seconds =       0.85 minutes
	system time =       2.80 seconds =       0.05 minutes
	total time  =         15 seconds =       0.25 minutes
Total time:
	user time   =      50.80 seconds =       0.85 minutes
	system time =       2.80 seconds =       0.05 minutes
	total time  =         15 seconds =       0.25 minutes

*** tstart() called on moses-razer
*** at Wed Jan 24 17:26:50 2024


  //>>>>>>>>>>>>>>>>>>>>>>>>>>>>>>>>>>>//
  //               DFMP2               //
  //<<<<<<<<<<<<<<<<<<<<<<<<<<<<<<<<<<<//

   => Loading Basis Set <=

    Name: (AUG-CC-PVTZ AUX)
    Role: RIFIT
    Keyword: DF_BASIS_MP2
    atoms 1                            entry K          line  1282 file /home/kchung25/anaconda3/envs/p415env/share/psi4/basis/def2-qzvpp-ri.gbs 
    atoms 2, 5, 8, 11, 14              entry O          line   264 file /home/kchung25/anaconda3/envs/p415env/share/psi4/basis/aug-cc-pvtz-ri.gbs 
    atoms 3-4, 6-7, 9-10, 12-13, 15-16 entry H          line    30 file /home/kchung25/anaconda3/envs/p415env/share/psi4/basis/aug-cc-pvtz-ri.gbs 

	 --------------------------------------------------------
	                          DF-MP2                         
	      2nd-Order Density-Fitted Moller-Plesset Theory     
	              RMP2 Wavefunction,   6 Threads             
	                                                         
	        Rob Parrish, Justin Turney, Andy Simmonett,      
	           Ed Hohenstein, and C. David Sherrill          
	 --------------------------------------------------------

   => Auxiliary Basis Set <=

  Basis Set: (AUG-CC-PVTZ AUX)
    Blend: AUG-CC-PVTZ-RI + DEF2-QZVPP-RI
    Number of shells: 329
    Number of basis functions: 1189
    Number of Cartesian functions: 1492
    Spherical Harmonics?: true
    Max angular momentum: 4

	 --------------------------------------------------------
	                 NBF =   519, NAUX =  1189
	 --------------------------------------------------------
	   CLASS    FOCC     OCC    AOCC    AVIR     VIR    FVIR
	   PAIRS       0       5       5     514     514       0
	 --------------------------------------------------------

	-----------------------------------------------------------
	 ==================> DF-MP2 Energies <==================== 
	-----------------------------------------------------------
	 Reference Energy          =     -76.0601647349785850 [Eh]
	 Singles Energy            =      -0.0000000000000000 [Eh]
	 Same-Spin Energy          =      -0.0681156879873036 [Eh]
	 Opposite-Spin Energy      =      -0.2146715535373941 [Eh]
	 Correlation Energy        =      -0.2827872415246978 [Eh]
	 Total Energy              =     -76.3429519765032865 [Eh]
	-----------------------------------------------------------
	 ================> DF-SCS-MP2 Energies <================== 
	-----------------------------------------------------------
	 SCS Same-Spin Scale       =       0.3333333333333333 [-]
	 SCS Opposite-Spin Scale   =       1.2000000000000000 [-]
	 SCS Same-Spin Energy      =      -0.0227052293291012 [Eh]
	 SCS Opposite-Spin Energy  =      -0.2576058642448729 [Eh]
	 SCS Correlation Energy    =      -0.2803110935739742 [Eh]
	 SCS Total Energy          =     -76.3404758285525560 [Eh]
	-----------------------------------------------------------


*** tstop() called on moses-razer at Wed Jan 24 17:26:59 2024
Module time:
	user time   =      21.09 seconds =       0.35 minutes
	system time =       1.66 seconds =       0.03 minutes
	total time  =          9 seconds =       0.15 minutes
Total time:
	user time   =      71.90 seconds =       1.20 minutes
	system time =       4.46 seconds =       0.07 minutes
	total time  =         24 seconds =       0.40 minutes

    Psi4 stopped on: Wednesday, 24 January 2024 05:26PM
    Psi4 wall time for execution: 0:00:24.12

*** Psi4 exiting successfully. Buy a developer a beer!
