
    -----------------------------------------------------------------------
          Psi4: An Open-Source Ab Initio Electronic Structure Package
                               Psi4 1.9 release

                         Git: Rev {} zzzzzzz 


    D. G. A. Smith, L. A. Burns, A. C. Simmonett, R. M. Parrish,
    M. C. Schieber, R. Galvelis, P. Kraus, H. Kruse, R. Di Remigio,
    A. Alenaizan, A. M. James, S. Lehtola, J. P. Misiewicz, M. Scheurer,
    R. A. Shaw, J. B. Schriber, Y. Xie, Z. L. Glick, D. A. Sirianni,
    J. S. O'Brien, J. M. Waldrop, A. Kumar, E. G. Hohenstein,
    B. P. Pritchard, B. R. Brooks, H. F. Schaefer III, A. Yu. Sokolov,
    K. Patkowski, A. E. DePrince III, U. Bozkaya, R. A. King,
    F. A. Evangelista, J. M. Turney, T. D. Crawford, C. D. Sherrill,
    J. Chem. Phys. 152(18) 184108 (2020). https://doi.org/10.1063/5.0006002

                            Additional Code Authors
    E. T. Seidl, C. L. Janssen, E. F. Valeev, M. L. Leininger,
    J. F. Gonthier, R. M. Richard, H. R. McAlexander, M. Saitow, X. Wang,
    P. Verma, M. H. Lechner, A. Jiang, S. Behnle, A. G. Heide,
    M. F. Herbst, and D. L. Poole

             Previous Authors, Complete List of Code Contributors,
                       and Citations for Specific Modules
    https://github.com/psi4/psi4/blob/master/codemeta.json
    https://github.com/psi4/psi4/graphs/contributors
    http://psicode.org/psi4manual/master/introduction.html#citing-psifour

    -----------------------------------------------------------------------


    Psi4 started on: Wednesday, 24 January 2024 03:22PM

    Process ID: 1223908
    Host:       moses-razer
    PSIDATADIR: /home/kchung25/anaconda3/envs/psi4_19/share/psi4
    Memory:     500.0 MiB
    Threads:    6
    
  ==> Input File <==

--------------------------------------------------------------------------
MEMORY 60 GB

molecule dimer {
0 1
Gh(K)      0.000000     0.000000     0.000000
Gh(O)     -1.997620    -2.162061    -0.813178
Gh(H)     -2.773802    -1.606737    -0.549995
Gh(H)     -1.592061    -2.558739    -0.032556
O          0.414858    -0.225799    -2.631086
H          1.352700    -0.013745    -2.767381
H          0.050193    -0.688976    -3.401864
Gh(O)     -2.631714     0.983286    -0.637732
Gh(H)     -3.404075     1.007670    -0.141584
Gh(H)     -2.832941     1.458279    -1.450706
Gh(O)      1.202232    -0.677975     2.440207
Gh(H)      2.075392    -1.063868     2.278000
Gh(H)      0.927402    -1.109896     3.256085
Gh(O)     -0.234521    -2.746344     1.303637
Gh(H)     -0.487511    -2.096140     1.982125
Gh(H)      0.699833    -2.781795     1.295536
Gh(O)      0.306745     2.542586     1.554188
Gh(H)      0.463644     2.471048     2.452764
Gh(H)     -0.325900     3.267043     1.361577

units ang
no_reorient
no_com
symmetry c1
}

set {
basis        aug-cc-pVTZ
scf_type     df
}

energy("mp2")
--------------------------------------------------------------------------

  Memory set to  55.879 GiB by Python driver.

Scratch directory: /scratch/
   => Libint2 <=

    Primary   basis highest AM E, G, H:  5, 4, 3
    Auxiliary basis highest AM E, G, H:  6, 5, 4
    Onebody   basis highest AM E, G, H:  6, 5, 4
    Solid Harmonics ordering:            gaussian

*** tstart() called on moses-razer
*** at Wed Jan 24 15:22:48 2024

   => Loading Basis Set <=

    Name: AUG-CC-PVTZ
    Role: ORBITAL
    Keyword: BASIS
    atoms 1                                   entry K          line  1152 file /home/kchung25/anaconda3/envs/p415env/share/psi4/basis/aug-cc-pvtz.gbs 
    atoms 2, 5, 8, 11, 14, 17                 entry O          line   331 file /home/kchung25/anaconda3/envs/p415env/share/psi4/basis/aug-cc-pvtz.gbs 
    atoms 3-4, 6-7, 9-10, 12-13, 15-16, 18-19 entry H          line    40 file /home/kchung25/anaconda3/envs/p415env/share/psi4/basis/aug-cc-pvtz.gbs 


         ---------------------------------------------------------
                                   SCF
               by Justin Turney, Rob Parrish, Andy Simmonett
                          and Daniel G. A. Smith
                              RHF Reference
                        6 Threads,  57220 MiB Core
         ---------------------------------------------------------

  ==> Geometry <==

    Molecular point group: c1
    Full point group: C1

    Geometry (in Angstrom), charge = 0, multiplicity = 1:

       Center              X                  Y                   Z               Mass       
    ------------   -----------------  -----------------  -----------------  -----------------
      Gh(K)           0.000000000000     0.000000000000     0.000000000000    38.963706486400
      Gh(O)          -1.997620000000    -2.162061000000    -0.813178000000    15.994914619570
      Gh(H)          -2.773802000000    -1.606737000000    -0.549995000000     1.007825032230
      Gh(H)          -1.592061000000    -2.558739000000    -0.032556000000     1.007825032230
         O            0.414858000000    -0.225799000000    -2.631086000000    15.994914619570
         H            1.352700000000    -0.013745000000    -2.767381000000     1.007825032230
         H            0.050193000000    -0.688976000000    -3.401864000000     1.007825032230
      Gh(O)          -2.631714000000     0.983286000000    -0.637732000000    15.994914619570
      Gh(H)          -3.404075000000     1.007670000000    -0.141584000000     1.007825032230
      Gh(H)          -2.832941000000     1.458279000000    -1.450706000000     1.007825032230
      Gh(O)           1.202232000000    -0.677975000000     2.440207000000    15.994914619570
      Gh(H)           2.075392000000    -1.063868000000     2.278000000000     1.007825032230
      Gh(H)           0.927402000000    -1.109896000000     3.256085000000     1.007825032230
      Gh(O)          -0.234521000000    -2.746344000000     1.303637000000    15.994914619570
      Gh(H)          -0.487511000000    -2.096140000000     1.982125000000     1.007825032230
      Gh(H)           0.699833000000    -2.781795000000     1.295536000000     1.007825032230
      Gh(O)           0.306745000000     2.542586000000     1.554188000000    15.994914619570
      Gh(H)           0.463644000000     2.471048000000     2.452764000000     1.007825032230
      Gh(H)          -0.325900000000     3.267043000000     1.361577000000     1.007825032230

  Running in c1 symmetry.

  Rotational constants: A =      0.03131  B =      0.02862  C =      0.02193 [cm^-1]
  Rotational constants: A =    938.65702  B =    858.08546  C =    657.40859 [MHz]
  Nuclear repulsion =    9.053030413548509

  Charge       = 0
  Multiplicity = 1
  Electrons    = 10
  Nalpha       = 5
  Nbeta        = 5

  ==> Algorithm <==

  SCF Algorithm Type is DF.
  DIIS enabled.
  MOM disabled.
  Fractional occupation disabled.
  Guess Type is SAD.
  Energy threshold   = 1.00e-08
  Density threshold  = 1.00e-08
  Integral threshold = 1.00e-12

  ==> Primary Basis <==

  Basis Set: AUG-CC-PVTZ
    Blend: AUG-CC-PVTZ
    Number of shells: 211
    Number of basis functions: 611
    Number of Cartesian functions: 699
    Spherical Harmonics?: true
    Max angular momentum: 3

   => Loading Basis Set <=

    Name: (AUG-CC-PVTZ AUX)
    Role: JKFIT
    Keyword: DF_BASIS_SCF
    atoms 1                                   entry K          line  1152 file /home/kchung25/anaconda3/envs/p415env/share/psi4/basis/def2-universal-jkfit.gbs 
    atoms 2, 5, 8, 11, 14, 17                 entry O          line   286 file /home/kchung25/anaconda3/envs/p415env/share/psi4/basis/aug-cc-pvtz-jkfit.gbs 
    atoms 3-4, 6-7, 9-10, 12-13, 15-16, 18-19 entry H          line    70 file /home/kchung25/anaconda3/envs/p415env/share/psi4/basis/aug-cc-pvtz-jkfit.gbs 

  ==> Integral Setup <==

  DFHelper Memory: AOs need 3.314 GiB; user supplied 41.910 GiB. 
  Using in-core AOs.

  ==> MemDFJK: Density-Fitted J/K Matrices <==

    J tasked:                   Yes
    K tasked:                   Yes
    wK tasked:                   No
    OpenMP threads:               6
    Memory [MiB]:             42915
    Algorithm:                 Core
    Schwarz Cutoff:           1E-12
    Mask sparsity (%):      13.6360
    Fitting Condition:        1E-10

   => Auxiliary Basis Set <=

  Basis Set: (AUG-CC-PVTZ AUX)
    Blend: AUG-CC-PVTZ-JKFIT + DEF2-UNIVERSAL-JKFIT
    Number of shells: 392
    Number of basis functions: 1336
    Number of Cartesian functions: 1649
    Spherical Harmonics?: true
    Max angular momentum: 4

  Minimum eigenvalue in the overlap matrix is 4.1576381340E-05.
  Reciprocal condition number of the overlap matrix is 2.7563540771E-06.
    Using symmetric orthogonalization.

  ==> Pre-Iterations <==

  SCF Guess: Superposition of Atomic Densities via on-the-fly atomic UHF (no occupation information).

   -------------------------
    Irrep   Nso     Nmo    
   -------------------------
     A        611     611 
   -------------------------
    Total     611     611
   -------------------------

  ==> Iterations <==

                           Total Energy        Delta E     RMS |[F,P]|

   @DF-RHF iter SAD:   -75.45643421834139   -7.54564e+01   0.00000e+00 
   @DF-RHF iter   1:   -75.97447370186492   -5.18039e-01   7.65227e-04 ADIIS/DIIS
   @DF-RHF iter   2:   -76.02636068136727   -5.18870e-02   5.25297e-04 ADIIS/DIIS
   @DF-RHF iter   3:   -76.05822907465237   -3.18684e-02   3.57391e-05 DIIS
   @DF-RHF iter   4:   -76.05864010073769   -4.11026e-04   8.81119e-06 DIIS
   @DF-RHF iter   5:   -76.05866723685354   -2.71361e-05   2.01623e-06 DIIS
   @DF-RHF iter   6:   -76.05866953205296   -2.29520e-06   4.55357e-07 DIIS
   @DF-RHF iter   7:   -76.05866966168009   -1.29627e-07   8.69872e-08 DIIS
   @DF-RHF iter   8:   -76.05866966584330   -4.16321e-09   1.45256e-08 DIIS
   @DF-RHF iter   9:   -76.05866966593665   -9.33511e-11   3.70704e-09 DIIS
  Energy and wave function converged.


  ==> Post-Iterations <==

    Orbital Energies [Eh]
    ---------------------

    Doubly Occupied:                                                      

       1A    -20.566501     2A     -1.342355     3A     -0.721857  
       4A     -0.570137     5A     -0.507269  

    Virtual:                                                              

       6A      0.007038     7A      0.009382     8A      0.009863  
       9A      0.010727    10A      0.017778    11A      0.018114  
      12A      0.018553    13A      0.018727    14A      0.018897  
      15A      0.032230    16A      0.033233    17A      0.034678  
      18A      0.039811    19A      0.056075    20A      0.057042  
      21A      0.057839    22A      0.059014    23A      0.060252  
      24A      0.071464    25A      0.073640    26A      0.075453  
      27A      0.075917    28A      0.078965    29A      0.080029  
      30A      0.081573    31A      0.081924    32A      0.086383  
      33A      0.093207    34A      0.097780    35A      0.103400  
      36A      0.105968    37A      0.128996    38A      0.136917  
      39A      0.140855    40A      0.145322    41A      0.150948  
      42A      0.157145    43A      0.158698    44A      0.165128  
      45A      0.166694    46A      0.171246    47A      0.174048  
      48A      0.182534    49A      0.183182    50A      0.186150  
      51A      0.188159    52A      0.192729    53A      0.198221  
      54A      0.205131    55A      0.209173    56A      0.210333  
      57A      0.217255    58A      0.223849    59A      0.227157  
      60A      0.233411    61A      0.239740    62A      0.250471  
      63A      0.251504    64A      0.254696    65A      0.259286  
      66A      0.269546    67A      0.273887    68A      0.283445  
      69A      0.286327    70A      0.293518    71A      0.295079  
      72A      0.304329    73A      0.309764    74A      0.317699  
      75A      0.324872    76A      0.334318    77A      0.337307  
      78A      0.345270    79A      0.346417    80A      0.353891  
      81A      0.356120    82A      0.360802    83A      0.370073  
      84A      0.376376    85A      0.377802    86A      0.384612  
      87A      0.387402    88A      0.394111    89A      0.395859  
      90A      0.400203    91A      0.403385    92A      0.412193  
      93A      0.418947    94A      0.420566    95A      0.422684  
      96A      0.427186    97A      0.434457    98A      0.441814  
      99A      0.443086   100A      0.451241   101A      0.451997  
     102A      0.458681   103A      0.461770   104A      0.464856  
     105A      0.470475   106A      0.471377   107A      0.475109  
     108A      0.483575   109A      0.485718   110A      0.492943  
     111A      0.498028   112A      0.504332   113A      0.505836  
     114A      0.510084   115A      0.515863   116A      0.518710  
     117A      0.526859   118A      0.533934   119A      0.538254  
     120A      0.555271   121A      0.556978   122A      0.559757  
     123A      0.572465   124A      0.575521   125A      0.589164  
     126A      0.594389   127A      0.603564   128A      0.607085  
     129A      0.620138   130A      0.631012   131A      0.647025  
     132A      0.666999   133A      0.672020   134A      0.699855  
     135A      0.714201   136A      0.724981   137A      0.740672  
     138A      0.758514   139A      0.763442   140A      0.780867  
     141A      0.782560   142A      0.789159   143A      0.791330  
     144A      0.798193   145A      0.801895   146A      0.815409  
     147A      0.825356   148A      0.828813   149A      0.833763  
     150A      0.837563   151A      0.849657   152A      0.852419  
     153A      0.862983   154A      0.865530   155A      0.868216  
     156A      0.872359   157A      0.880699   158A      0.882852  
     159A      0.894441   160A      0.900292   161A      0.905957  
     162A      0.910332   163A      0.912561   164A      0.917703  
     165A      0.924712   166A      0.927340   167A      0.936688  
     168A      0.944062   169A      0.947703   170A      0.960729  
     171A      0.966357   172A      0.967811   173A      0.972672  
     174A      0.980687   175A      0.984521   176A      0.986998  
     177A      0.989208   178A      0.994226   179A      1.002859  
     180A      1.012027   181A      1.013692   182A      1.017949  
     183A      1.027692   184A      1.033881   185A      1.040698  
     186A      1.051216   187A      1.055347   188A      1.061922  
     189A      1.068040   190A      1.073245   191A      1.079400  
     192A      1.090741   193A      1.096747   194A      1.098348  
     195A      1.102125   196A      1.109356   197A      1.112993  
     198A      1.115194   199A      1.124724   200A      1.127212  
     201A      1.131029   202A      1.146096   203A      1.147254  
     204A      1.156476   205A      1.163917   206A      1.171952  
     207A      1.178768   208A      1.184427   209A      1.191289  
     210A      1.201092   211A      1.207706   212A      1.210674  
     213A      1.218379   214A      1.226867   215A      1.234334  
     216A      1.235690   217A      1.241091   218A      1.249983  
     219A      1.260244   220A      1.262228   221A      1.263907  
     222A      1.276631   223A      1.291100   224A      1.293590  
     225A      1.300129   226A      1.312709   227A      1.327469  
     228A      1.337850   229A      1.340988   230A      1.344499  
     231A      1.357173   232A      1.367919   233A      1.375639  
     234A      1.378388   235A      1.395927   236A      1.399588  
     237A      1.401534   238A      1.412709   239A      1.423551  
     240A      1.427806   241A      1.444565   242A      1.447300  
     243A      1.472676   244A      1.489834   245A      1.514128  
     246A      1.524798   247A      1.537813   248A      1.539565  
     249A      1.572889   250A      1.600340   251A      1.604498  
     252A      1.608382   253A      1.623947   254A      1.630696  
     255A      1.635867   256A      1.664914   257A      1.681226  
     258A      1.687759   259A      1.699844   260A      1.711652  
     261A      1.737812   262A      1.770902   263A      1.779216  
     264A      1.785435   265A      1.801477   266A      1.804739  
     267A      1.817952   268A      1.825162   269A      1.834755  
     270A      1.850348   271A      1.853264   272A      1.863912  
     273A      1.875090   274A      1.881002   275A      1.893185  
     276A      1.908482   277A      1.917524   278A      1.921344  
     279A      1.935576   280A      1.948174   281A      1.957935  
     282A      1.972047   283A      1.986335   284A      1.999911  
     285A      2.013466   286A      2.024100   287A      2.033567  
     288A      2.044294   289A      2.046890   290A      2.073723  
     291A      2.109507   292A      2.125558   293A      2.139667  
     294A      2.151777   295A      2.166363   296A      2.203630  
     297A      2.279036   298A      2.290333   299A      2.331662  
     300A      2.354555   301A      2.383189   302A      2.405021  
     303A      2.411118   304A      2.432032   305A      2.437342  
     306A      2.463074   307A      2.465355   308A      2.498782  
     309A      2.501634   310A      2.504076   311A      2.526082  
     312A      2.535217   313A      2.550723   314A      2.555606  
     315A      2.568022   316A      2.577884   317A      2.584361  
     318A      2.599299   319A      2.606593   320A      2.612631  
     321A      2.619088   322A      2.625199   323A      2.637235  
     324A      2.652026   325A      2.663251   326A      2.667348  
     327A      2.683547   328A      2.685725   329A      2.703646  
     330A      2.719057   331A      2.728150   332A      2.734169  
     333A      2.741608   334A      2.756751   335A      2.775989  
     336A      2.786537   337A      2.791964   338A      2.800196  
     339A      2.807071   340A      2.818292   341A      2.828761  
     342A      2.848671   343A      2.854822   344A      2.873258  
     345A      2.882007   346A      2.913408   347A      2.918584  
     348A      2.922176   349A      2.936337   350A      2.940449  
     351A      2.964045   352A      2.983197   353A      2.989205  
     354A      2.992893   355A      3.030466   356A      3.043282  
     357A      3.065601   358A      3.102946   359A      3.129276  
     360A      3.132735   361A      3.166758   362A      3.221355  
     363A      3.229066   364A      3.252306   365A      3.265977  
     366A      3.273718   367A      3.277203   368A      3.291449  
     369A      3.301497   370A      3.312134   371A      3.333720  
     372A      3.346105   373A      3.354189   374A      3.372374  
     375A      3.379597   376A      3.392754   377A      3.394524  
     378A      3.406866   379A      3.417552   380A      3.421393  
     381A      3.435580   382A      3.445587   383A      3.465434  
     384A      3.480869   385A      3.497151   386A      3.566004  
     387A      3.618258   388A      3.621951   389A      3.684164  
     390A      3.699852   391A      3.733476   392A      3.741187  
     393A      3.753625   394A      3.764581   395A      3.775568  
     396A      3.793821   397A      3.803924   398A      3.867162  
     399A      3.941019   400A      4.054808   401A      4.217612  
     402A      4.244634   403A      4.283730   404A      4.384322  
     405A      4.393683   406A      4.404022   407A      4.424024  
     408A      4.435812   409A      4.454711   410A      4.474791  
     411A      4.488076   412A      4.500520   413A      4.508683  
     414A      4.555526   415A      4.563213   416A      4.566602  
     417A      4.583923   418A      4.589620   419A      4.596480  
     420A      4.613535   421A      4.629715   422A      4.638662  
     423A      4.644427   424A      4.678072   425A      4.680219  
     426A      4.690629   427A      4.702961   428A      4.721133  
     429A      4.725838   430A      4.733293   431A      4.759306  
     432A      4.770168   433A      4.772948   434A      4.780561  
     435A      4.799945   436A      4.818954   437A      4.850539  
     438A      4.860228   439A      4.938804   440A      4.945105  
     441A      4.957013   442A      4.984250   443A      4.989300  
     444A      4.999930   445A      5.024314   446A      5.028618  
     447A      5.040757   448A      5.065262   449A      5.079249  
     450A      5.094230   451A      5.103029   452A      5.122513  
     453A      5.139724   454A      5.153170   455A      5.159744  
     456A      5.175311   457A      5.212753   458A      5.268632  
     459A      5.276085   460A      5.295491   461A      5.304922  
     462A      5.345772   463A      5.351512   464A      5.452684  
     465A      5.474445   466A      5.479202   467A      5.564145  
     468A      5.569890   469A      5.577203   470A      5.589065  
     471A      5.596939   472A      5.634671   473A      5.639985  
     474A      5.668782   475A      5.681526   476A      5.753191  
     477A      5.758289   478A      5.804505   479A      5.808058  
     480A      5.817486   481A      5.836137   482A      5.840476  
     483A      5.936113   484A      5.954874   485A      5.996565  
     486A      6.035221   487A      6.184613   488A      6.191141  
     489A      6.223066   490A      6.235870   491A      6.273020  
     492A      6.376131   493A      6.388922   494A      6.408478  
     495A      6.452260   496A      6.520763   497A      6.613349  
     498A      6.641325   499A      6.704158   500A      6.734789  
     501A      6.744611   502A      6.812740   503A      6.840270  
     504A      6.848355   505A      6.861444   506A      7.081969  
     507A      7.112759   508A      7.186796   509A      7.211154  
     510A      7.223491   511A      7.249062   512A      7.283495  
     513A      7.357683   514A      7.398753   515A      7.402752  
     516A      7.432111   517A      7.587533   518A      7.693951  
     519A      7.723548   520A      7.747114   521A      7.763040  
     522A      7.775715   523A      7.821120   524A      7.854554  
     525A      7.880520   526A      7.892431   527A      7.918916  
     528A      7.939502   529A      7.985641   530A      8.136376  
     531A      8.139850   532A      8.159325   533A      8.166140  
     534A      8.201121   535A      8.219480   536A      8.279782  
     537A      8.298540   538A      8.319022   539A      8.324947  
     540A      8.331543   541A      8.339428   542A      8.375265  
     543A      8.396218   544A      8.467464   545A      8.721640  
     546A      8.732337   547A      8.768692   548A      8.858030  
     549A      8.867109   550A      8.913870   551A      8.926774  
     552A      8.983349   553A      8.992411   554A      8.998417  
     555A      9.001839   556A      9.799298   557A      9.815008  
     558A      9.857764   559A      9.918232   560A      9.926070  
     561A      9.942624   562A      9.961295   563A      9.999919  
     564A     10.010107   565A     10.019423   566A     10.055852  
     567A     10.068699   568A     10.074877   569A     10.084516  
     570A     10.200245   571A     10.201272   572A     10.257181  
     573A     10.265105   574A     10.290667   575A     10.382818  
     576A     10.495132   577A     11.098512   578A     11.166226  
     579A     11.234980   580A     11.262672   581A     11.339319  
     582A     11.731025   583A     11.803956   584A     11.838285  
     585A     11.864512   586A     11.974788   587A     12.196817  
     588A     12.228702   589A     12.419937   590A     12.518178  
     591A     12.582662   592A     13.606524   593A     13.631788  
     594A     13.696421   595A     13.770808   596A     13.798495  
     597A     13.879468   598A     13.909734   599A     13.936002  
     600A     13.962597   601A     14.069806   602A     15.669938  
     603A     30.898683   604A     31.092196   605A     31.331505  
     606A     65.076208   607A     65.897659   608A     65.974340  
     609A     66.336690   610A     67.034159   611A    198.281128  

    Final Occupation by Irrep:
              A 
    DOCC [     5 ]
    NA   [     5 ]
    NB   [     5 ]

  @DF-RHF Final Energy:   -76.05866966593665

   => Energetics <=

    Nuclear Repulsion Energy =              9.0530304135485089
    One-Electron Energy =                -122.8071567531778072
    Two-Electron Energy =                  37.6954566736926466
    Total Energy =                        -76.0586696659366481

Computation Completed


Properties will be evaluated at   0.000000,   0.000000,   0.000000 [a0]

Properties computed using the SCF density matrix


 Multipole Moments:

 ------------------------------------------------------------------------------------
     Multipole            Electronic (a.u.)      Nuclear  (a.u.)        Total (a.u.)
 ------------------------------------------------------------------------------------

 L = 1.  Multiply by 2.5417464519 to convert [e a0] to [Debye]
 Dipole X            :         -8.5373522            8.9228276            0.3854753
 Dipole Y            :          4.5726649           -4.7415364           -0.1688715
 Dipole Z            :         50.8241643          -51.4344391           -0.6102748
 Magnitude           :                                                    0.7413124

 ------------------------------------------------------------------------------------

*** tstop() called on moses-razer at Wed Jan 24 15:23:07 2024
Module time:
	user time   =      72.22 seconds =       1.20 minutes
	system time =       3.48 seconds =       0.06 minutes
	total time  =         19 seconds =       0.32 minutes
Total time:
	user time   =      72.22 seconds =       1.20 minutes
	system time =       3.48 seconds =       0.06 minutes
	total time  =         19 seconds =       0.32 minutes

*** tstart() called on moses-razer
*** at Wed Jan 24 15:23:07 2024


  //>>>>>>>>>>>>>>>>>>>>>>>>>>>>>>>>>>>//
  //               DFMP2               //
  //<<<<<<<<<<<<<<<<<<<<<<<<<<<<<<<<<<<//

   => Loading Basis Set <=

    Name: (AUG-CC-PVTZ AUX)
    Role: RIFIT
    Keyword: DF_BASIS_MP2
    atoms 1                                   entry K          line  1282 file /home/kchung25/anaconda3/envs/p415env/share/psi4/basis/def2-qzvpp-ri.gbs 
    atoms 2, 5, 8, 11, 14, 17                 entry O          line   264 file /home/kchung25/anaconda3/envs/p415env/share/psi4/basis/aug-cc-pvtz-ri.gbs 
    atoms 3-4, 6-7, 9-10, 12-13, 15-16, 18-19 entry H          line    30 file /home/kchung25/anaconda3/envs/p415env/share/psi4/basis/aug-cc-pvtz-ri.gbs 

	 --------------------------------------------------------
	                          DF-MP2                         
	      2nd-Order Density-Fitted Moller-Plesset Theory     
	              RMP2 Wavefunction,   6 Threads             
	                                                         
	        Rob Parrish, Justin Turney, Andy Simmonett,      
	           Ed Hohenstein, and C. David Sherrill          
	 --------------------------------------------------------

   => Auxiliary Basis Set <=

  Basis Set: (AUG-CC-PVTZ AUX)
    Blend: AUG-CC-PVTZ-RI + DEF2-QZVPP-RI
    Number of shells: 385
    Number of basis functions: 1387
    Number of Cartesian functions: 1738
    Spherical Harmonics?: true
    Max angular momentum: 4

	 --------------------------------------------------------
	                 NBF =   611, NAUX =  1387
	 --------------------------------------------------------
	   CLASS    FOCC     OCC    AOCC    AVIR     VIR    FVIR
	   PAIRS       0       5       5     606     606       0
	 --------------------------------------------------------

	-----------------------------------------------------------
	 ==================> DF-MP2 Energies <==================== 
	-----------------------------------------------------------
	 Reference Energy          =     -76.0586696659366481 [Eh]
	 Singles Energy            =      -0.0000000000000000 [Eh]
	 Same-Spin Energy          =      -0.0685349414698446 [Eh]
	 Opposite-Spin Energy      =      -0.2159266682206944 [Eh]
	 Correlation Energy        =      -0.2844616096905390 [Eh]
	 Total Energy              =     -76.3431312756271865 [Eh]
	-----------------------------------------------------------
	 ================> DF-SCS-MP2 Energies <================== 
	-----------------------------------------------------------
	 SCS Same-Spin Scale       =       0.3333333333333333 [-]
	 SCS Opposite-Spin Scale   =       1.2000000000000000 [-]
	 SCS Same-Spin Energy      =      -0.0228449804899482 [Eh]
	 SCS Opposite-Spin Energy  =      -0.2591120018648332 [Eh]
	 SCS Correlation Energy    =      -0.2819569823547814 [Eh]
	 SCS Total Energy          =     -76.3406266482914333 [Eh]
	-----------------------------------------------------------


*** tstop() called on moses-razer at Wed Jan 24 15:23:18 2024
Module time:
	user time   =      26.16 seconds =       0.44 minutes
	system time =       1.90 seconds =       0.03 minutes
	total time  =         11 seconds =       0.18 minutes
Total time:
	user time   =      98.38 seconds =       1.64 minutes
	system time =       5.38 seconds =       0.09 minutes
	total time  =         30 seconds =       0.50 minutes

    Psi4 stopped on: Wednesday, 24 January 2024 03:23PM
    Psi4 wall time for execution: 0:00:30.03

*** Psi4 exiting successfully. Buy a developer a beer!
