
    -----------------------------------------------------------------------
          Psi4: An Open-Source Ab Initio Electronic Structure Package
                               Psi4 1.9 release

                         Git: Rev {} zzzzzzz 


    D. G. A. Smith, L. A. Burns, A. C. Simmonett, R. M. Parrish,
    M. C. Schieber, R. Galvelis, P. Kraus, H. Kruse, R. Di Remigio,
    A. Alenaizan, A. M. James, S. Lehtola, J. P. Misiewicz, M. Scheurer,
    R. A. Shaw, J. B. Schriber, Y. Xie, Z. L. Glick, D. A. Sirianni,
    J. S. O'Brien, J. M. Waldrop, A. Kumar, E. G. Hohenstein,
    B. P. Pritchard, B. R. Brooks, H. F. Schaefer III, A. Yu. Sokolov,
    K. Patkowski, A. E. DePrince III, U. Bozkaya, R. A. King,
    F. A. Evangelista, J. M. Turney, T. D. Crawford, C. D. Sherrill,
    J. Chem. Phys. 152(18) 184108 (2020). https://doi.org/10.1063/5.0006002

                            Additional Code Authors
    E. T. Seidl, C. L. Janssen, E. F. Valeev, M. L. Leininger,
    J. F. Gonthier, R. M. Richard, H. R. McAlexander, M. Saitow, X. Wang,
    P. Verma, M. H. Lechner, A. Jiang, S. Behnle, A. G. Heide,
    M. F. Herbst, and D. L. Poole

             Previous Authors, Complete List of Code Contributors,
                       and Citations for Specific Modules
    https://github.com/psi4/psi4/blob/master/codemeta.json
    https://github.com/psi4/psi4/graphs/contributors
    http://psicode.org/psi4manual/master/introduction.html#citing-psifour

    -----------------------------------------------------------------------


    Psi4 started on: Wednesday, 24 January 2024 07:23PM

    Process ID: 1248872
    Host:       moses-razer
    PSIDATADIR: /home/kchung25/anaconda3/envs/psi4_19/share/psi4
    Memory:     500.0 MiB
    Threads:    6
    
  ==> Input File <==

--------------------------------------------------------------------------
MEMORY 60 GB

molecule dimer {
0 1
Gh(K)      0.000000     0.000000     0.000000
Gh(O)      1.752063    -1.955740    -0.896493
Gh(H)      2.693070    -2.147140    -1.012955
Gh(H)      1.399783    -2.564561    -0.243759
Gh(O)     -2.037636    -1.672138     0.117504
Gh(H)     -2.427489    -2.365114     0.675856
Gh(H)     -2.816892    -1.155028    -0.141307
O          0.519565    -0.340148     2.890005
H          0.272037     0.564577     2.764165
H         -0.190010    -0.696801     3.468111
Gh(O)     -1.943971     1.609727     0.991987
Gh(H)     -2.039868     2.479130     0.578168
Gh(H)     -2.271273     1.714132     1.898834
Gh(O)     -0.866082     1.453293    -2.302765
Gh(H)     -0.118946     2.054102    -2.495125
Gh(H)     -1.462586     2.104021    -1.901122

units ang
no_reorient
no_com
symmetry c1
}

set {
basis        aug-cc-pVTZ
scf_type     df
}

energy("mp2")
--------------------------------------------------------------------------

  Memory set to  55.879 GiB by Python driver.

Scratch directory: /scratch/
   => Libint2 <=

    Primary   basis highest AM E, G, H:  5, 4, 3
    Auxiliary basis highest AM E, G, H:  6, 5, 4
    Onebody   basis highest AM E, G, H:  6, 5, 4
    Solid Harmonics ordering:            gaussian

*** tstart() called on moses-razer
*** at Wed Jan 24 19:23:35 2024

   => Loading Basis Set <=

    Name: AUG-CC-PVTZ
    Role: ORBITAL
    Keyword: BASIS
    atoms 1                            entry K          line  1152 file /home/kchung25/anaconda3/envs/p415env/share/psi4/basis/aug-cc-pvtz.gbs 
    atoms 2, 5, 8, 11, 14              entry O          line   331 file /home/kchung25/anaconda3/envs/p415env/share/psi4/basis/aug-cc-pvtz.gbs 
    atoms 3-4, 6-7, 9-10, 12-13, 15-16 entry H          line    40 file /home/kchung25/anaconda3/envs/p415env/share/psi4/basis/aug-cc-pvtz.gbs 


         ---------------------------------------------------------
                                   SCF
               by Justin Turney, Rob Parrish, Andy Simmonett
                          and Daniel G. A. Smith
                              RHF Reference
                        6 Threads,  57220 MiB Core
         ---------------------------------------------------------

  ==> Geometry <==

    Molecular point group: c1
    Full point group: C1

    Geometry (in Angstrom), charge = 0, multiplicity = 1:

       Center              X                  Y                   Z               Mass       
    ------------   -----------------  -----------------  -----------------  -----------------
      Gh(K)           0.000000000000     0.000000000000     0.000000000000    38.963706486400
      Gh(O)           1.752063000000    -1.955740000000    -0.896493000000    15.994914619570
      Gh(H)           2.693070000000    -2.147140000000    -1.012955000000     1.007825032230
      Gh(H)           1.399783000000    -2.564561000000    -0.243759000000     1.007825032230
      Gh(O)          -2.037636000000    -1.672138000000     0.117504000000    15.994914619570
      Gh(H)          -2.427489000000    -2.365114000000     0.675856000000     1.007825032230
      Gh(H)          -2.816892000000    -1.155028000000    -0.141307000000     1.007825032230
         O            0.519565000000    -0.340148000000     2.890005000000    15.994914619570
         H            0.272037000000     0.564577000000     2.764165000000     1.007825032230
         H           -0.190010000000    -0.696801000000     3.468111000000     1.007825032230
      Gh(O)          -1.943971000000     1.609727000000     0.991987000000    15.994914619570
      Gh(H)          -2.039868000000     2.479130000000     0.578168000000     1.007825032230
      Gh(H)          -2.271273000000     1.714132000000     1.898834000000     1.007825032230
      Gh(O)          -0.866082000000     1.453293000000    -2.302765000000    15.994914619570
      Gh(H)          -0.118946000000     2.054102000000    -2.495125000000     1.007825032230
      Gh(H)          -1.462586000000     2.104021000000    -1.901122000000     1.007825032230

  Running in c1 symmetry.

  Rotational constants: A =      0.04036  B =      0.03781  C =      0.02830 [cm^-1]
  Rotational constants: A =   1210.00403  B =   1133.63887  C =    848.36243 [MHz]
  Nuclear repulsion =    9.131919759915741

  Charge       = 0
  Multiplicity = 1
  Electrons    = 10
  Nalpha       = 5
  Nbeta        = 5

  ==> Algorithm <==

  SCF Algorithm Type is DF.
  DIIS enabled.
  MOM disabled.
  Fractional occupation disabled.
  Guess Type is SAD.
  Energy threshold   = 1.00e-08
  Density threshold  = 1.00e-08
  Integral threshold = 1.00e-12

  ==> Primary Basis <==

  Basis Set: AUG-CC-PVTZ
    Blend: AUG-CC-PVTZ
    Number of shells: 179
    Number of basis functions: 519
    Number of Cartesian functions: 594
    Spherical Harmonics?: true
    Max angular momentum: 3

   => Loading Basis Set <=

    Name: (AUG-CC-PVTZ AUX)
    Role: JKFIT
    Keyword: DF_BASIS_SCF
    atoms 1                            entry K          line  1152 file /home/kchung25/anaconda3/envs/p415env/share/psi4/basis/def2-universal-jkfit.gbs 
    atoms 2, 5, 8, 11, 14              entry O          line   286 file /home/kchung25/anaconda3/envs/p415env/share/psi4/basis/aug-cc-pvtz-jkfit.gbs 
    atoms 3-4, 6-7, 9-10, 12-13, 15-16 entry H          line    70 file /home/kchung25/anaconda3/envs/p415env/share/psi4/basis/aug-cc-pvtz-jkfit.gbs 

  ==> Integral Setup <==

  DFHelper Memory: AOs need 2.094 GiB; user supplied 41.910 GiB. 
  Using in-core AOs.

  ==> MemDFJK: Density-Fitted J/K Matrices <==

    J tasked:                   Yes
    K tasked:                   Yes
    wK tasked:                   No
    OpenMP threads:               6
    Memory [MiB]:             42915
    Algorithm:                 Core
    Schwarz Cutoff:           1E-12
    Mask sparsity (%):      11.7730
    Fitting Condition:        1E-10

   => Auxiliary Basis Set <=

  Basis Set: (AUG-CC-PVTZ AUX)
    Blend: AUG-CC-PVTZ-JKFIT + DEF2-UNIVERSAL-JKFIT
    Number of shells: 334
    Number of basis functions: 1140
    Number of Cartesian functions: 1408
    Spherical Harmonics?: true
    Max angular momentum: 4

  Minimum eigenvalue in the overlap matrix is 6.4226997637E-05.
  Reciprocal condition number of the overlap matrix is 4.7565870894E-06.
    Using symmetric orthogonalization.

  ==> Pre-Iterations <==

  SCF Guess: Superposition of Atomic Densities via on-the-fly atomic UHF (no occupation information).

   -------------------------
    Irrep   Nso     Nmo    
   -------------------------
     A        519     519 
   -------------------------
    Total     519     519
   -------------------------

  ==> Iterations <==

                           Total Energy        Delta E     RMS |[F,P]|

   @DF-RHF iter SAD:   -75.47038663143630   -7.54704e+01   0.00000e+00 
   @DF-RHF iter   1:   -75.97463096907740   -5.04244e-01   9.02643e-04 ADIIS/DIIS
   @DF-RHF iter   2:   -76.02708223558723   -5.24513e-02   6.19302e-04 ADIIS/DIIS
   @DF-RHF iter   3:   -76.05901394763258   -3.19317e-02   4.21463e-05 DIIS
   @DF-RHF iter   4:   -76.05941235131894   -3.98404e-04   1.02185e-05 DIIS
   @DF-RHF iter   5:   -76.05943807552093   -2.57242e-05   2.34926e-06 DIIS
   @DF-RHF iter   6:   -76.05944022280345   -2.14728e-06   5.16167e-07 DIIS
   @DF-RHF iter   7:   -76.05944033626592   -1.13462e-07   9.19643e-08 DIIS
   @DF-RHF iter   8:   -76.05944033941479   -3.14887e-09   1.55321e-08 DIIS
   @DF-RHF iter   9:   -76.05944033948580   -7.10116e-11   3.88601e-09 DIIS
  Energy and wave function converged.


  ==> Post-Iterations <==

    Orbital Energies [Eh]
    ---------------------

    Doubly Occupied:                                                      

       1A    -20.568621     2A     -1.350787     3A     -0.712387  
       4A     -0.585033     5A     -0.510032  

    Virtual:                                                              

       6A      0.006392     7A      0.009095     8A      0.009611  
       9A      0.010842    10A      0.017957    11A      0.018076  
      12A      0.018552    13A      0.018670    14A      0.019314  
      15A      0.030798    16A      0.032437    17A      0.034548  
      18A      0.038276    19A      0.055111    20A      0.057889  
      21A      0.058585    22A      0.059940    23A      0.063796  
      24A      0.071196    25A      0.073021    26A      0.075843  
      27A      0.077276    28A      0.078676    29A      0.082193  
      30A      0.086209    31A      0.090591    32A      0.093130  
      33A      0.095650    34A      0.103324    35A      0.114182  
      36A      0.131063    37A      0.136046    38A      0.143371  
      39A      0.148375    40A      0.151317    41A      0.156410  
      42A      0.159112    43A      0.166148    44A      0.173611  
      45A      0.177983    46A      0.178898    47A      0.184097  
      48A      0.188255    49A      0.190250    50A      0.193022  
      51A      0.198834    52A      0.205663    53A      0.214180  
      54A      0.220534    55A      0.227305    56A      0.234029  
      57A      0.239555    58A      0.244652    59A      0.247091  
      60A      0.254960    61A      0.264381    62A      0.270408  
      63A      0.271229    64A      0.277166    65A      0.283428  
      66A      0.290329    67A      0.291727    68A      0.304669  
      69A      0.315450    70A      0.325183    71A      0.333790  
      72A      0.335678    73A      0.339318    74A      0.346824  
      75A      0.348378    76A      0.356318    77A      0.357214  
      78A      0.365361    79A      0.369482    80A      0.375945  
      81A      0.379803    82A      0.391863    83A      0.397224  
      84A      0.410771    85A      0.413963    86A      0.418373  
      87A      0.421820    88A      0.426782    89A      0.430111  
      90A      0.434687    91A      0.440492    92A      0.442657  
      93A      0.450901    94A      0.455508    95A      0.457027  
      96A      0.464506    97A      0.467322    98A      0.474236  
      99A      0.478292   100A      0.479608   101A      0.485784  
     102A      0.487764   103A      0.504376   104A      0.506789  
     105A      0.508840   106A      0.512188   107A      0.515919  
     108A      0.532682   109A      0.535346   110A      0.540086  
     111A      0.549943   112A      0.555893   113A      0.570566  
     114A      0.587917   115A      0.597743   116A      0.604179  
     117A      0.621692   118A      0.629604   119A      0.640215  
     120A      0.677322   121A      0.697090   122A      0.707230  
     123A      0.726591   124A      0.744658   125A      0.748705  
     126A      0.757623   127A      0.766599   128A      0.770378  
     129A      0.789313   130A      0.797979   131A      0.801315  
     132A      0.811380   133A      0.816884   134A      0.827921  
     135A      0.834460   136A      0.840129   137A      0.845196  
     138A      0.853451   139A      0.855317   140A      0.857669  
     141A      0.867881   142A      0.878162   143A      0.883133  
     144A      0.890528   145A      0.891749   146A      0.901645  
     147A      0.906959   148A      0.912389   149A      0.928462  
     150A      0.932119   151A      0.937468   152A      0.943103  
     153A      0.948261   154A      0.955794   155A      0.962090  
     156A      0.971882   157A      0.976792   158A      0.987766  
     159A      0.991349   160A      0.993567   161A      0.998939  
     162A      1.004090   163A      1.015554   164A      1.025214  
     165A      1.035435   166A      1.038050   167A      1.040797  
     168A      1.050375   169A      1.063371   170A      1.066909  
     171A      1.072154   172A      1.082356   173A      1.084841  
     174A      1.094409   175A      1.106100   176A      1.108073  
     177A      1.112326   178A      1.120191   179A      1.129320  
     180A      1.135399   181A      1.141062   182A      1.147040  
     183A      1.148100   184A      1.152259   185A      1.162453  
     186A      1.173951   187A      1.174637   188A      1.182473  
     189A      1.193291   190A      1.194746   191A      1.200532  
     192A      1.213102   193A      1.221395   194A      1.229153  
     195A      1.240438   196A      1.244042   197A      1.249501  
     198A      1.266327   199A      1.272099   200A      1.284884  
     201A      1.302007   202A      1.307700   203A      1.322768  
     204A      1.331083   205A      1.339343   206A      1.344371  
     207A      1.348322   208A      1.354668   209A      1.362252  
     210A      1.374578   211A      1.393618   212A      1.405750  
     213A      1.410810   214A      1.448618   215A      1.457052  
     216A      1.511066   217A      1.523064   218A      1.530483  
     219A      1.531540   220A      1.562805   221A      1.565673  
     222A      1.595173   223A      1.607560   224A      1.623474  
     225A      1.628596   226A      1.670459   227A      1.709651  
     228A      1.740376   229A      1.757341   230A      1.773438  
     231A      1.784651   232A      1.792942   233A      1.804889  
     234A      1.817295   235A      1.831965   236A      1.836282  
     237A      1.846772   238A      1.857067   239A      1.861091  
     240A      1.869762   241A      1.877427   242A      1.900092  
     243A      1.905796   244A      1.919651   245A      1.925989  
     246A      1.946951   247A      1.959960   248A      1.986646  
     249A      1.992080   250A      2.014338   251A      2.064245  
     252A      2.090221   253A      2.102510   254A      2.151576  
     255A      2.160559   256A      2.240845   257A      2.284055  
     258A      2.317019   259A      2.344317   260A      2.373230  
     261A      2.402441   262A      2.405204   263A      2.420822  
     264A      2.434162   265A      2.445526   266A      2.455683  
     267A      2.465484   268A      2.478830   269A      2.487357  
     270A      2.490727   271A      2.511718   272A      2.531610  
     273A      2.546638   274A      2.554099   275A      2.561993  
     276A      2.567977   277A      2.574451   278A      2.589189  
     279A      2.591692   280A      2.597337   281A      2.607159  
     282A      2.618931   283A      2.622947   284A      2.634089  
     285A      2.641074   286A      2.648798   287A      2.655939  
     288A      2.668098   289A      2.683069   290A      2.690826  
     291A      2.716782   292A      2.737656   293A      2.756807  
     294A      2.775824   295A      2.785705   296A      2.804539  
     297A      2.817895   298A      2.828461   299A      2.840197  
     300A      2.843425   301A      2.861601   302A      2.865730  
     303A      2.882080   304A      2.890176   305A      2.917441  
     306A      2.934182   307A      2.967531   308A      2.975869  
     309A      2.982702   310A      3.004227   311A      3.112994  
     312A      3.131267   313A      3.167062   314A      3.226192  
     315A      3.232323   316A      3.245591   317A      3.250235  
     318A      3.254061   319A      3.274314   320A      3.295581  
     321A      3.317597   322A      3.331734   323A      3.338310  
     324A      3.344639   325A      3.354573   326A      3.363657  
     327A      3.370543   328A      3.387214   329A      3.398323  
     330A      3.415544   331A      3.445053   332A      3.503437  
     333A      3.596704   334A      3.609511   335A      3.631924  
     336A      3.708391   337A      3.726453   338A      3.737482  
     339A      3.751910   340A      3.784630   341A      3.818112  
     342A      3.866999   343A      4.075654   344A      4.217925  
     345A      4.278270   346A      4.290801   347A      4.358529  
     348A      4.370084   349A      4.394906   350A      4.409948  
     351A      4.428234   352A      4.439214   353A      4.458454  
     354A      4.479987   355A      4.485134   356A      4.503498  
     357A      4.504819   358A      4.525756   359A      4.537142  
     360A      4.541520   361A      4.560900   362A      4.569761  
     363A      4.572860   364A      4.611252   365A      4.631070  
     366A      4.659745   367A      4.679637   368A      4.686071  
     369A      4.707060   370A      4.710576   371A      4.729407  
     372A      4.746339   373A      4.758588   374A      4.771439  
     375A      4.777025   376A      4.808081   377A      4.858067  
     378A      4.873764   379A      4.932269   380A      4.948909  
     381A      4.950911   382A      4.959554   383A      4.970968  
     384A      4.977652   385A      4.983820   386A      4.997827  
     387A      5.019223   388A      5.056364   389A      5.063505  
     390A      5.151996   391A      5.167917   392A      5.179864  
     393A      5.231376   394A      5.247906   395A      5.266157  
     396A      5.282464   397A      5.366811   398A      5.512948  
     399A      5.516325   400A      5.540086   401A      5.544008  
     402A      5.582388   403A      5.589218   404A      5.599380  
     405A      5.613448   406A      5.617833   407A      5.629655  
     408A      5.640237   409A      5.657737   410A      5.676970  
     411A      5.730045   412A      5.817224   413A      5.854439  
     414A      5.879343   415A      5.916219   416A      6.139177  
     417A      6.164428   418A      6.170804   419A      6.194952  
     420A      6.252973   421A      6.287873   422A      6.358946  
     423A      6.365134   424A      6.395490   425A      6.576891  
     426A      6.594064   427A      6.627485   428A      6.737298  
     429A      6.765757   430A      6.779758   431A      6.954059  
     432A      7.021589   433A      7.051333   434A      7.078072  
     435A      7.092233   436A      7.172894   437A      7.307984  
     438A      7.343667   439A      7.372086   440A      7.422077  
     441A      7.428602   442A      7.577825   443A      7.683360  
     444A      7.696940   445A      7.707193   446A      7.717125  
     447A      7.794905   448A      7.820191   449A      7.855851  
     450A      7.895839   451A      7.910428   452A      7.970506  
     453A      8.057792   454A      8.062835   455A      8.077691  
     456A      8.090977   457A      8.111378   458A      8.137882  
     459A      8.203773   460A      8.242842   461A      8.269023  
     462A      8.290925   463A      8.294945   464A      8.308989  
     465A      8.627414   466A      8.679691   467A      8.746272  
     468A      8.790700   469A      8.810993   470A      8.813226  
     471A      8.817394   472A      8.826416   473A      8.834358  
     474A      9.723288   475A      9.766946   476A      9.797675  
     477A      9.802401   478A      9.927105   479A      9.945108  
     480A      9.963793   481A      9.977951   482A     10.015967  
     483A     10.029387   484A     10.040557   485A     10.044448  
     486A     10.214350   487A     10.229341   488A     10.253245  
     489A     10.258517   490A     10.461045   491A     11.170866  
     492A     11.181198   493A     11.194067   494A     11.205782  
     495A     11.661982   496A     11.682832   497A     11.708784  
     498A     11.747012   499A     12.020674   500A     12.041056  
     501A     12.105724   502A     12.136046   503A     13.521661  
     504A     13.528944   505A     13.545147   506A     13.551635  
     507A     13.854484   508A     13.882426   509A     13.901696  
     510A     13.921653   511A     15.925206   512A     30.893833  
     513A     31.081143   514A     31.357794   515A     64.333988  
     516A     64.397085   517A     64.651188   518A     64.861833  
     519A    198.204845  

    Final Occupation by Irrep:
              A 
    DOCC [     5 ]
    NA   [     5 ]
    NB   [     5 ]

  @DF-RHF Final Energy:   -76.05944033948580

   => Energetics <=

    Nuclear Repulsion Energy =              9.1319197599157409
    One-Electron Energy =                -122.9289968526680497
    Two-Electron Energy =                  37.7376367532665000
    Total Energy =                        -76.0594403394858034

Computation Completed


Properties will be evaluated at   0.000000,   0.000000,   0.000000 [a0]

Properties computed using the SCF density matrix


 Multipole Moments:

 ------------------------------------------------------------------------------------
     Multipole            Electronic (a.u.)      Nuclear  (a.u.)        Total (a.u.)
 ------------------------------------------------------------------------------------

 L = 1.  Multiply by 2.5417464519 to convert [e a0] to [Debye]
 Dipole X            :         -8.6400441            8.0096930           -0.6303511
 Dipole Y            :          5.7597201           -5.3921596            0.3675604
 Dipole Z            :        -55.1717814           55.4678384            0.2960570
 Magnitude           :                                                    0.7874598

 ------------------------------------------------------------------------------------

*** tstop() called on moses-razer at Wed Jan 24 19:23:47 2024
Module time:
	user time   =      42.20 seconds =       0.70 minutes
	system time =       2.40 seconds =       0.04 minutes
	total time  =         12 seconds =       0.20 minutes
Total time:
	user time   =      42.20 seconds =       0.70 minutes
	system time =       2.40 seconds =       0.04 minutes
	total time  =         12 seconds =       0.20 minutes

*** tstart() called on moses-razer
*** at Wed Jan 24 19:23:47 2024


  //>>>>>>>>>>>>>>>>>>>>>>>>>>>>>>>>>>>//
  //               DFMP2               //
  //<<<<<<<<<<<<<<<<<<<<<<<<<<<<<<<<<<<//

   => Loading Basis Set <=

    Name: (AUG-CC-PVTZ AUX)
    Role: RIFIT
    Keyword: DF_BASIS_MP2
    atoms 1                            entry K          line  1282 file /home/kchung25/anaconda3/envs/p415env/share/psi4/basis/def2-qzvpp-ri.gbs 
    atoms 2, 5, 8, 11, 14              entry O          line   264 file /home/kchung25/anaconda3/envs/p415env/share/psi4/basis/aug-cc-pvtz-ri.gbs 
    atoms 3-4, 6-7, 9-10, 12-13, 15-16 entry H          line    30 file /home/kchung25/anaconda3/envs/p415env/share/psi4/basis/aug-cc-pvtz-ri.gbs 

	 --------------------------------------------------------
	                          DF-MP2                         
	      2nd-Order Density-Fitted Moller-Plesset Theory     
	              RMP2 Wavefunction,   6 Threads             
	                                                         
	        Rob Parrish, Justin Turney, Andy Simmonett,      
	           Ed Hohenstein, and C. David Sherrill          
	 --------------------------------------------------------

   => Auxiliary Basis Set <=

  Basis Set: (AUG-CC-PVTZ AUX)
    Blend: AUG-CC-PVTZ-RI + DEF2-QZVPP-RI
    Number of shells: 329
    Number of basis functions: 1189
    Number of Cartesian functions: 1492
    Spherical Harmonics?: true
    Max angular momentum: 4

	 --------------------------------------------------------
	                 NBF =   519, NAUX =  1189
	 --------------------------------------------------------
	   CLASS    FOCC     OCC    AOCC    AVIR     VIR    FVIR
	   PAIRS       0       5       5     514     514       0
	 --------------------------------------------------------

	-----------------------------------------------------------
	 ==================> DF-MP2 Energies <==================== 
	-----------------------------------------------------------
	 Reference Energy          =     -76.0594403394858034 [Eh]
	 Singles Energy            =      -0.0000000000000000 [Eh]
	 Same-Spin Energy          =      -0.0685143180707351 [Eh]
	 Opposite-Spin Energy      =      -0.2159618771635165 [Eh]
	 Correlation Energy        =      -0.2844761952342517 [Eh]
	 Total Energy              =     -76.3439165347200515 [Eh]
	-----------------------------------------------------------
	 ================> DF-SCS-MP2 Energies <================== 
	-----------------------------------------------------------
	 SCS Same-Spin Scale       =       0.3333333333333333 [-]
	 SCS Opposite-Spin Scale   =       1.2000000000000000 [-]
	 SCS Same-Spin Energy      =      -0.0228381060235784 [Eh]
	 SCS Opposite-Spin Energy  =      -0.2591542525962198 [Eh]
	 SCS Correlation Energy    =      -0.2819923586197982 [Eh]
	 SCS Total Energy          =     -76.3414326981056064 [Eh]
	-----------------------------------------------------------


*** tstop() called on moses-razer at Wed Jan 24 19:23:55 2024
Module time:
	user time   =      17.54 seconds =       0.29 minutes
	system time =       1.39 seconds =       0.02 minutes
	total time  =          8 seconds =       0.13 minutes
Total time:
	user time   =      59.74 seconds =       1.00 minutes
	system time =       3.79 seconds =       0.06 minutes
	total time  =         20 seconds =       0.33 minutes

    Psi4 stopped on: Wednesday, 24 January 2024 07:23PM
    Psi4 wall time for execution: 0:00:20.01

*** Psi4 exiting successfully. Buy a developer a beer!
