
    -----------------------------------------------------------------------
          Psi4: An Open-Source Ab Initio Electronic Structure Package
                               Psi4 1.9 release

                         Git: Rev {} zzzzzzz 


    D. G. A. Smith, L. A. Burns, A. C. Simmonett, R. M. Parrish,
    M. C. Schieber, R. Galvelis, P. Kraus, H. Kruse, R. Di Remigio,
    A. Alenaizan, A. M. James, S. Lehtola, J. P. Misiewicz, M. Scheurer,
    R. A. Shaw, J. B. Schriber, Y. Xie, Z. L. Glick, D. A. Sirianni,
    J. S. O'Brien, J. M. Waldrop, A. Kumar, E. G. Hohenstein,
    B. P. Pritchard, B. R. Brooks, H. F. Schaefer III, A. Yu. Sokolov,
    K. Patkowski, A. E. DePrince III, U. Bozkaya, R. A. King,
    F. A. Evangelista, J. M. Turney, T. D. Crawford, C. D. Sherrill,
    J. Chem. Phys. 152(18) 184108 (2020). https://doi.org/10.1063/5.0006002

                            Additional Code Authors
    E. T. Seidl, C. L. Janssen, E. F. Valeev, M. L. Leininger,
    J. F. Gonthier, R. M. Richard, H. R. McAlexander, M. Saitow, X. Wang,
    P. Verma, M. H. Lechner, A. Jiang, S. Behnle, A. G. Heide,
    M. F. Herbst, and D. L. Poole

             Previous Authors, Complete List of Code Contributors,
                       and Citations for Specific Modules
    https://github.com/psi4/psi4/blob/master/codemeta.json
    https://github.com/psi4/psi4/graphs/contributors
    http://psicode.org/psi4manual/master/introduction.html#citing-psifour

    -----------------------------------------------------------------------


    Psi4 started on: Saturday, 06 January 2024 08:04PM

    Process ID: 554081
    Host:       moses-razer
    PSIDATADIR: /home/kchung25/anaconda3/envs/psi4_19/share/psi4
    Memory:     500.0 MiB
    Threads:    6
    
  ==> Input File <==

--------------------------------------------------------------------------
MEMORY 60 GB

molecule dimer {
1 1
K      0.000000     0.000000     0.000000
--
0 1
O      0.309615    -2.623382    -1.550755
H      0.073529    -3.411695    -2.042004
H      0.732044    -2.924054    -0.731434
O     -2.529295     1.007717     0.149432
H     -3.031134     1.319525    -0.599291
H     -2.665484     0.041905     0.322961
O      1.728418     1.676356     0.611770
H      1.306700     2.209773     1.232986
H      2.018027     2.273752    -0.126886
O      0.635505    -0.312124     2.701636
H     -0.164451    -0.813360     3.054926
H      0.947635     0.214693     3.417860
O      0.007774     0.682534    -2.427733
H     -0.877989     0.809481    -2.864264
H      0.577915     0.435714    -3.144891

units ang
no_reorient
no_com
symmetry c1
}

set {
basis        aug-cc-pVTZ
scf_type     df
}

energy("mp2", bsse_type="cp")
--------------------------------------------------------------------------

  Memory set to  55.879 GiB by Python driver.

Scratch directory: /scratch/

  //>>>>>>>>>>>>>>>>>>>>>>>>>>>>>>>>>>>>>//
  // ManyBody Setup: N-Body Levels [1, 2]//
  //<<<<<<<<<<<<<<<<<<<<<<<<<<<<<<<<<<<<<//

        Number of 1-body computations:     2
        Number of 2-body computations:     1

    -----------------------------------------------------------------------
          Psi4: An Open-Source Ab Initio Electronic Structure Package
                               Psi4 1.9 release

                         Git: Rev {} zzzzzzz 


    D. G. A. Smith, L. A. Burns, A. C. Simmonett, R. M. Parrish,
    M. C. Schieber, R. Galvelis, P. Kraus, H. Kruse, R. Di Remigio,
    A. Alenaizan, A. M. James, S. Lehtola, J. P. Misiewicz, M. Scheurer,
    R. A. Shaw, J. B. Schriber, Y. Xie, Z. L. Glick, D. A. Sirianni,
    J. S. O'Brien, J. M. Waldrop, A. Kumar, E. G. Hohenstein,
    B. P. Pritchard, B. R. Brooks, H. F. Schaefer III, A. Yu. Sokolov,
    K. Patkowski, A. E. DePrince III, U. Bozkaya, R. A. King,
    F. A. Evangelista, J. M. Turney, T. D. Crawford, C. D. Sherrill,
    J. Chem. Phys. 152(18) 184108 (2020). https://doi.org/10.1063/5.0006002

                            Additional Code Authors
    E. T. Seidl, C. L. Janssen, E. F. Valeev, M. L. Leininger,
    J. F. Gonthier, R. M. Richard, H. R. McAlexander, M. Saitow, X. Wang,
    P. Verma, M. H. Lechner, A. Jiang, S. Behnle, A. G. Heide,
    M. F. Herbst, and D. L. Poole

             Previous Authors, Complete List of Code Contributors,
                       and Citations for Specific Modules
    https://github.com/psi4/psi4/blob/master/codemeta.json
    https://github.com/psi4/psi4/graphs/contributors
    http://psicode.org/psi4manual/master/introduction.html#citing-psifour

    -----------------------------------------------------------------------


    Psi4 started on: Saturday, 06 January 2024 08:04PM

    Process ID: 554081
    Host:       moses-razer
    PSIDATADIR: /home/kchung25/anaconda3/envs/psi4_19/share/psi4
    Memory:     55.9 GiB
    Threads:    6
    
  ==> Input QCSchema <==

--------------------------------------------------------------------------
{'driver': 'energy',
 'extras': {'psiapi': True, 'wfn_qcvars_only': True},
 'id': None,
 'keywords': {'SCF_TYPE': 'DF', 'function_kwargs': {}},
 'model': {'basis': 'aug-cc-pvtz', 'method': 'mp2'},
 'molecule': {'atom_labels': ['', '', '', '', '', '', '', '', '', '', '', '', '', '', '', ''],
              'atomic_numbers': [19, 8, 1, 1, 8, 1, 1, 8, 1, 1, 8, 1, 1, 8, 1, 1],
              'extras': {},
              'fix_com': True,
              'fix_orientation': True,
              'fix_symmetry': 'c1',
              'fragment_charges': [0.0, 0.0],
              'fragment_multiplicities': [1, 1],
              'fragments': [[0], [1, 2, 3, 4, 5, 6, 7, 8, 9, 10, 11, 12, 13, 14, 15]],
              'geometry': [0.0, 0.0, 0.0, 0.5850875543336254, -4.957473502455808, -2.9305022376843546,
                           0.13894967227878863, -6.447169173593845, -3.8588283070893867, 1.3833626717846503,
                           -5.525661236049464, -1.382209938848121, -4.779674840489857, 1.904309141967986,
                           0.2823855543794142, -5.728013109563489, 2.4935408656947406, -1.1324958594517474,
                           -5.037034751789834, 0.07918897328731028, 0.6103078392039857, 3.2662366503115683,
                           3.167853728767983, 1.1560777517713356, 2.469305128135744, 4.175865769431321,
                           2.3300058565237456, 3.813518343779285, 4.296768557211988, -0.23977978915484197,
                           1.2009304013590771, -0.5898288771823992, 5.105352130677385, -0.31076735105766534,
                           -1.5370276414023791, 5.7729734735403815, 1.790770616898229, 0.4057109710529175,
                           6.458819335157293, 0.014690730899309156, 1.2898023313132332, -4.587750475736108,
                           -1.659158751164593, 1.5296973937617282, -5.4126745110083405, 1.0921010737939607,
                           0.8233801290277322, -5.942982684417195],
              'mass_numbers': [39, 16, 1, 1, 16, 1, 1, 16, 1, 1, 16, 1, 1, 16, 1, 1],
              'masses': [38.9637064864, 15.99491461957, 1.00782503223, 1.00782503223, 15.99491461957, 1.00782503223,
                         1.00782503223, 15.99491461957, 1.00782503223, 1.00782503223, 15.99491461957, 1.00782503223,
                         1.00782503223, 15.99491461957, 1.00782503223, 1.00782503223],
              'molecular_charge': 0.0,
              'molecular_multiplicity': 1,
              'name': 'dimer',
              'provenance': {'creator': 'QCElemental',
                             'routine': 'qcelemental.molparse.from_string',
                             'version': '0.27.1'},
              'real': [False, True, True, True, True, True, True, True, True, True, True, True, True, True, True, True],
              'schema_name': 'qcschema_molecule',
              'schema_version': 2,
              'symbols': ['K', 'O', 'H', 'H', 'O', 'H', 'H', 'O', 'H', 'H', 'O', 'H', 'H', 'O', 'H', 'H'],
              'validated': True},
 'protocols': {'stdout': True},
 'provenance': {'creator': 'QCElemental', 'routine': 'qcelemental.models.results', 'version': '0.27.1'},
 'schema_name': 'qcschema_input',
 'schema_version': 1}
--------------------------------------------------------------------------

Scratch directory: /scratch/
   => Libint2 <=

    Primary   basis highest AM E, G, H:  5, 4, 3
    Auxiliary basis highest AM E, G, H:  6, 5, 4
    Onebody   basis highest AM E, G, H:  6, 5, 4
    Solid Harmonics ordering:            gaussian

*** tstart() called on moses-razer
*** at Sat Jan  6 20:05:01 2024

   => Loading Basis Set <=

    Name: AUG-CC-PVTZ
    Role: ORBITAL
    Keyword: BASIS
    atoms 1                            entry K          line  1152 file /home/kchung25/anaconda3/envs/p415env/share/psi4/basis/aug-cc-pvtz.gbs 
    atoms 2, 5, 8, 11, 14              entry O          line   331 file /home/kchung25/anaconda3/envs/p415env/share/psi4/basis/aug-cc-pvtz.gbs 
    atoms 3-4, 6-7, 9-10, 12-13, 15-16 entry H          line    40 file /home/kchung25/anaconda3/envs/p415env/share/psi4/basis/aug-cc-pvtz.gbs 


         ---------------------------------------------------------
                                   SCF
               by Justin Turney, Rob Parrish, Andy Simmonett
                          and Daniel G. A. Smith
                              RHF Reference
                        6 Threads,  57220 MiB Core
         ---------------------------------------------------------

  ==> Geometry <==

    Molecular point group: c1
    Full point group: C1

    Geometry (in Bohr), charge = 0, multiplicity = 1:

       Center              X                  Y                   Z               Mass       
    ------------   -----------------  -----------------  -----------------  -----------------
      Gh(K)           0.000000000000     0.000000000000     0.000000000000    38.963706486400
         O            0.585087554334    -4.957473502456    -2.930502237684    15.994914619570
         H            0.138949672279    -6.447169173594    -3.858828307089     1.007825032230
         H            1.383362671785    -5.525661236049    -1.382209938848     1.007825032230
         O           -4.779674840490     1.904309141968     0.282385554379    15.994914619570
         H           -5.728013109563     2.493540865695    -1.132495859452     1.007825032230
         H           -5.037034751790     0.079188973287     0.610307839204     1.007825032230
         O            3.266236650312     3.167853728768     1.156077751771    15.994914619570
         H            2.469305128136     4.175865769431     2.330005856524     1.007825032230
         H            3.813518343779     4.296768557212    -0.239779789155     1.007825032230
         O            1.200930401359    -0.589828877182     5.105352130677    15.994914619570
         H           -0.310767351058    -1.537027641402     5.772973473540     1.007825032230
         H            1.790770616898     0.405710971053     6.458819335157     1.007825032230
         O            0.014690730899     1.289802331313    -4.587750475736    15.994914619570
         H           -1.659158751165     1.529697393762    -5.412674511008     1.007825032230
         H            1.092101073794     0.823380129028    -5.942982684417     1.007825032230

  Running in c1 symmetry.

  Rotational constants: A =      0.04565  B =      0.03438  C =      0.03131 [cm^-1]
  Rotational constants: A =   1368.44863  B =   1030.55579  C =    938.78892 [MHz]
  Nuclear repulsion =  170.108040632112193

  Charge       = 0
  Multiplicity = 1
  Electrons    = 50
  Nalpha       = 25
  Nbeta        = 25

  ==> Algorithm <==

  SCF Algorithm Type is DF.
  DIIS enabled.
  MOM disabled.
  Fractional occupation disabled.
  Guess Type is SAD.
  Energy threshold   = 1.00e-08
  Density threshold  = 1.00e-08
  Integral threshold = 1.00e-12

  ==> Primary Basis <==

  Basis Set: AUG-CC-PVTZ
    Blend: AUG-CC-PVTZ
    Number of shells: 179
    Number of basis functions: 519
    Number of Cartesian functions: 594
    Spherical Harmonics?: true
    Max angular momentum: 3

   => Loading Basis Set <=

    Name: (AUG-CC-PVTZ AUX)
    Role: JKFIT
    Keyword: DF_BASIS_SCF
    atoms 1                            entry K          line  1152 file /home/kchung25/anaconda3/envs/p415env/share/psi4/basis/def2-universal-jkfit.gbs 
    atoms 2, 5, 8, 11, 14              entry O          line   286 file /home/kchung25/anaconda3/envs/p415env/share/psi4/basis/aug-cc-pvtz-jkfit.gbs 
    atoms 3-4, 6-7, 9-10, 12-13, 15-16 entry H          line    70 file /home/kchung25/anaconda3/envs/p415env/share/psi4/basis/aug-cc-pvtz-jkfit.gbs 

  ==> Integral Setup <==

  DFHelper Memory: AOs need 2.081 GiB; user supplied 41.910 GiB. 
  Using in-core AOs.

  ==> MemDFJK: Density-Fitted J/K Matrices <==

    J tasked:                   Yes
    K tasked:                   Yes
    wK tasked:                   No
    OpenMP threads:               6
    Memory [MiB]:             42915
    Algorithm:                 Core
    Schwarz Cutoff:           1E-12
    Mask sparsity (%):      12.3537
    Fitting Condition:        1E-10

   => Auxiliary Basis Set <=

  Basis Set: (AUG-CC-PVTZ AUX)
    Blend: AUG-CC-PVTZ-JKFIT + DEF2-UNIVERSAL-JKFIT
    Number of shells: 334
    Number of basis functions: 1140
    Number of Cartesian functions: 1408
    Spherical Harmonics?: true
    Max angular momentum: 4

  Minimum eigenvalue in the overlap matrix is 6.0641631825E-05.
  Reciprocal condition number of the overlap matrix is 4.6161605318E-06.
    Using symmetric orthogonalization.

  ==> Pre-Iterations <==

  SCF Guess: Superposition of Atomic Densities via on-the-fly atomic UHF (no occupation information).

   -------------------------
    Irrep   Nso     Nmo    
   -------------------------
     A        519     519 
   -------------------------
    Total     519     519
   -------------------------

  ==> Iterations <==

                           Total Energy        Delta E     RMS |[F,P]|

   @DF-RHF iter SAD:  -377.34426674221930   -3.77344e+02   0.00000e+00 
   @DF-RHF iter   1:  -379.84120984105596   -2.49694e+00   2.03868e-03 DIIS/ADIIS
   @DF-RHF iter   2:  -380.10657697919760   -2.65367e-01   1.42043e-03 DIIS/ADIIS
   @DF-RHF iter   3:  -380.27683715083725   -1.70260e-01   9.69377e-05 DIIS
   @DF-RHF iter   4:  -380.27899840555119   -2.16125e-03   2.47371e-05 DIIS
   @DF-RHF iter   5:  -380.27914566922982   -1.47264e-04   7.04917e-06 DIIS
   @DF-RHF iter   6:  -380.27915931893409   -1.36497e-05   3.21454e-06 DIIS
   @DF-RHF iter   7:  -380.27916111551133   -1.79658e-06   7.46906e-07 DIIS
   @DF-RHF iter   8:  -380.27916132697527   -2.11464e-07   1.34862e-07 DIIS
   @DF-RHF iter   9:  -380.27916133368933   -6.71406e-09   2.68740e-08 DIIS
   @DF-RHF iter  10:  -380.27916133388942   -2.00089e-10   1.05158e-08 DIIS
   @DF-RHF iter  11:  -380.27916133390977   -2.03499e-11   4.05971e-09 DIIS
  Energy and wave function converged.


  ==> Post-Iterations <==

    Orbital Energies [Eh]
    ---------------------

    Doubly Occupied:                                                      

       1A    -20.551649     2A    -20.550981     3A    -20.548504  
       4A    -20.542526     5A    -20.526550     6A     -1.332876  
       7A     -1.326327     8A     -1.323567     9A     -1.319347  
      10A     -1.313902    11A     -0.707041    12A     -0.701930  
      13A     -0.693680    14A     -0.682898    15A     -0.680794  
      16A     -0.563241    17A     -0.560429    18A     -0.553933  
      19A     -0.548639    20A     -0.537322    21A     -0.493264  
      22A     -0.489825    23A     -0.488727    24A     -0.480572  
      25A     -0.469305  

    Virtual:                                                              

      26A      0.007491    27A      0.008790    28A      0.009880  
      29A      0.012273    30A      0.017410    31A      0.018070  
      32A      0.018725    33A      0.019383    34A      0.019654  
      35A      0.034613    36A      0.035071    37A      0.037843  
      38A      0.049096    39A      0.055464    40A      0.058989  
      41A      0.061919    42A      0.064679    43A      0.066166  
      44A      0.070056    45A      0.076283    46A      0.077403  
      47A      0.079733    48A      0.083714    49A      0.085223  
      50A      0.090690    51A      0.095425    52A      0.097598  
      53A      0.103167    54A      0.125063    55A      0.131350  
      56A      0.139301    57A      0.151322    58A      0.159186  
      59A      0.161623    60A      0.171223    61A      0.173291  
      62A      0.178433    63A      0.180114    64A      0.191106  
      65A      0.193607    66A      0.201220    67A      0.202566  
      68A      0.212524    69A      0.214081    70A      0.217696  
      71A      0.221034    72A      0.223235    73A      0.230262  
      74A      0.237700    75A      0.240360    76A      0.245946  
      77A      0.250739    78A      0.254844    79A      0.259967  
      80A      0.272383    81A      0.276717    82A      0.287683  
      83A      0.294315    84A      0.299777    85A      0.307722  
      86A      0.313288    87A      0.317365    88A      0.323178  
      89A      0.334490    90A      0.337154    91A      0.344006  
      92A      0.347522    93A      0.360995    94A      0.369766  
      95A      0.372032    96A      0.372838    97A      0.375970  
      98A      0.390608    99A      0.393703   100A      0.399288  
     101A      0.407002   102A      0.414491   103A      0.419246  
     104A      0.430640   105A      0.432111   106A      0.438101  
     107A      0.443369   108A      0.449027   109A      0.457137  
     110A      0.462041   111A      0.468299   112A      0.472770  
     113A      0.476126   114A      0.482783   115A      0.485415  
     116A      0.487444   117A      0.491206   118A      0.496661  
     119A      0.501870   120A      0.506358   121A      0.509871  
     122A      0.513374   123A      0.517195   124A      0.518209  
     125A      0.524786   126A      0.537693   127A      0.541075  
     128A      0.548575   129A      0.550663   130A      0.557510  
     131A      0.563508   132A      0.581857   133A      0.605116  
     134A      0.617082   135A      0.623678   136A      0.631771  
     137A      0.657604   138A      0.664970   139A      0.677568  
     140A      0.691302   141A      0.708245   142A      0.720327  
     143A      0.728179   144A      0.732478   145A      0.736068  
     146A      0.751577   147A      0.763151   148A      0.776375  
     149A      0.780964   150A      0.787030   151A      0.792246  
     152A      0.808893   153A      0.813982   154A      0.829545  
     155A      0.833202   156A      0.838431   157A      0.846999  
     158A      0.855324   159A      0.860411   160A      0.870912  
     161A      0.880561   162A      0.889877   163A      0.896573  
     164A      0.902965   165A      0.911910   166A      0.920715  
     167A      0.929453   168A      0.937913   169A      0.950575  
     170A      0.954922   171A      0.968281   172A      0.975145  
     173A      0.979055   174A      0.981293   175A      0.988977  
     176A      0.996568   177A      1.004460   178A      1.014988  
     179A      1.017981   180A      1.029676   181A      1.032602  
     182A      1.040350   183A      1.042619   184A      1.046609  
     185A      1.059527   186A      1.065246   187A      1.067440  
     188A      1.073737   189A      1.083106   190A      1.083805  
     191A      1.090697   192A      1.096747   193A      1.102049  
     194A      1.111490   195A      1.114269   196A      1.119401  
     197A      1.121400   198A      1.131197   199A      1.136753  
     200A      1.140250   201A      1.143084   202A      1.156197  
     203A      1.159374   204A      1.171788   205A      1.175329  
     206A      1.186738   207A      1.191340   208A      1.199203  
     209A      1.204121   210A      1.212576   211A      1.216402  
     212A      1.222121   213A      1.228007   214A      1.238255  
     215A      1.249196   216A      1.257876   217A      1.264280  
     218A      1.273119   219A      1.281039   220A      1.288841  
     221A      1.296732   222A      1.305923   223A      1.311664  
     224A      1.322563   225A      1.327295   226A      1.341328  
     227A      1.343955   228A      1.358442   229A      1.371790  
     230A      1.380357   231A      1.385345   232A      1.401155  
     233A      1.408231   234A      1.421008   235A      1.439608  
     236A      1.443158   237A      1.482413   238A      1.497863  
     239A      1.520184   240A      1.563695   241A      1.597477  
     242A      1.610804   243A      1.622223   244A      1.635696  
     245A      1.658103   246A      1.663133   247A      1.679677  
     248A      1.686368   249A      1.701166   250A      1.710775  
     251A      1.717975   252A      1.733161   253A      1.742835  
     254A      1.776737   255A      1.787387   256A      1.792820  
     257A      1.855388   258A      1.856517   259A      1.872783  
     260A      1.885786   261A      1.941243   262A      1.964198  
     263A      1.989890   264A      1.991512   265A      2.017167  
     266A      2.029777   267A      2.033531   268A      2.042892  
     269A      2.051686   270A      2.066801   271A      2.158208  
     272A      2.161997   273A      2.165227   274A      2.169043  
     275A      2.214969   276A      2.277788   277A      2.289540  
     278A      2.324312   279A      2.333120   280A      2.341880  
     281A      2.356602   282A      2.365361   283A      2.371871  
     284A      2.382953   285A      2.397682   286A      2.398993  
     287A      2.413840   288A      2.425603   289A      2.444056  
     290A      2.447648   291A      2.452733   292A      2.460767  
     293A      2.466891   294A      2.471360   295A      2.491720  
     296A      2.493175   297A      2.504241   298A      2.517622  
     299A      2.526542   300A      2.544200   301A      2.546190  
     302A      2.555203   303A      2.571399   304A      2.577958  
     305A      2.621027   306A      2.624967   307A      2.628516  
     308A      2.666490   309A      2.677955   310A      2.691326  
     311A      2.702641   312A      2.729117   313A      2.749684  
     314A      2.754109   315A      2.776195   316A      2.788194  
     317A      2.796321   318A      2.798591   319A      2.809640  
     320A      2.823690   321A      2.838137   322A      2.839790  
     323A      2.847709   324A      2.853322   325A      2.867317  
     326A      2.882769   327A      2.888100   328A      2.904974  
     329A      2.912969   330A      2.929089   331A      2.938791  
     332A      2.948159   333A      2.959255   334A      2.974004  
     335A      2.989139   336A      2.997152   337A      3.005979  
     338A      3.030651   339A      3.035262   340A      3.077853  
     341A      3.131136   342A      3.167156   343A      3.243626  
     344A      3.634701   345A      3.728453   346A      3.732053  
     347A      3.761599   348A      3.793268   349A      3.850010  
     350A      3.862453   351A      3.868536   352A      3.891989  
     353A      3.907234   354A      3.934041   355A      4.049840  
     356A      4.059528   357A      4.101465   358A      4.109269  
     359A      4.127899   360A      4.191211   361A      4.225426  
     362A      4.230592   363A      4.234588   364A      4.253417  
     365A      4.267442   366A      4.271763   367A      4.283030  
     368A      4.292184   369A      4.296435   370A      4.312006  
     371A      4.317332   372A      4.325767   373A      4.351664  
     374A      4.367063   375A      4.376493   376A      4.381670  
     377A      4.402924   378A      4.414133   379A      4.439474  
     380A      4.451007   381A      4.457282   382A      4.464476  
     383A      4.471724   384A      4.483989   385A      4.502175  
     386A      4.509637   387A      4.512165   388A      4.516750  
     389A      4.522749   390A      4.543594   391A      4.547026  
     392A      4.553759   393A      4.567208   394A      4.571013  
     395A      4.578907   396A      4.600932   397A      4.605350  
     398A      4.620167   399A      4.646316   400A      4.755959  
     401A      4.773070   402A      4.783720   403A      4.802983  
     404A      4.823119   405A      4.847734   406A      4.862119  
     407A      4.868680   408A      4.907874   409A      4.917226  
     410A      5.114346   411A      5.118862   412A      5.149080  
     413A      5.150573   414A      5.160832   415A      5.162666  
     416A      5.170386   417A      5.176163   418A      5.183298  
     419A      5.213438   420A      5.281873   421A      5.311925  
     422A      5.319136   423A      5.334798   424A      5.357715  
     425A      5.364493   426A      5.379798   427A      5.385983  
     428A      5.388529   429A      5.492771   430A      5.497299  
     431A      5.524284   432A      5.527353   433A      5.547494  
     434A      5.612223   435A      5.783746   436A      5.790749  
     437A      5.812047   438A      5.851031   439A      5.897984  
     440A      6.152175   441A      6.244969   442A      6.274607  
     443A      6.291001   444A      6.370906   445A      6.617055  
     446A      6.628725   447A      6.639527   448A      6.662290  
     449A      6.668701   450A      6.756756   451A      6.763900  
     452A      6.767391   453A      6.788678   454A      6.801918  
     455A      6.866221   456A      6.901930   457A      6.913831  
     458A      6.958721   459A      6.977075   460A      7.154131  
     461A      7.175725   462A      7.186594   463A      7.206889  
     464A      7.218562   465A      7.301785   466A      7.321294  
     467A      7.326534   468A      7.330344   469A      7.333750  
     470A      7.338921   471A      7.342941   472A      7.347014  
     473A      7.357284   474A      7.373970   475A      7.380088  
     476A      7.385450   477A      7.397032   478A      7.403556  
     479A      7.410093   480A      7.427518   481A      7.431402  
     482A      7.434723   483A      7.442794   484A      7.450419  
     485A      7.461728   486A      7.477498   487A      7.489439  
     488A      7.495238   489A      7.499458   490A      7.598031  
     491A      7.602334   492A      7.610453   493A      7.628298  
     494A      7.717532   495A      7.854604   496A      7.896333  
     497A      7.908826   498A      7.931254   499A      7.953646  
     500A      7.967336   501A      7.988826   502A      8.005085  
     503A      8.020649   504A      8.070758   505A      8.731629  
     506A      8.763369   507A      8.799710   508A      8.806910  
     509A      8.876417   510A     10.576661   511A     15.607315  
     512A     15.697752   513A     15.814692   514A     15.877629  
     515A     16.361414   516A     30.976066   517A     31.159544  
     518A     31.488475   519A    198.372580  

    Final Occupation by Irrep:
              A 
    DOCC [    25 ]
    NA   [    25 ]
    NB   [    25 ]

  @DF-RHF Final Energy:  -380.27916133390977

   => Energetics <=

    Nuclear Repulsion Energy =            170.1080406321121927
    One-Electron Energy =                -864.7987414786987301
    Two-Electron Energy =                 314.4115395126767680
    Total Energy =                       -380.2791613339097694

Computation Completed


Properties will be evaluated at   0.000000,   0.000000,   0.000000 [a0]

Properties computed using the SCF density matrix


 Multipole Moments:

 ------------------------------------------------------------------------------------
     Multipole            Electronic (a.u.)      Nuclear  (a.u.)        Total (a.u.)
 ------------------------------------------------------------------------------------

 L = 1.  Multiply by 2.5417464519 to convert [e a0] to [Debye]
 Dipole X            :         -1.1273397            0.2511975           -0.8761422
 Dipole Y            :         -7.3263577            6.8115972           -0.5147605
 Dipole Z            :         10.3126541          -10.5923628           -0.2797087
 Magnitude           :                                                    1.0539642

 ------------------------------------------------------------------------------------

*** tstop() called on moses-razer at Sat Jan  6 20:05:15 2024
Module time:
	user time   =      55.16 seconds =       0.92 minutes
	system time =       2.96 seconds =       0.05 minutes
	total time  =         14 seconds =       0.23 minutes
Total time:
	user time   =      55.16 seconds =       0.92 minutes
	system time =       2.96 seconds =       0.05 minutes
	total time  =         14 seconds =       0.23 minutes

*** tstart() called on moses-razer
*** at Sat Jan  6 20:05:15 2024


  //>>>>>>>>>>>>>>>>>>>>>>>>>>>>>>>>>>>//
  //               DFMP2               //
  //<<<<<<<<<<<<<<<<<<<<<<<<<<<<<<<<<<<//

   => Loading Basis Set <=

    Name: (AUG-CC-PVTZ AUX)
    Role: RIFIT
    Keyword: DF_BASIS_MP2
    atoms 1                            entry K          line  1282 file /home/kchung25/anaconda3/envs/p415env/share/psi4/basis/def2-qzvpp-ri.gbs 
    atoms 2, 5, 8, 11, 14              entry O          line   264 file /home/kchung25/anaconda3/envs/p415env/share/psi4/basis/aug-cc-pvtz-ri.gbs 
    atoms 3-4, 6-7, 9-10, 12-13, 15-16 entry H          line    30 file /home/kchung25/anaconda3/envs/p415env/share/psi4/basis/aug-cc-pvtz-ri.gbs 

	 --------------------------------------------------------
	                          DF-MP2                         
	      2nd-Order Density-Fitted Moller-Plesset Theory     
	              RMP2 Wavefunction,   6 Threads             
	                                                         
	        Rob Parrish, Justin Turney, Andy Simmonett,      
	           Ed Hohenstein, and C. David Sherrill          
	 --------------------------------------------------------

   => Auxiliary Basis Set <=

  Basis Set: (AUG-CC-PVTZ AUX)
    Blend: AUG-CC-PVTZ-RI + DEF2-QZVPP-RI
    Number of shells: 329
    Number of basis functions: 1189
    Number of Cartesian functions: 1492
    Spherical Harmonics?: true
    Max angular momentum: 4

	 --------------------------------------------------------
	                 NBF =   519, NAUX =  1189
	 --------------------------------------------------------
	   CLASS    FOCC     OCC    AOCC    AVIR     VIR    FVIR
	   PAIRS       0      25      25     494     494       0
	 --------------------------------------------------------

	-----------------------------------------------------------
	 ==================> DF-MP2 Energies <==================== 
	-----------------------------------------------------------
	 Reference Energy          =    -380.2791613339097694 [Eh]
	 Singles Energy            =      -0.0000000000000000 [Eh]
	 Same-Spin Energy          =      -0.3443553304622536 [Eh]
	 Opposite-Spin Energy      =      -1.0824917831681056 [Eh]
	 Correlation Energy        =      -1.4268471136303591 [Eh]
	 Total Energy              =    -381.7060084475401140 [Eh]
	-----------------------------------------------------------
	 ================> DF-SCS-MP2 Energies <================== 
	-----------------------------------------------------------
	 SCS Same-Spin Scale       =       0.3333333333333333 [-]
	 SCS Opposite-Spin Scale   =       1.2000000000000000 [-]
	 SCS Same-Spin Energy      =      -0.1147851101540845 [Eh]
	 SCS Opposite-Spin Energy  =      -1.2989901398017267 [Eh]
	 SCS Correlation Energy    =      -1.4137752499558112 [Eh]
	 SCS Total Energy          =    -381.6929365838655599 [Eh]
	-----------------------------------------------------------


*** tstop() called on moses-razer at Sat Jan  6 20:05:24 2024
Module time:
	user time   =      25.83 seconds =       0.43 minutes
	system time =       1.72 seconds =       0.03 minutes
	total time  =          9 seconds =       0.15 minutes
Total time:
	user time   =      80.99 seconds =       1.35 minutes
	system time =       4.68 seconds =       0.08 minutes
	total time  =         23 seconds =       0.38 minutes

    Psi4 stopped on: Saturday, 06 January 2024 08:05PM
    Psi4 wall time for execution: 0:00:23.62


    -----------------------------------------------------------------------
          Psi4: An Open-Source Ab Initio Electronic Structure Package
                               Psi4 1.9 release

                         Git: Rev {} zzzzzzz 


    D. G. A. Smith, L. A. Burns, A. C. Simmonett, R. M. Parrish,
    M. C. Schieber, R. Galvelis, P. Kraus, H. Kruse, R. Di Remigio,
    A. Alenaizan, A. M. James, S. Lehtola, J. P. Misiewicz, M. Scheurer,
    R. A. Shaw, J. B. Schriber, Y. Xie, Z. L. Glick, D. A. Sirianni,
    J. S. O'Brien, J. M. Waldrop, A. Kumar, E. G. Hohenstein,
    B. P. Pritchard, B. R. Brooks, H. F. Schaefer III, A. Yu. Sokolov,
    K. Patkowski, A. E. DePrince III, U. Bozkaya, R. A. King,
    F. A. Evangelista, J. M. Turney, T. D. Crawford, C. D. Sherrill,
    J. Chem. Phys. 152(18) 184108 (2020). https://doi.org/10.1063/5.0006002

                            Additional Code Authors
    E. T. Seidl, C. L. Janssen, E. F. Valeev, M. L. Leininger,
    J. F. Gonthier, R. M. Richard, H. R. McAlexander, M. Saitow, X. Wang,
    P. Verma, M. H. Lechner, A. Jiang, S. Behnle, A. G. Heide,
    M. F. Herbst, and D. L. Poole

             Previous Authors, Complete List of Code Contributors,
                       and Citations for Specific Modules
    https://github.com/psi4/psi4/blob/master/codemeta.json
    https://github.com/psi4/psi4/graphs/contributors
    http://psicode.org/psi4manual/master/introduction.html#citing-psifour

    -----------------------------------------------------------------------


    Psi4 started on: Saturday, 06 January 2024 08:04PM

    Process ID: 554081
    Host:       moses-razer
    PSIDATADIR: /home/kchung25/anaconda3/envs/psi4_19/share/psi4
    Memory:     55.9 GiB
    Threads:    6
    
  ==> Input QCSchema <==

--------------------------------------------------------------------------
{'driver': 'energy',
 'extras': {'psiapi': True, 'wfn_qcvars_only': True},
 'id': None,
 'keywords': {'SCF_TYPE': 'DF', 'function_kwargs': {}},
 'model': {'basis': 'aug-cc-pvtz', 'method': 'mp2'},
 'molecule': {'atom_labels': ['', '', '', '', '', '', '', '', '', '', '', '', '', '', '', ''],
              'atomic_numbers': [19, 8, 1, 1, 8, 1, 1, 8, 1, 1, 8, 1, 1, 8, 1, 1],
              'extras': {},
              'fix_com': True,
              'fix_orientation': True,
              'fix_symmetry': 'c1',
              'fragment_charges': [1.0, 0.0],
              'fragment_multiplicities': [1, 1],
              'fragments': [[0], [1, 2, 3, 4, 5, 6, 7, 8, 9, 10, 11, 12, 13, 14, 15]],
              'geometry': [0.0, 0.0, 0.0, 0.5850875543336254, -4.957473502455808, -2.9305022376843546,
                           0.13894967227878863, -6.447169173593845, -3.8588283070893867, 1.3833626717846503,
                           -5.525661236049464, -1.382209938848121, -4.779674840489857, 1.904309141967986,
                           0.2823855543794142, -5.728013109563489, 2.4935408656947406, -1.1324958594517474,
                           -5.037034751789834, 0.07918897328731028, 0.6103078392039857, 3.2662366503115683,
                           3.167853728767983, 1.1560777517713356, 2.469305128135744, 4.175865769431321,
                           2.3300058565237456, 3.813518343779285, 4.296768557211988, -0.23977978915484197,
                           1.2009304013590771, -0.5898288771823992, 5.105352130677385, -0.31076735105766534,
                           -1.5370276414023791, 5.7729734735403815, 1.790770616898229, 0.4057109710529175,
                           6.458819335157293, 0.014690730899309156, 1.2898023313132332, -4.587750475736108,
                           -1.659158751164593, 1.5296973937617282, -5.4126745110083405, 1.0921010737939607,
                           0.8233801290277322, -5.942982684417195],
              'mass_numbers': [39, 16, 1, 1, 16, 1, 1, 16, 1, 1, 16, 1, 1, 16, 1, 1],
              'masses': [38.9637064864, 15.99491461957, 1.00782503223, 1.00782503223, 15.99491461957, 1.00782503223,
                         1.00782503223, 15.99491461957, 1.00782503223, 1.00782503223, 15.99491461957, 1.00782503223,
                         1.00782503223, 15.99491461957, 1.00782503223, 1.00782503223],
              'molecular_charge': 1.0,
              'molecular_multiplicity': 1,
              'name': 'dimer',
              'provenance': {'creator': 'QCElemental',
                             'routine': 'qcelemental.molparse.from_string',
                             'version': '0.27.1'},
              'real': [True, False, False, False, False, False, False, False, False, False, False, False, False, False,
                       False, False],
              'schema_name': 'qcschema_molecule',
              'schema_version': 2,
              'symbols': ['K', 'O', 'H', 'H', 'O', 'H', 'H', 'O', 'H', 'H', 'O', 'H', 'H', 'O', 'H', 'H'],
              'validated': True},
 'protocols': {'stdout': True},
 'provenance': {'creator': 'QCElemental', 'routine': 'qcelemental.models.results', 'version': '0.27.1'},
 'schema_name': 'qcschema_input',
 'schema_version': 1}
--------------------------------------------------------------------------

Scratch directory: /scratch/
   => Libint2 <=

    Primary   basis highest AM E, G, H:  5, 4, 3
    Auxiliary basis highest AM E, G, H:  6, 5, 4
    Onebody   basis highest AM E, G, H:  6, 5, 4
    Solid Harmonics ordering:            gaussian

*** tstart() called on moses-razer
*** at Sat Jan  6 20:05:24 2024

   => Loading Basis Set <=

    Name: AUG-CC-PVTZ
    Role: ORBITAL
    Keyword: BASIS
    atoms 1                            entry K          line  1152 file /home/kchung25/anaconda3/envs/p415env/share/psi4/basis/aug-cc-pvtz.gbs 
    atoms 2, 5, 8, 11, 14              entry O          line   331 file /home/kchung25/anaconda3/envs/p415env/share/psi4/basis/aug-cc-pvtz.gbs 
    atoms 3-4, 6-7, 9-10, 12-13, 15-16 entry H          line    40 file /home/kchung25/anaconda3/envs/p415env/share/psi4/basis/aug-cc-pvtz.gbs 


         ---------------------------------------------------------
                                   SCF
               by Justin Turney, Rob Parrish, Andy Simmonett
                          and Daniel G. A. Smith
                              RHF Reference
                        6 Threads,  57220 MiB Core
         ---------------------------------------------------------

  ==> Geometry <==

    Molecular point group: c1
    Full point group: C1

    Geometry (in Bohr), charge = 1, multiplicity = 1:

       Center              X                  Y                   Z               Mass       
    ------------   -----------------  -----------------  -----------------  -----------------
         K            0.000000000000     0.000000000000     0.000000000000    38.963706486400
      Gh(O)           0.585087554334    -4.957473502456    -2.930502237684    15.994914619570
      Gh(H)           0.138949672279    -6.447169173594    -3.858828307089     1.007825032230
      Gh(H)           1.383362671785    -5.525661236049    -1.382209938848     1.007825032230
      Gh(O)          -4.779674840490     1.904309141968     0.282385554379    15.994914619570
      Gh(H)          -5.728013109563     2.493540865695    -1.132495859452     1.007825032230
      Gh(H)          -5.037034751790     0.079188973287     0.610307839204     1.007825032230
      Gh(O)           3.266236650312     3.167853728768     1.156077751771    15.994914619570
      Gh(H)           2.469305128136     4.175865769431     2.330005856524     1.007825032230
      Gh(H)           3.813518343779     4.296768557212    -0.239779789155     1.007825032230
      Gh(O)           1.200930401359    -0.589828877182     5.105352130677    15.994914619570
      Gh(H)          -0.310767351058    -1.537027641402     5.772973473540     1.007825032230
      Gh(H)           1.790770616898     0.405710971053     6.458819335157     1.007825032230
      Gh(O)           0.014690730899     1.289802331313    -4.587750475736    15.994914619570
      Gh(H)          -1.659158751165     1.529697393762    -5.412674511008     1.007825032230
      Gh(H)           1.092101073794     0.823380129028    -5.942982684417     1.007825032230

  Running in c1 symmetry.

  Rotational constants: A =      0.04565  B =      0.03438  C =      0.03131 [cm^-1]
  Rotational constants: A =   1368.44863  B =   1030.55579  C =    938.78892 [MHz]
  Nuclear repulsion =    0.000000000000000

  Charge       = 1
  Multiplicity = 1
  Electrons    = 18
  Nalpha       = 9
  Nbeta        = 9

  ==> Algorithm <==

  SCF Algorithm Type is DF.
  DIIS enabled.
  MOM disabled.
  Fractional occupation disabled.
  Guess Type is SAD.
  Energy threshold   = 1.00e-08
  Density threshold  = 1.00e-08
  Integral threshold = 1.00e-12

  ==> Primary Basis <==

  Basis Set: AUG-CC-PVTZ
    Blend: AUG-CC-PVTZ
    Number of shells: 179
    Number of basis functions: 519
    Number of Cartesian functions: 594
    Spherical Harmonics?: true
    Max angular momentum: 3

   => Loading Basis Set <=

    Name: (AUG-CC-PVTZ AUX)
    Role: JKFIT
    Keyword: DF_BASIS_SCF
    atoms 1                            entry K          line  1152 file /home/kchung25/anaconda3/envs/p415env/share/psi4/basis/def2-universal-jkfit.gbs 
    atoms 2, 5, 8, 11, 14              entry O          line   286 file /home/kchung25/anaconda3/envs/p415env/share/psi4/basis/aug-cc-pvtz-jkfit.gbs 
    atoms 3-4, 6-7, 9-10, 12-13, 15-16 entry H          line    70 file /home/kchung25/anaconda3/envs/p415env/share/psi4/basis/aug-cc-pvtz-jkfit.gbs 

  ==> Integral Setup <==

  DFHelper Memory: AOs need 2.081 GiB; user supplied 41.910 GiB. 
  Using in-core AOs.

  ==> MemDFJK: Density-Fitted J/K Matrices <==

    J tasked:                   Yes
    K tasked:                   Yes
    wK tasked:                   No
    OpenMP threads:               6
    Memory [MiB]:             42915
    Algorithm:                 Core
    Schwarz Cutoff:           1E-12
    Mask sparsity (%):      12.3537
    Fitting Condition:        1E-10

   => Auxiliary Basis Set <=

  Basis Set: (AUG-CC-PVTZ AUX)
    Blend: AUG-CC-PVTZ-JKFIT + DEF2-UNIVERSAL-JKFIT
    Number of shells: 334
    Number of basis functions: 1140
    Number of Cartesian functions: 1408
    Spherical Harmonics?: true
    Max angular momentum: 4

  Minimum eigenvalue in the overlap matrix is 6.0641631825E-05.
  Reciprocal condition number of the overlap matrix is 4.6161605318E-06.
    Using symmetric orthogonalization.

  ==> Pre-Iterations <==

  SCF Guess: Superposition of Atomic Densities via on-the-fly atomic UHF (no occupation information).

   -------------------------
    Irrep   Nso     Nmo    
   -------------------------
     A        519     519 
   -------------------------
    Total     519     519
   -------------------------

  ==> Iterations <==

                           Total Energy        Delta E     RMS |[F,P]|

   @DF-RHF iter SAD:  -599.05177983809347   -5.99052e+02   0.00000e+00 
   @DF-RHF iter   1:  -599.01746034211021    3.43195e-02   2.11945e-05 DIIS
   @DF-RHF iter   2:  -599.01751509735948   -5.47552e-05   2.37941e-06 DIIS
   @DF-RHF iter   3:  -599.01751632970115   -1.23234e-06   4.12426e-07 DIIS
   @DF-RHF iter   4:  -599.01751635750225   -2.78011e-08   2.39866e-08 DIIS
   @DF-RHF iter   5:  -599.01751635761730   -1.15051e-10   4.57220e-09 DIIS
  Energy and wave function converged.


  ==> Post-Iterations <==

    Orbital Energies [Eh]
    ---------------------

    Doubly Occupied:                                                      

       1A   -133.752539     2A    -14.708230     3A    -11.738291  
       4A    -11.738291     5A    -11.738289     6A     -1.963899  
       7A     -1.170614     8A     -1.170597     9A     -1.170581  

    Virtual:                                                              

      10A     -0.146958    11A     -0.095555    12A     -0.095553  
      13A     -0.095550    14A     -0.060670    15A     -0.057995  
      16A     -0.057954    17A     -0.057944    18A     -0.057927  
      19A     -0.057913    20A     -0.045541    21A     -0.045539  
      22A     -0.045538    23A     -0.031395    24A     -0.031332  
      25A     -0.031301    26A     -0.031295    27A     -0.031266  
      28A     -0.019118    29A     -0.018709    30A     -0.018608  
      31A     -0.017402    32A     -0.015390    33A     -0.012998  
      34A     -0.012592    35A     -0.009815    36A     -0.008571  
      37A     -0.003858    38A      0.000280    39A      0.003084  
      40A      0.007080    41A      0.008875    42A      0.010074  
      43A      0.011027    44A      0.027460    45A      0.029089  
      46A      0.037568    47A      0.040706    48A      0.043202  
      49A      0.045649    50A      0.052688    51A      0.059340  
      52A      0.060915    53A      0.063037    54A      0.074070  
      55A      0.080535    56A      0.083573    57A      0.087309  
      58A      0.090862    59A      0.091384    60A      0.095598  
      61A      0.097914    62A      0.100817    63A      0.107162  
      64A      0.110417    65A      0.118932    66A      0.119856  
      67A      0.125261    68A      0.139724    69A      0.142129  
      70A      0.150881    71A      0.153162    72A      0.165966  
      73A      0.168457    74A      0.174946    75A      0.180330  
      76A      0.185077    77A      0.197890    78A      0.204573  
      79A      0.207492    80A      0.210871    81A      0.217282  
      82A      0.219960    83A      0.226800    84A      0.230420  
      85A      0.234600    86A      0.242880    87A      0.247496  
      88A      0.250910    89A      0.256929    90A      0.263650  
      91A      0.272606    92A      0.274469    93A      0.280991  
      94A      0.282957    95A      0.288314    96A      0.292380  
      97A      0.293282    98A      0.301663    99A      0.302928  
     100A      0.303929   101A      0.312882   102A      0.315769  
     103A      0.322540   104A      0.323521   105A      0.330473  
     106A      0.336595   107A      0.338849   108A      0.342695  
     109A      0.347489   110A      0.350723   111A      0.354968  
     112A      0.358228   113A      0.364749   114A      0.372877  
     115A      0.376494   116A      0.379183   117A      0.387061  
     118A      0.388400   119A      0.399879   120A      0.405161  
     121A      0.416690   122A      0.425453   123A      0.428667  
     124A      0.448848   125A      0.458904   126A      0.459711  
     127A      0.469218   128A      0.484857   129A      0.539996  
     130A      0.565747   131A      0.575031   132A      0.583045  
     133A      0.598034   134A      0.608497   135A      0.610818  
     136A      0.623991   137A      0.630372   138A      0.637076  
     139A      0.650044   140A      0.658455   141A      0.673002  
     142A      0.683070   143A      0.684232   144A      0.689876  
     145A      0.696962   146A      0.700936   147A      0.714963  
     148A      0.716494   149A      0.719532   150A      0.722253  
     151A      0.729129   152A      0.735380   153A      0.741915  
     154A      0.747264   155A      0.753258   156A      0.758532  
     157A      0.763386   158A      0.774586   159A      0.782083  
     160A      0.785752   161A      0.799101   162A      0.804028  
     163A      0.805899   164A      0.817406   165A      0.824326  
     166A      0.826201   167A      0.832137   168A      0.836505  
     169A      0.852241   170A      0.856024   171A      0.867243  
     172A      0.870584   173A      0.874119   174A      0.886565  
     175A      0.891640   176A      0.893210   177A      0.903172  
     178A      0.912746   179A      0.919387   180A      0.922673  
     181A      0.930502   182A      0.934176   183A      0.939036  
     184A      0.947596   185A      0.951727   186A      0.959323  
     187A      0.962909   188A      0.972977   189A      0.977180  
     190A      0.988607   191A      1.003711   192A      1.007163  
     193A      1.017751   194A      1.027869   195A      1.032282  
     196A      1.040178   197A      1.047322   198A      1.056380  
     199A      1.063831   200A      1.069926   201A      1.073579  
     202A      1.088663   203A      1.094046   204A      1.096902  
     205A      1.109475   206A      1.115499   207A      1.122182  
     208A      1.130596   209A      1.134334   210A      1.147268  
     211A      1.150407   212A      1.161893   213A      1.172092  
     214A      1.181438   215A      1.191408   216A      1.205889  
     217A      1.209687   218A      1.225832   219A      1.229696  
     220A      1.237788   221A      1.250636   222A      1.274036  
     223A      1.286678   224A      1.335447   225A      1.348232  
     226A      1.355988   227A      1.367238   228A      1.405249  
     229A      1.408444   230A      1.418010   231A      1.441615  
     232A      1.452097   233A      1.489950   234A      1.575315  
     235A      1.592384   236A      1.606427   237A      1.610933  
     238A      1.621866   239A      1.623575   240A      1.643254  
     241A      1.649977   242A      1.655065   243A      1.662893  
     244A      1.672472   245A      1.678115   246A      1.689112  
     247A      1.696321   248A      1.704081   249A      1.717001  
     250A      1.722427   251A      1.730558   252A      1.746620  
     253A      1.758831   254A      1.773760   255A      1.788206  
     256A      1.800297   257A      1.819543   258A      1.832138  
     259A      1.842615   260A      1.879541   261A      1.907535  
     262A      1.918159   263A      1.940124   264A      1.952649  
     265A      2.205645   266A      2.208130   267A      2.216124  
     268A      2.234384   269A      2.238204   270A      2.269654  
     271A      2.272046   272A      2.293505   273A      2.295367  
     274A      2.315640   275A      2.347434   276A      2.353197  
     277A      2.358709   278A      2.366808   279A      2.372353  
     280A      2.390592   281A      2.392426   282A      2.398456  
     283A      2.400401   284A      2.408555   285A      2.421992  
     286A      2.426099   287A      2.427996   288A      2.439902  
     289A      2.448464   290A      2.461861   291A      2.477091  
     292A      2.492141   293A      2.498503   294A      2.507942  
     295A      2.522194   296A      2.544675   297A      2.553903  
     298A      2.575078   299A      2.587022   300A      2.625086  
     301A      2.664692   302A      2.667369   303A      2.694241  
     304A      2.701493   305A      2.725294   306A      2.740654  
     307A      2.750007   308A      2.763857   309A      2.782561  
     310A      2.990056   311A      3.003051   312A      3.005304  
     313A      3.014199   314A      3.020029   315A      3.039971  
     316A      3.044917   317A      3.061809   318A      3.067847  
     319A      3.073020   320A      3.080454   321A      3.106412  
     322A      3.132899   323A      3.144104   324A      3.146559  
     325A      3.163725   326A      3.169402   327A      3.172255  
     328A      3.174690   329A      3.187510   330A      3.191272  
     331A      3.196357   332A      3.202291   333A      3.217849  
     334A      3.225883   335A      3.392171   336A      3.413962  
     337A      3.420262   338A      3.447921   339A      3.463513  
     340A      3.534298   341A      3.549646   342A      3.554789  
     343A      3.568038   344A      3.605128   345A      4.165301  
     346A      4.201380   347A      4.222963   348A      4.232625  
     349A      4.237904   350A      4.311100   351A      4.317414  
     352A      4.341207   353A      4.344078   354A      4.353709  
     355A      4.379831   356A      4.398533   357A      4.400916  
     358A      4.407812   359A      4.415311   360A      4.453967  
     361A      4.464029   362A      4.468818   363A      4.482145  
     364A      4.492007   365A      4.501992   366A      4.509269  
     367A      4.526946   368A      4.547105   369A      4.573582  
     370A      4.583375   371A      4.589852   372A      4.594815  
     373A      4.612695   374A      4.627376   375A      4.753703  
     376A      4.759295   377A      4.764210   378A      4.776151  
     379A      4.789330   380A      4.793780   381A      4.802081  
     382A      4.807828   383A      4.831202   384A      4.858315  
     385A      4.863502   386A      4.871178   387A      4.894249  
     388A      4.913151   389A      4.921930   390A      4.960701  
     391A      5.021624   392A      5.039606   393A      5.049446  
     394A      5.063796   395A      5.292660   396A      5.308671  
     397A      5.326377   398A      5.334783   399A      5.339360  
     400A      5.354931   401A      5.358047   402A      5.370540  
     403A      5.393634   404A      5.430864   405A      5.508171  
     406A      5.510082   407A      5.519665   408A      5.547494  
     409A      5.564085   410A      5.586597   411A      5.642916  
     412A      5.663222   413A      5.671356   414A      5.713671  
     415A      5.947428   416A      5.967167   417A      5.993288  
     418A      5.995283   419A      6.009108   420A      6.078884  
     421A      6.185650   422A      6.192918   423A      6.231680  
     424A      6.240707   425A      6.438759   426A      6.441001  
     427A      6.542058   428A      6.546893   429A      6.597116  
     430A      6.880202   431A      6.903786   432A      6.911354  
     433A      6.924366   434A      6.977902   435A      7.475210  
     436A      7.476455   437A      7.485533   438A      7.505545  
     439A      7.512741   440A      7.567883   441A      7.599456  
     442A      7.618013   443A      7.627239   444A      7.648366  
     445A      7.857521   446A      7.870938   447A      7.894593  
     448A      7.912463   449A      7.928435   450A      7.948936  
     451A      7.991111   452A      8.022159   453A      8.038679  
     454A      8.062456   455A      8.074930   456A      8.089871  
     457A      8.095855   458A      8.102820   459A      8.118445  
     460A      8.501974   461A      8.527356   462A      8.538138  
     463A      8.594840   464A      8.596902   465A      8.613054  
     466A      8.615722   467A      8.619263   468A      8.647683  
     469A      8.717710   470A      9.545852   471A      9.595920  
     472A      9.604127   473A      9.612091   474A      9.643934  
     475A      9.718780   476A      9.721638   477A      9.734429  
     478A      9.743347   479A      9.768139   480A      9.820807  
     481A      9.835811   482A      9.844849   483A      9.848496  
     484A      9.851344   485A      9.964664   486A     10.015385  
     487A     10.031382   488A     10.033136   489A     10.053695  
     490A     10.851939   491A     10.859405   492A     10.918347  
     493A     10.945240   494A     11.016978   495A     11.447797  
     496A     11.473269   497A     11.502120   498A     11.521231  
     499A     11.533558   500A     11.910918   501A     11.927609  
     502A     11.943399   503A     11.960096   504A     12.190222  
     505A     13.283392   506A     13.287013   507A     13.321523  
     508A     13.395576   509A     13.422171   510A     13.661876  
     511A     13.686982   512A     13.701839   513A     13.726031  
     514A     13.749026   515A     64.108141   516A     64.251725  
     517A     64.462003   518A     64.595998   519A     65.481032  

    Final Occupation by Irrep:
              A 
    DOCC [     9 ]
    NA   [     9 ]
    NB   [     9 ]

  @DF-RHF Final Energy:  -599.01751635761730

   => Energetics <=

    Nuclear Repulsion Energy =              0.0000000000000000
    One-Electron Energy =                -819.7323713165285426
    Two-Electron Energy =                 220.7148549589111894
    Total Energy =                       -599.0175163576172963

Computation Completed


Properties will be evaluated at   0.000000,   0.000000,   0.000000 [a0]

Properties computed using the SCF density matrix


 Multipole Moments:

 ------------------------------------------------------------------------------------
     Multipole            Electronic (a.u.)      Nuclear  (a.u.)        Total (a.u.)
 ------------------------------------------------------------------------------------

 L = 1.  Multiply by 2.5417464519 to convert [e a0] to [Debye]
 Dipole X            :          0.0000224            0.0000000            0.0000224
 Dipole Y            :          0.0001193            0.0000000            0.0001193
 Dipole Z            :         -0.0000700            0.0000000           -0.0000700
 Magnitude           :                                                    0.0001401

 ------------------------------------------------------------------------------------

*** tstop() called on moses-razer at Sat Jan  6 20:05:38 2024
Module time:
	user time   =      41.74 seconds =       0.70 minutes
	system time =       3.52 seconds =       0.06 minutes
	total time  =         14 seconds =       0.23 minutes
Total time:
	user time   =     123.08 seconds =       2.05 minutes
	system time =       8.20 seconds =       0.14 minutes
	total time  =         37 seconds =       0.62 minutes

*** tstart() called on moses-razer
*** at Sat Jan  6 20:05:38 2024


  //>>>>>>>>>>>>>>>>>>>>>>>>>>>>>>>>>>>//
  //               DFMP2               //
  //<<<<<<<<<<<<<<<<<<<<<<<<<<<<<<<<<<<//

   => Loading Basis Set <=

    Name: (AUG-CC-PVTZ AUX)
    Role: RIFIT
    Keyword: DF_BASIS_MP2
    atoms 1                            entry K          line  1282 file /home/kchung25/anaconda3/envs/p415env/share/psi4/basis/def2-qzvpp-ri.gbs 
    atoms 2, 5, 8, 11, 14              entry O          line   264 file /home/kchung25/anaconda3/envs/p415env/share/psi4/basis/aug-cc-pvtz-ri.gbs 
    atoms 3-4, 6-7, 9-10, 12-13, 15-16 entry H          line    30 file /home/kchung25/anaconda3/envs/p415env/share/psi4/basis/aug-cc-pvtz-ri.gbs 

	 --------------------------------------------------------
	                          DF-MP2                         
	      2nd-Order Density-Fitted Moller-Plesset Theory     
	              RMP2 Wavefunction,   6 Threads             
	                                                         
	        Rob Parrish, Justin Turney, Andy Simmonett,      
	           Ed Hohenstein, and C. David Sherrill          
	 --------------------------------------------------------

   => Auxiliary Basis Set <=

  Basis Set: (AUG-CC-PVTZ AUX)
    Blend: AUG-CC-PVTZ-RI + DEF2-QZVPP-RI
    Number of shells: 329
    Number of basis functions: 1189
    Number of Cartesian functions: 1492
    Spherical Harmonics?: true
    Max angular momentum: 4

	 --------------------------------------------------------
	                 NBF =   519, NAUX =  1189
	 --------------------------------------------------------
	   CLASS    FOCC     OCC    AOCC    AVIR     VIR    FVIR
	   PAIRS       0       9       9     510     510       0
	 --------------------------------------------------------

	-----------------------------------------------------------
	 ==================> DF-MP2 Energies <==================== 
	-----------------------------------------------------------
	 Reference Energy          =    -599.0175163576172963 [Eh]
	 Singles Energy            =      -0.0000000000000000 [Eh]
	 Same-Spin Energy          =      -0.0379791767142349 [Eh]
	 Opposite-Spin Energy      =      -0.0928554191052966 [Eh]
	 Correlation Energy        =      -0.1308345958195316 [Eh]
	 Total Energy              =    -599.1483509534368750 [Eh]
	-----------------------------------------------------------
	 ================> DF-SCS-MP2 Energies <================== 
	-----------------------------------------------------------
	 SCS Same-Spin Scale       =       0.3333333333333333 [-]
	 SCS Opposite-Spin Scale   =       1.2000000000000000 [-]
	 SCS Same-Spin Energy      =      -0.0126597255714116 [Eh]
	 SCS Opposite-Spin Energy  =      -0.1114265029263559 [Eh]
	 SCS Correlation Energy    =      -0.1240862284977676 [Eh]
	 SCS Total Energy          =    -599.1416025861150274 [Eh]
	-----------------------------------------------------------


*** tstop() called on moses-razer at Sat Jan  6 20:05:46 2024
Module time:
	user time   =      18.51 seconds =       0.31 minutes
	system time =       1.43 seconds =       0.02 minutes
	total time  =          8 seconds =       0.13 minutes
Total time:
	user time   =     141.59 seconds =       2.36 minutes
	system time =       9.63 seconds =       0.16 minutes
	total time  =         45 seconds =       0.75 minutes

    Psi4 stopped on: Saturday, 06 January 2024 08:05PM
    Psi4 wall time for execution: 0:00:21.60


    -----------------------------------------------------------------------
          Psi4: An Open-Source Ab Initio Electronic Structure Package
                               Psi4 1.9 release

                         Git: Rev {} zzzzzzz 


    D. G. A. Smith, L. A. Burns, A. C. Simmonett, R. M. Parrish,
    M. C. Schieber, R. Galvelis, P. Kraus, H. Kruse, R. Di Remigio,
    A. Alenaizan, A. M. James, S. Lehtola, J. P. Misiewicz, M. Scheurer,
    R. A. Shaw, J. B. Schriber, Y. Xie, Z. L. Glick, D. A. Sirianni,
    J. S. O'Brien, J. M. Waldrop, A. Kumar, E. G. Hohenstein,
    B. P. Pritchard, B. R. Brooks, H. F. Schaefer III, A. Yu. Sokolov,
    K. Patkowski, A. E. DePrince III, U. Bozkaya, R. A. King,
    F. A. Evangelista, J. M. Turney, T. D. Crawford, C. D. Sherrill,
    J. Chem. Phys. 152(18) 184108 (2020). https://doi.org/10.1063/5.0006002

                            Additional Code Authors
    E. T. Seidl, C. L. Janssen, E. F. Valeev, M. L. Leininger,
    J. F. Gonthier, R. M. Richard, H. R. McAlexander, M. Saitow, X. Wang,
    P. Verma, M. H. Lechner, A. Jiang, S. Behnle, A. G. Heide,
    M. F. Herbst, and D. L. Poole

             Previous Authors, Complete List of Code Contributors,
                       and Citations for Specific Modules
    https://github.com/psi4/psi4/blob/master/codemeta.json
    https://github.com/psi4/psi4/graphs/contributors
    http://psicode.org/psi4manual/master/introduction.html#citing-psifour

    -----------------------------------------------------------------------


    Psi4 started on: Saturday, 06 January 2024 08:04PM

    Process ID: 554081
    Host:       moses-razer
    PSIDATADIR: /home/kchung25/anaconda3/envs/psi4_19/share/psi4
    Memory:     55.9 GiB
    Threads:    6
    
  ==> Input QCSchema <==

--------------------------------------------------------------------------
{'driver': 'energy',
 'extras': {'psiapi': True, 'wfn_qcvars_only': True},
 'id': None,
 'keywords': {'SCF_TYPE': 'DF', 'function_kwargs': {}},
 'model': {'basis': 'aug-cc-pvtz', 'method': 'mp2'},
 'molecule': {'atom_labels': ['', '', '', '', '', '', '', '', '', '', '', '', '', '', '', ''],
              'atomic_numbers': [19, 8, 1, 1, 8, 1, 1, 8, 1, 1, 8, 1, 1, 8, 1, 1],
              'extras': {},
              'fix_com': True,
              'fix_orientation': True,
              'fix_symmetry': 'c1',
              'fragment_charges': [1.0, 0.0],
              'fragment_multiplicities': [1, 1],
              'fragments': [[0], [1, 2, 3, 4, 5, 6, 7, 8, 9, 10, 11, 12, 13, 14, 15]],
              'geometry': [0.0, 0.0, 0.0, 0.5850875543336254, -4.957473502455808, -2.9305022376843546,
                           0.13894967227878863, -6.447169173593845, -3.8588283070893867, 1.3833626717846503,
                           -5.525661236049464, -1.382209938848121, -4.779674840489857, 1.904309141967986,
                           0.2823855543794142, -5.728013109563489, 2.4935408656947406, -1.1324958594517474,
                           -5.037034751789834, 0.07918897328731028, 0.6103078392039857, 3.2662366503115683,
                           3.167853728767983, 1.1560777517713356, 2.469305128135744, 4.175865769431321,
                           2.3300058565237456, 3.813518343779285, 4.296768557211988, -0.23977978915484197,
                           1.2009304013590771, -0.5898288771823992, 5.105352130677385, -0.31076735105766534,
                           -1.5370276414023791, 5.7729734735403815, 1.790770616898229, 0.4057109710529175,
                           6.458819335157293, 0.014690730899309156, 1.2898023313132332, -4.587750475736108,
                           -1.659158751164593, 1.5296973937617282, -5.4126745110083405, 1.0921010737939607,
                           0.8233801290277322, -5.942982684417195],
              'mass_numbers': [39, 16, 1, 1, 16, 1, 1, 16, 1, 1, 16, 1, 1, 16, 1, 1],
              'masses': [38.9637064864, 15.99491461957, 1.00782503223, 1.00782503223, 15.99491461957, 1.00782503223,
                         1.00782503223, 15.99491461957, 1.00782503223, 1.00782503223, 15.99491461957, 1.00782503223,
                         1.00782503223, 15.99491461957, 1.00782503223, 1.00782503223],
              'molecular_charge': 1.0,
              'molecular_multiplicity': 1,
              'name': 'dimer',
              'provenance': {'creator': 'QCElemental',
                             'routine': 'qcelemental.molparse.from_string',
                             'version': '0.27.1'},
              'real': [True, True, True, True, True, True, True, True, True, True, True, True, True, True, True, True],
              'schema_name': 'qcschema_molecule',
              'schema_version': 2,
              'symbols': ['K', 'O', 'H', 'H', 'O', 'H', 'H', 'O', 'H', 'H', 'O', 'H', 'H', 'O', 'H', 'H'],
              'validated': True},
 'protocols': {'stdout': True},
 'provenance': {'creator': 'QCElemental', 'routine': 'qcelemental.models.results', 'version': '0.27.1'},
 'schema_name': 'qcschema_input',
 'schema_version': 1}
--------------------------------------------------------------------------

Scratch directory: /scratch/
   => Libint2 <=

    Primary   basis highest AM E, G, H:  5, 4, 3
    Auxiliary basis highest AM E, G, H:  6, 5, 4
    Onebody   basis highest AM E, G, H:  6, 5, 4
    Solid Harmonics ordering:            gaussian

*** tstart() called on moses-razer
*** at Sat Jan  6 20:05:46 2024

   => Loading Basis Set <=

    Name: AUG-CC-PVTZ
    Role: ORBITAL
    Keyword: BASIS
    atoms 1                            entry K          line  1152 file /home/kchung25/anaconda3/envs/p415env/share/psi4/basis/aug-cc-pvtz.gbs 
    atoms 2, 5, 8, 11, 14              entry O          line   331 file /home/kchung25/anaconda3/envs/p415env/share/psi4/basis/aug-cc-pvtz.gbs 
    atoms 3-4, 6-7, 9-10, 12-13, 15-16 entry H          line    40 file /home/kchung25/anaconda3/envs/p415env/share/psi4/basis/aug-cc-pvtz.gbs 


         ---------------------------------------------------------
                                   SCF
               by Justin Turney, Rob Parrish, Andy Simmonett
                          and Daniel G. A. Smith
                              RHF Reference
                        6 Threads,  57220 MiB Core
         ---------------------------------------------------------

  ==> Geometry <==

    Molecular point group: c1
    Full point group: C1

    Geometry (in Bohr), charge = 1, multiplicity = 1:

       Center              X                  Y                   Z               Mass       
    ------------   -----------------  -----------------  -----------------  -----------------
         K            0.000000000000     0.000000000000     0.000000000000    38.963706486400
         O            0.585087554334    -4.957473502456    -2.930502237684    15.994914619570
         H            0.138949672279    -6.447169173594    -3.858828307089     1.007825032230
         H            1.383362671785    -5.525661236049    -1.382209938848     1.007825032230
         O           -4.779674840490     1.904309141968     0.282385554379    15.994914619570
         H           -5.728013109563     2.493540865695    -1.132495859452     1.007825032230
         H           -5.037034751790     0.079188973287     0.610307839204     1.007825032230
         O            3.266236650312     3.167853728768     1.156077751771    15.994914619570
         H            2.469305128136     4.175865769431     2.330005856524     1.007825032230
         H            3.813518343779     4.296768557212    -0.239779789155     1.007825032230
         O            1.200930401359    -0.589828877182     5.105352130677    15.994914619570
         H           -0.310767351058    -1.537027641402     5.772973473540     1.007825032230
         H            1.790770616898     0.405710971053     6.458819335157     1.007825032230
         O            0.014690730899     1.289802331313    -4.587750475736    15.994914619570
         H           -1.659158751165     1.529697393762    -5.412674511008     1.007825032230
         H            1.092101073794     0.823380129028    -5.942982684417     1.007825032230

  Running in c1 symmetry.

  Rotational constants: A =      0.04565  B =      0.03438  C =      0.03131 [cm^-1]
  Rotational constants: A =   1368.44863  B =   1030.55579  C =    938.78892 [MHz]
  Nuclear repulsion =  350.640154798289473

  Charge       = 1
  Multiplicity = 1
  Electrons    = 68
  Nalpha       = 34
  Nbeta        = 34

  ==> Algorithm <==

  SCF Algorithm Type is DF.
  DIIS enabled.
  MOM disabled.
  Fractional occupation disabled.
  Guess Type is SAD.
  Energy threshold   = 1.00e-08
  Density threshold  = 1.00e-08
  Integral threshold = 1.00e-12

  ==> Primary Basis <==

  Basis Set: AUG-CC-PVTZ
    Blend: AUG-CC-PVTZ
    Number of shells: 179
    Number of basis functions: 519
    Number of Cartesian functions: 594
    Spherical Harmonics?: true
    Max angular momentum: 3

   => Loading Basis Set <=

    Name: (AUG-CC-PVTZ AUX)
    Role: JKFIT
    Keyword: DF_BASIS_SCF
    atoms 1                            entry K          line  1152 file /home/kchung25/anaconda3/envs/p415env/share/psi4/basis/def2-universal-jkfit.gbs 
    atoms 2, 5, 8, 11, 14              entry O          line   286 file /home/kchung25/anaconda3/envs/p415env/share/psi4/basis/aug-cc-pvtz-jkfit.gbs 
    atoms 3-4, 6-7, 9-10, 12-13, 15-16 entry H          line    70 file /home/kchung25/anaconda3/envs/p415env/share/psi4/basis/aug-cc-pvtz-jkfit.gbs 

  ==> Integral Setup <==

  DFHelper Memory: AOs need 2.081 GiB; user supplied 41.910 GiB. 
  Using in-core AOs.

  ==> MemDFJK: Density-Fitted J/K Matrices <==

    J tasked:                   Yes
    K tasked:                   Yes
    wK tasked:                   No
    OpenMP threads:               6
    Memory [MiB]:             42915
    Algorithm:                 Core
    Schwarz Cutoff:           1E-12
    Mask sparsity (%):      12.3537
    Fitting Condition:        1E-10

   => Auxiliary Basis Set <=

  Basis Set: (AUG-CC-PVTZ AUX)
    Blend: AUG-CC-PVTZ-JKFIT + DEF2-UNIVERSAL-JKFIT
    Number of shells: 334
    Number of basis functions: 1140
    Number of Cartesian functions: 1408
    Spherical Harmonics?: true
    Max angular momentum: 4

  Minimum eigenvalue in the overlap matrix is 6.0641631825E-05.
  Reciprocal condition number of the overlap matrix is 4.6161605318E-06.
    Using symmetric orthogonalization.

  ==> Pre-Iterations <==

  SCF Guess: Superposition of Atomic Densities via on-the-fly atomic UHF (no occupation information).

   -------------------------
    Irrep   Nso     Nmo    
   -------------------------
     A        519     519 
   -------------------------
    Total     519     519
   -------------------------

  ==> Iterations <==

                           Total Energy        Delta E     RMS |[F,P]|

   @DF-RHF iter SAD:  -976.60565715946564   -9.76606e+02   0.00000e+00 
   @DF-RHF iter   1:  -978.93569048003337   -2.33003e+00   2.07315e-03 DIIS/ADIIS
   @DF-RHF iter   2:  -979.21460056032117   -2.78910e-01   1.39259e-03 DIIS/ADIIS
   @DF-RHF iter   3:  -979.37617236168103   -1.61572e-01   9.68009e-05 DIIS
   @DF-RHF iter   4:  -979.37823005237851   -2.05769e-03   2.44501e-05 DIIS
   @DF-RHF iter   5:  -979.37836832655898   -1.38274e-04   6.35213e-06 DIIS
   @DF-RHF iter   6:  -979.37838007166874   -1.17451e-05   2.67684e-06 DIIS
   @DF-RHF iter   7:  -979.37838124958705   -1.17792e-06   6.91438e-07 DIIS
   @DF-RHF iter   8:  -979.37838140039128   -1.50804e-07   1.34385e-07 DIIS
   @DF-RHF iter   9:  -979.37838140611814   -5.72686e-09   3.46452e-08 DIIS
   @DF-RHF iter  10:  -979.37838140642555   -3.07409e-10   1.15015e-08 DIIS
   @DF-RHF iter  11:  -979.37838140644953   -2.39879e-11   4.49516e-09 DIIS
  Energy and wave function converged.


  ==> Post-Iterations <==

    Orbital Energies [Eh]
    ---------------------

    Doubly Occupied:                                                      

       1A   -133.598351     2A    -20.719425     3A    -20.716480  
       4A    -20.712713     5A    -20.706647     6A    -20.703035  
       7A    -14.557059     8A    -11.586853     9A    -11.586823  
      10A    -11.586662    11A     -1.823091    12A     -1.501703  
      13A     -1.499616    14A     -1.497781    15A     -1.490522  
      16A     -1.485768    17A     -1.036561    18A     -1.033831  
      19A     -1.032907    20A     -0.879681    21A     -0.868344  
      22A     -0.859066    23A     -0.856239    24A     -0.855374  
      25A     -0.743998    26A     -0.735747    27A     -0.724223  
      28A     -0.723301    29A     -0.721040    30A     -0.664829  
      31A     -0.662722    32A     -0.658733    33A     -0.655469  
      34A     -0.647092  

    Virtual:                                                              

      35A     -0.091942    36A     -0.072790    37A     -0.068088  
      38A     -0.065543    39A     -0.050836    40A     -0.049653  
      41A     -0.047660    42A     -0.045232    43A     -0.044142  
      44A     -0.042823    45A     -0.036502    46A     -0.034354  
      47A     -0.033874    48A     -0.023605    49A     -0.022207  
      50A     -0.020600    51A     -0.018797    52A     -0.017365  
      53A     -0.016449    54A     -0.012841    55A     -0.008640  
      56A     -0.007703    57A     -0.006184    58A     -0.004835  
      59A     -0.002475    60A      0.000944    61A      0.003648  
      62A      0.015214    63A      0.017599    64A      0.019548  
      65A      0.028706    66A      0.041274    67A      0.042058  
      68A      0.046478    69A      0.054317    70A      0.056135  
      71A      0.063099    72A      0.067426    73A      0.078090  
      74A      0.081555    75A      0.083161    76A      0.089331  
      77A      0.091797    78A      0.096752    79A      0.102113  
      80A      0.104403    81A      0.108281    82A      0.112613  
      83A      0.119312    84A      0.122103    85A      0.124765  
      86A      0.129754    87A      0.133328    88A      0.134388  
      89A      0.138387    90A      0.148357    91A      0.154823  
      92A      0.159882    93A      0.163606    94A      0.169514  
      95A      0.176720    96A      0.180346    97A      0.187965  
      98A      0.189114    99A      0.197449   100A      0.202906  
     101A      0.210857   102A      0.219952   103A      0.223528  
     104A      0.227593   105A      0.234842   106A      0.238987  
     107A      0.246699   108A      0.255341   109A      0.258034  
     110A      0.268519   111A      0.272958   112A      0.278627  
     113A      0.285584   114A      0.294485   115A      0.295642  
     116A      0.301304   117A      0.307003   118A      0.311150  
     119A      0.318254   120A      0.318624   121A      0.323918  
     122A      0.331193   123A      0.340790   124A      0.344147  
     125A      0.344998   126A      0.355402   127A      0.357512  
     128A      0.362565   129A      0.364961   130A      0.367022  
     131A      0.369755   132A      0.372508   133A      0.377184  
     134A      0.381534   135A      0.387908   136A      0.394500  
     137A      0.400199   138A      0.400370   139A      0.402476  
     140A      0.407721   141A      0.411811   142A      0.418828  
     143A      0.427147   144A      0.437774   145A      0.440598  
     146A      0.453325   147A      0.462119   148A      0.467856  
     149A      0.477538   150A      0.487487   151A      0.501093  
     152A      0.527831   153A      0.545704   154A      0.550419  
     155A      0.572416   156A      0.573883   157A      0.576986  
     158A      0.586933   159A      0.601643   160A      0.602056  
     161A      0.616967   162A      0.636689   163A      0.638682  
     164A      0.652688   165A      0.664767   166A      0.672552  
     167A      0.680650   168A      0.689674   169A      0.699835  
     170A      0.705542   171A      0.714856   172A      0.725725  
     173A      0.726590   174A      0.733000   175A      0.741290  
     176A      0.748343   177A      0.757838   178A      0.767870  
     179A      0.770575   180A      0.784139   181A      0.794435  
     182A      0.797576   183A      0.810821   184A      0.818136  
     185A      0.826274   186A      0.832094   187A      0.834841  
     188A      0.840999   189A      0.849353   190A      0.857313  
     191A      0.861950   192A      0.873311   193A      0.880125  
     194A      0.886681   195A      0.899136   196A      0.907161  
     197A      0.912822   198A      0.922508   199A      0.925801  
     200A      0.933419   201A      0.936929   202A      0.942904  
     203A      0.946640   204A      0.955537   205A      0.956912  
     206A      0.961423   207A      0.968540   208A      0.972715  
     209A      0.974977   210A      0.981346   211A      0.989516  
     212A      0.996473   213A      0.997627   214A      1.009591  
     215A      1.012281   216A      1.017777   217A      1.027982  
     218A      1.033321   219A      1.037051   220A      1.044867  
     221A      1.050430   222A      1.063797   223A      1.070068  
     224A      1.071764   225A      1.074939   226A      1.085495  
     227A      1.095395   228A      1.102530   229A      1.104785  
     230A      1.111410   231A      1.122649   232A      1.127546  
     233A      1.130172   234A      1.148055   235A      1.155450  
     236A      1.156905   237A      1.168661   238A      1.184443  
     239A      1.189460   240A      1.196605   241A      1.196995  
     242A      1.213714   243A      1.219266   244A      1.231102  
     245A      1.247425   246A      1.262624   247A      1.270625  
     248A      1.282869   249A      1.300315   250A      1.318617  
     251A      1.342023   252A      1.371832   253A      1.396036  
     254A      1.445374   255A      1.449434   256A      1.464278  
     257A      1.497580   258A      1.508561   259A      1.514365  
     260A      1.518478   261A      1.545040   262A      1.547794  
     263A      1.551436   264A      1.571312   265A      1.580416  
     266A      1.589438   267A      1.615184   268A      1.629624  
     269A      1.639438   270A      1.705775   271A      1.710408  
     272A      1.713861   273A      1.723764   274A      1.785301  
     275A      1.794234   276A      1.814086   277A      1.838165  
     278A      1.861331   279A      1.872663   280A      1.876667  
     281A      1.887483   282A      1.900397   283A      1.905319  
     284A      1.949957   285A      2.000324   286A      2.009868  
     287A      2.017737   288A      2.032780   289A      2.054463  
     290A      2.174120   291A      2.184756   292A      2.191925  
     293A      2.194594   294A      2.199694   295A      2.209189  
     296A      2.212014   297A      2.215313   298A      2.224283  
     299A      2.236265   300A      2.267036   301A      2.274384  
     302A      2.285611   303A      2.290781   304A      2.303289  
     305A      2.315448   306A      2.324802   307A      2.331595  
     308A      2.338861   309A      2.353819   310A      2.370531  
     311A      2.375021   312A      2.377235   313A      2.390414  
     314A      2.405346   315A      2.424835   316A      2.435346  
     317A      2.449340   318A      2.458676   319A      2.487008  
     320A      2.500797   321A      2.533462   322A      2.543724  
     323A      2.560766   324A      2.589217   325A      2.600687  
     326A      2.611147   327A      2.619497   328A      2.636007  
     329A      2.649024   330A      2.651726   331A      2.658233  
     332A      2.666415   333A      2.676174   334A      2.691230  
     335A      2.697972   336A      2.704794   337A      2.719534  
     338A      2.728351   339A      2.743370   340A      2.770794  
     341A      2.778291   342A      2.780828   343A      2.792155  
     344A      2.799767   345A      2.809272   346A      2.819947  
     347A      2.825022   348A      2.838118   349A      2.849424  
     350A      3.558424   351A      3.563310   352A      3.590478  
     353A      3.598222   354A      3.656981   355A      3.687310  
     356A      3.704916   357A      3.711450   358A      3.733850  
     359A      3.754544   360A      3.877006   361A      3.906879  
     362A      3.934025   363A      3.942697   364A      3.949565  
     365A      4.030281   366A      4.050241   367A      4.057781  
     368A      4.066807   369A      4.077056   370A      4.093726  
     371A      4.108533   372A      4.112534   373A      4.119869  
     374A      4.123578   375A      4.135768   376A      4.138019  
     377A      4.148771   378A      4.154682   379A      4.190876  
     380A      4.206925   381A      4.209151   382A      4.229722  
     383A      4.241970   384A      4.245852   385A      4.283390  
     386A      4.288877   387A      4.295180   388A      4.301041  
     389A      4.318653   390A      4.323900   391A      4.331614  
     392A      4.332528   393A      4.347344   394A      4.350322  
     395A      4.359341   396A      4.377333   397A      4.387759  
     398A      4.394917   399A      4.398087   400A      4.407726  
     401A      4.420288   402A      4.428691   403A      4.442800  
     404A      4.474989   405A      4.583991   406A      4.607447  
     407A      4.618199   408A      4.638015   409A      4.653725  
     410A      4.671716   411A      4.708021   412A      4.712190  
     413A      4.728035   414A      4.740332   415A      4.945765  
     416A      4.956313   417A      4.983223   418A      4.984712  
     419A      4.988849   420A      4.996471   421A      5.002823  
     422A      5.008200   423A      5.019990   424A      5.031116  
     425A      5.100455   426A      5.144510   427A      5.161155  
     428A      5.163331   429A      5.187489   430A      5.197714  
     431A      5.207271   432A      5.213547   433A      5.219877  
     434A      5.311245   435A      5.324403   436A      5.364334  
     437A      5.372007   438A      5.376976   439A      5.422214  
     440A      5.605553   441A      5.616780   442A      5.655443  
     443A      5.675171   444A      5.708122   445A      5.978099  
     446A      6.087150   447A      6.105052   448A      6.108195  
     449A      6.183467   450A      6.449750   451A      6.456157  
     452A      6.467387   453A      6.483567   454A      6.490134  
     455A      6.583096   456A      6.590121   457A      6.599897  
     458A      6.606996   459A      6.613915   460A      6.690758  
     461A      6.733610   462A      6.755835   463A      6.773004  
     464A      6.788058   465A      6.987604   466A      6.994471  
     467A      7.025765   468A      7.031421   469A      7.033169  
     470A      7.124824   471A      7.146809   472A      7.149107  
     473A      7.150572   474A      7.155812   475A      7.172248  
     476A      7.175016   477A      7.177222   478A      7.191848  
     479A      7.202677   480A      7.204334   481A      7.213953  
     482A      7.226341   483A      7.228350   484A      7.246811  
     485A      7.251921   486A      7.256925   487A      7.264587  
     488A      7.266793   489A      7.280187   490A      7.287679  
     491A      7.305469   492A      7.308254   493A      7.310624  
     494A      7.315252   495A      7.429702   496A      7.434119  
     497A      7.445473   498A      7.453611   499A      7.533171  
     500A      7.679154   501A      7.722722   502A      7.732908  
     503A      7.773826   504A      7.776116   505A      7.804892  
     506A      7.813944   507A      7.833197   508A      7.846785  
     509A      7.883667   510A      8.558622   511A      8.600701  
     512A      8.623410   513A      8.654162   514A      8.693084  
     515A     15.445719   516A     15.522949   517A     15.644003  
     518A     15.726679   519A     16.177909  

    Final Occupation by Irrep:
              A 
    DOCC [    34 ]
    NA   [    34 ]
    NB   [    34 ]

  @DF-RHF Final Energy:  -979.37838140644953

   => Energetics <=

    Nuclear Repulsion Energy =            350.6401547982894726
    One-Electron Energy =               -2039.7736943978716226
    Two-Electron Energy =                 709.7551581931325018
    Total Energy =                       -979.3783814064495346

Computation Completed


Properties will be evaluated at   0.000000,   0.000000,   0.000000 [a0]

Properties computed using the SCF density matrix


 Multipole Moments:

 ------------------------------------------------------------------------------------
     Multipole            Electronic (a.u.)      Nuclear  (a.u.)        Total (a.u.)
 ------------------------------------------------------------------------------------

 L = 1.  Multiply by 2.5417464519 to convert [e a0] to [Debye]
 Dipole X            :         -1.0942353            0.2511975           -0.8430378
 Dipole Y            :         -7.1259310            6.8115972           -0.3143338
 Dipole Z            :         10.1905691          -10.5923628           -0.4017937
 Magnitude           :                                                    0.9853713

 ------------------------------------------------------------------------------------

*** tstop() called on moses-razer at Sat Jan  6 20:06:03 2024
Module time:
	user time   =      63.84 seconds =       1.06 minutes
	system time =       4.29 seconds =       0.07 minutes
	total time  =         17 seconds =       0.28 minutes
Total time:
	user time   =     205.80 seconds =       3.43 minutes
	system time =      13.92 seconds =       0.23 minutes
	total time  =         62 seconds =       1.03 minutes

*** tstart() called on moses-razer
*** at Sat Jan  6 20:06:03 2024


  //>>>>>>>>>>>>>>>>>>>>>>>>>>>>>>>>>>>//
  //               DFMP2               //
  //<<<<<<<<<<<<<<<<<<<<<<<<<<<<<<<<<<<//

   => Loading Basis Set <=

    Name: (AUG-CC-PVTZ AUX)
    Role: RIFIT
    Keyword: DF_BASIS_MP2
    atoms 1                            entry K          line  1282 file /home/kchung25/anaconda3/envs/p415env/share/psi4/basis/def2-qzvpp-ri.gbs 
    atoms 2, 5, 8, 11, 14              entry O          line   264 file /home/kchung25/anaconda3/envs/p415env/share/psi4/basis/aug-cc-pvtz-ri.gbs 
    atoms 3-4, 6-7, 9-10, 12-13, 15-16 entry H          line    30 file /home/kchung25/anaconda3/envs/p415env/share/psi4/basis/aug-cc-pvtz-ri.gbs 

	 --------------------------------------------------------
	                          DF-MP2                         
	      2nd-Order Density-Fitted Moller-Plesset Theory     
	              RMP2 Wavefunction,   6 Threads             
	                                                         
	        Rob Parrish, Justin Turney, Andy Simmonett,      
	           Ed Hohenstein, and C. David Sherrill          
	 --------------------------------------------------------

   => Auxiliary Basis Set <=

  Basis Set: (AUG-CC-PVTZ AUX)
    Blend: AUG-CC-PVTZ-RI + DEF2-QZVPP-RI
    Number of shells: 329
    Number of basis functions: 1189
    Number of Cartesian functions: 1492
    Spherical Harmonics?: true
    Max angular momentum: 4

	 --------------------------------------------------------
	                 NBF =   519, NAUX =  1189
	 --------------------------------------------------------
	   CLASS    FOCC     OCC    AOCC    AVIR     VIR    FVIR
	   PAIRS       0      34      34     485     485       0
	 --------------------------------------------------------

	-----------------------------------------------------------
	 ==================> DF-MP2 Energies <==================== 
	-----------------------------------------------------------
	 Reference Energy          =    -979.3783814064495346 [Eh]
	 Singles Energy            =      -0.0000000000000000 [Eh]
	 Same-Spin Energy          =      -0.3862352116906454 [Eh]
	 Opposite-Spin Energy      =      -1.1752680792914594 [Eh]
	 Correlation Energy        =      -1.5615032909821047 [Eh]
	 Total Energy              =    -980.9398846974316939 [Eh]
	-----------------------------------------------------------
	 ================> DF-SCS-MP2 Energies <================== 
	-----------------------------------------------------------
	 SCS Same-Spin Scale       =       0.3333333333333333 [-]
	 SCS Opposite-Spin Scale   =       1.2000000000000000 [-]
	 SCS Same-Spin Energy      =      -0.1287450705635484 [Eh]
	 SCS Opposite-Spin Energy  =      -1.4103216951497513 [Eh]
	 SCS Correlation Energy    =      -1.5390667657132997 [Eh]
	 SCS Total Energy          =    -980.9174481721628354 [Eh]
	-----------------------------------------------------------


*** tstop() called on moses-razer at Sat Jan  6 20:06:13 2024
Module time:
	user time   =      31.44 seconds =       0.52 minutes
	system time =       1.89 seconds =       0.03 minutes
	total time  =         10 seconds =       0.17 minutes
Total time:
	user time   =     237.25 seconds =       3.95 minutes
	system time =      15.81 seconds =       0.26 minutes
	total time  =         72 seconds =       1.20 minutes

    Psi4 stopped on: Saturday, 06 January 2024 08:06PM
    Psi4 wall time for execution: 0:00:27.65


  //>>>>>>>>>>>>>>>>>>>>>>>>>>>>>>>>>>>//
  //          ManyBody Results         //
  //<<<<<<<<<<<<<<<<<<<<<<<<<<<<<<<<<<<//


   ==> N-Body: Counterpoise Corrected (CP) energies <==

        n-Body     Total Energy            Interaction Energy                          N-body Contribution to Interaction Energy
                   [Eh]                    [Eh]                  [kcal/mol]            [Eh]                  [kcal/mol]
             1  N/A                         0.000000000000        0.000000000000        0.000000000000        0.000000000000
  FULL/RTN   2  N/A                        -0.085525296455      -53.667933772924       -0.085525296455      -53.667933772924


    Psi4 stopped on: Saturday, 06 January 2024 08:06PM
    Psi4 wall time for execution: 0:01:14.51

*** Psi4 exiting successfully. Buy a developer a beer!
