
    -----------------------------------------------------------------------
          Psi4: An Open-Source Ab Initio Electronic Structure Package
                               Psi4 1.9 release

                         Git: Rev {} zzzzzzz 


    D. G. A. Smith, L. A. Burns, A. C. Simmonett, R. M. Parrish,
    M. C. Schieber, R. Galvelis, P. Kraus, H. Kruse, R. Di Remigio,
    A. Alenaizan, A. M. James, S. Lehtola, J. P. Misiewicz, M. Scheurer,
    R. A. Shaw, J. B. Schriber, Y. Xie, Z. L. Glick, D. A. Sirianni,
    J. S. O'Brien, J. M. Waldrop, A. Kumar, E. G. Hohenstein,
    B. P. Pritchard, B. R. Brooks, H. F. Schaefer III, A. Yu. Sokolov,
    K. Patkowski, A. E. DePrince III, U. Bozkaya, R. A. King,
    F. A. Evangelista, J. M. Turney, T. D. Crawford, C. D. Sherrill,
    J. Chem. Phys. 152(18) 184108 (2020). https://doi.org/10.1063/5.0006002

                            Additional Code Authors
    E. T. Seidl, C. L. Janssen, E. F. Valeev, M. L. Leininger,
    J. F. Gonthier, R. M. Richard, H. R. McAlexander, M. Saitow, X. Wang,
    P. Verma, M. H. Lechner, A. Jiang, S. Behnle, A. G. Heide,
    M. F. Herbst, and D. L. Poole

             Previous Authors, Complete List of Code Contributors,
                       and Citations for Specific Modules
    https://github.com/psi4/psi4/blob/master/codemeta.json
    https://github.com/psi4/psi4/graphs/contributors
    http://psicode.org/psi4manual/master/introduction.html#citing-psifour

    -----------------------------------------------------------------------


    Psi4 started on: Wednesday, 24 January 2024 05:21PM

    Process ID: 1245566
    Host:       moses-razer
    PSIDATADIR: /home/kchung25/anaconda3/envs/psi4_19/share/psi4
    Memory:     500.0 MiB
    Threads:    6
    
  ==> Input File <==

--------------------------------------------------------------------------
MEMORY 60 GB

molecule dimer {
0 1
Gh(K)      0.000000     0.000000     0.000000
O          1.648898    -1.546006    -1.857996
H          2.092535    -1.100966    -2.598197
H          2.194052    -2.356053    -1.700477
Gh(O)     -1.568301     2.383087    -1.001812
Gh(H)     -1.802415     2.237050    -1.910497
Gh(H)     -1.213233     3.238371    -0.886325
Gh(O)      2.091592     1.900784     0.705839
Gh(H)      2.615292     1.641900     1.402222
Gh(H)      2.546075     1.586819    -0.079299
Gh(O)      0.683124    -2.379385     1.323810
Gh(H)      1.575264    -2.320863     1.667866
Gh(H)      0.490384    -3.085364     0.686686
Gh(O)     -1.338183    -0.586736    -2.404592
Gh(H)     -2.281260    -0.401331    -2.486804
Gh(H)     -1.244841    -1.567581    -2.320192
Gh(O)     -2.060914     0.053466     1.559508
Gh(H)     -2.771129     0.606849     1.759945
Gh(H)     -2.154751    -0.845782     1.906871

units ang
no_reorient
no_com
symmetry c1
}

set {
basis        aug-cc-pVTZ
scf_type     df
}

energy("mp2")
--------------------------------------------------------------------------

  Memory set to  55.879 GiB by Python driver.

Scratch directory: /scratch/
   => Libint2 <=

    Primary   basis highest AM E, G, H:  5, 4, 3
    Auxiliary basis highest AM E, G, H:  6, 5, 4
    Onebody   basis highest AM E, G, H:  6, 5, 4
    Solid Harmonics ordering:            gaussian

*** tstart() called on moses-razer
*** at Wed Jan 24 17:21:26 2024

   => Loading Basis Set <=

    Name: AUG-CC-PVTZ
    Role: ORBITAL
    Keyword: BASIS
    atoms 1                                   entry K          line  1152 file /home/kchung25/anaconda3/envs/p415env/share/psi4/basis/aug-cc-pvtz.gbs 
    atoms 2, 5, 8, 11, 14, 17                 entry O          line   331 file /home/kchung25/anaconda3/envs/p415env/share/psi4/basis/aug-cc-pvtz.gbs 
    atoms 3-4, 6-7, 9-10, 12-13, 15-16, 18-19 entry H          line    40 file /home/kchung25/anaconda3/envs/p415env/share/psi4/basis/aug-cc-pvtz.gbs 


         ---------------------------------------------------------
                                   SCF
               by Justin Turney, Rob Parrish, Andy Simmonett
                          and Daniel G. A. Smith
                              RHF Reference
                        6 Threads,  57220 MiB Core
         ---------------------------------------------------------

  ==> Geometry <==

    Molecular point group: c1
    Full point group: C1

    Geometry (in Angstrom), charge = 0, multiplicity = 1:

       Center              X                  Y                   Z               Mass       
    ------------   -----------------  -----------------  -----------------  -----------------
      Gh(K)           0.000000000000     0.000000000000     0.000000000000    38.963706486400
         O            1.648898000000    -1.546006000000    -1.857996000000    15.994914619570
         H            2.092535000000    -1.100966000000    -2.598197000000     1.007825032230
         H            2.194052000000    -2.356053000000    -1.700477000000     1.007825032230
      Gh(O)          -1.568301000000     2.383087000000    -1.001812000000    15.994914619570
      Gh(H)          -1.802415000000     2.237050000000    -1.910497000000     1.007825032230
      Gh(H)          -1.213233000000     3.238371000000    -0.886325000000     1.007825032230
      Gh(O)           2.091592000000     1.900784000000     0.705839000000    15.994914619570
      Gh(H)           2.615292000000     1.641900000000     1.402222000000     1.007825032230
      Gh(H)           2.546075000000     1.586819000000    -0.079299000000     1.007825032230
      Gh(O)           0.683124000000    -2.379385000000     1.323810000000    15.994914619570
      Gh(H)           1.575264000000    -2.320863000000     1.667866000000     1.007825032230
      Gh(H)           0.490384000000    -3.085364000000     0.686686000000     1.007825032230
      Gh(O)          -1.338183000000    -0.586736000000    -2.404592000000    15.994914619570
      Gh(H)          -2.281260000000    -0.401331000000    -2.486804000000     1.007825032230
      Gh(H)          -1.244841000000    -1.567581000000    -2.320192000000     1.007825032230
      Gh(O)          -2.060914000000     0.053466000000     1.559508000000    15.994914619570
      Gh(H)          -2.771129000000     0.606849000000     1.759945000000     1.007825032230
      Gh(H)          -2.154751000000    -0.845782000000     1.906871000000     1.007825032230

  Running in c1 symmetry.

  Rotational constants: A =      0.03173  B =      0.02678  C =      0.02539 [cm^-1]
  Rotational constants: A =    951.38476  B =    802.94542  C =    761.32008 [MHz]
  Nuclear repulsion =    8.982577028786869

  Charge       = 0
  Multiplicity = 1
  Electrons    = 10
  Nalpha       = 5
  Nbeta        = 5

  ==> Algorithm <==

  SCF Algorithm Type is DF.
  DIIS enabled.
  MOM disabled.
  Fractional occupation disabled.
  Guess Type is SAD.
  Energy threshold   = 1.00e-08
  Density threshold  = 1.00e-08
  Integral threshold = 1.00e-12

  ==> Primary Basis <==

  Basis Set: AUG-CC-PVTZ
    Blend: AUG-CC-PVTZ
    Number of shells: 211
    Number of basis functions: 611
    Number of Cartesian functions: 699
    Spherical Harmonics?: true
    Max angular momentum: 3

   => Loading Basis Set <=

    Name: (AUG-CC-PVTZ AUX)
    Role: JKFIT
    Keyword: DF_BASIS_SCF
    atoms 1                                   entry K          line  1152 file /home/kchung25/anaconda3/envs/p415env/share/psi4/basis/def2-universal-jkfit.gbs 
    atoms 2, 5, 8, 11, 14, 17                 entry O          line   286 file /home/kchung25/anaconda3/envs/p415env/share/psi4/basis/aug-cc-pvtz-jkfit.gbs 
    atoms 3-4, 6-7, 9-10, 12-13, 15-16, 18-19 entry H          line    70 file /home/kchung25/anaconda3/envs/p415env/share/psi4/basis/aug-cc-pvtz-jkfit.gbs 

  ==> Integral Setup <==

  DFHelper Memory: AOs need 3.317 GiB; user supplied 41.910 GiB. 
  Using in-core AOs.

  ==> MemDFJK: Density-Fitted J/K Matrices <==

    J tasked:                   Yes
    K tasked:                   Yes
    wK tasked:                   No
    OpenMP threads:               6
    Memory [MiB]:             42915
    Algorithm:                 Core
    Schwarz Cutoff:           1E-12
    Mask sparsity (%):      13.5754
    Fitting Condition:        1E-10

   => Auxiliary Basis Set <=

  Basis Set: (AUG-CC-PVTZ AUX)
    Blend: AUG-CC-PVTZ-JKFIT + DEF2-UNIVERSAL-JKFIT
    Number of shells: 392
    Number of basis functions: 1336
    Number of Cartesian functions: 1649
    Spherical Harmonics?: true
    Max angular momentum: 4

  Minimum eigenvalue in the overlap matrix is 5.1957943650E-05.
  Reciprocal condition number of the overlap matrix is 3.6632610925E-06.
    Using symmetric orthogonalization.

  ==> Pre-Iterations <==

  SCF Guess: Superposition of Atomic Densities via on-the-fly atomic UHF (no occupation information).

   -------------------------
    Irrep   Nso     Nmo    
   -------------------------
     A        611     611 
   -------------------------
    Total     611     611
   -------------------------

  ==> Iterations <==

                           Total Energy        Delta E     RMS |[F,P]|

   @DF-RHF iter SAD:   -75.45177391386198   -7.54518e+01   0.00000e+00 
   @DF-RHF iter   1:   -75.97270849496080   -5.20935e-01   7.64237e-04 DIIS/ADIIS
   @DF-RHF iter   2:   -76.02455419724349   -5.18457e-02   5.33346e-04 DIIS/ADIIS
   @DF-RHF iter   3:   -76.05763221969009   -3.30780e-02   3.63712e-05 DIIS
   @DF-RHF iter   4:   -76.05805177269343   -4.19553e-04   9.10984e-06 DIIS
   @DF-RHF iter   5:   -76.05808090802782   -2.91353e-05   2.11267e-06 DIIS
   @DF-RHF iter   6:   -76.05808337518479   -2.46716e-06   4.63919e-07 DIIS
   @DF-RHF iter   7:   -76.05808350433666   -1.29152e-07   8.20776e-08 DIIS
   @DF-RHF iter   8:   -76.05808350784281   -3.50614e-09   1.41601e-08 DIIS
   @DF-RHF iter   9:   -76.05808350792707   -8.42562e-11   3.62564e-09 DIIS
  Energy and wave function converged.


  ==> Post-Iterations <==

    Orbital Energies [Eh]
    ---------------------

    Doubly Occupied:                                                      

       1A    -20.571169     2A     -1.342374     3A     -0.704874  
       4A     -0.581136     5A     -0.508605  

    Virtual:                                                              

       6A      0.006895     7A      0.009550     8A      0.009975  
       9A      0.010772    10A      0.017600    11A      0.017952  
      12A      0.018634    13A      0.018746    14A      0.018914  
      15A      0.032128    16A      0.034326    17A      0.034935  
      18A      0.040010    19A      0.053059    20A      0.056257  
      21A      0.059122    22A      0.060097    23A      0.061135  
      24A      0.069637    25A      0.073057    26A      0.073773  
      27A      0.076272    28A      0.077570    29A      0.082121  
      30A      0.084842    31A      0.087759    32A      0.088910  
      33A      0.095982    34A      0.101137    35A      0.101842  
      36A      0.104252    37A      0.116445    38A      0.128162  
      39A      0.142714    40A      0.147593    41A      0.152223  
      42A      0.155495    43A      0.163679    44A      0.165960  
      45A      0.168345    46A      0.171922    47A      0.177813  
      48A      0.179885    49A      0.183579    50A      0.184229  
      51A      0.192018    52A      0.194822    53A      0.201927  
      54A      0.202683    55A      0.207084    56A      0.212558  
      57A      0.215255    58A      0.221079    59A      0.226504  
      60A      0.234482    61A      0.237905    62A      0.241997  
      63A      0.248253    64A      0.253262    65A      0.263847  
      66A      0.270626    67A      0.281515    68A      0.285709  
      69A      0.291489    70A      0.292853    71A      0.298817  
      72A      0.302163    73A      0.311834    74A      0.320167  
      75A      0.326145    76A      0.327072    77A      0.334139  
      78A      0.341119    79A      0.348278    80A      0.351349  
      81A      0.362053    82A      0.363454    83A      0.371037  
      84A      0.375473    85A      0.376769    86A      0.382746  
      87A      0.389192    88A      0.391489    89A      0.395012  
      90A      0.400529    91A      0.404386    92A      0.407352  
      93A      0.409861    94A      0.412083    95A      0.415175  
      96A      0.427566    97A      0.429466    98A      0.432610  
      99A      0.438797   100A      0.443040   101A      0.445484  
     102A      0.449788   103A      0.451675   104A      0.461251  
     105A      0.466255   106A      0.469582   107A      0.470729  
     108A      0.476747   109A      0.480707   110A      0.484304  
     111A      0.492191   112A      0.494110   113A      0.500811  
     114A      0.510891   115A      0.514371   116A      0.517038  
     117A      0.522888   118A      0.529284   119A      0.531788  
     120A      0.533885   121A      0.546543   122A      0.552239  
     123A      0.560668   124A      0.567044   125A      0.580161  
     126A      0.582914   127A      0.594657   128A      0.604616  
     129A      0.609578   130A      0.619587   131A      0.647589  
     132A      0.659640   133A      0.681264   134A      0.697308  
     135A      0.712104   136A      0.724835   137A      0.738677  
     138A      0.740025   139A      0.742049   140A      0.761519  
     141A      0.768427   142A      0.779123   143A      0.785910  
     144A      0.794120   145A      0.799607   146A      0.807973  
     147A      0.810887   148A      0.816756   149A      0.825846  
     150A      0.831655   151A      0.835929   152A      0.843035  
     153A      0.850524   154A      0.861946   155A      0.867393  
     156A      0.871411   157A      0.876255   158A      0.882420  
     159A      0.885988   160A      0.892337   161A      0.898413  
     162A      0.906263   163A      0.906759   164A      0.912637  
     165A      0.918984   166A      0.927374   167A      0.929109  
     168A      0.937098   169A      0.942706   170A      0.946368  
     171A      0.951201   172A      0.961499   173A      0.967445  
     174A      0.972636   175A      0.975874   176A      0.983545  
     177A      0.988764   178A      0.990844   179A      0.993781  
     180A      1.001483   181A      1.005165   182A      1.008406  
     183A      1.012515   184A      1.026643   185A      1.027088  
     186A      1.037828   187A      1.043041   188A      1.046359  
     189A      1.060360   190A      1.061104   191A      1.069309  
     192A      1.072259   193A      1.077367   194A      1.080046  
     195A      1.087339   196A      1.094645   197A      1.102439  
     198A      1.104010   199A      1.112973   200A      1.116672  
     201A      1.122371   202A      1.130767   203A      1.143713  
     204A      1.148459   205A      1.150308   206A      1.155177  
     207A      1.157612   208A      1.162773   209A      1.166594  
     210A      1.171311   211A      1.178910   212A      1.185465  
     213A      1.196881   214A      1.201120   215A      1.207077  
     216A      1.217320   217A      1.218184   218A      1.224356  
     219A      1.230522   220A      1.240400   221A      1.241883  
     222A      1.255270   223A      1.257409   224A      1.262019  
     225A      1.263036   226A      1.277536   227A      1.281291  
     228A      1.291165   229A      1.300101   230A      1.309718  
     231A      1.313143   232A      1.319938   233A      1.331233  
     234A      1.338863   235A      1.348859   236A      1.363543  
     237A      1.371909   238A      1.378831   239A      1.381813  
     240A      1.392149   241A      1.394395   242A      1.398703  
     243A      1.418084   244A      1.426483   245A      1.447677  
     246A      1.455975   247A      1.471701   248A      1.495187  
     249A      1.518347   250A      1.530854   251A      1.552014  
     252A      1.574193   253A      1.585790   254A      1.608789  
     255A      1.613205   256A      1.627921   257A      1.638226  
     258A      1.653767   259A      1.664516   260A      1.674366  
     261A      1.700680   262A      1.721704   263A      1.767714  
     264A      1.778044   265A      1.788164   266A      1.792224  
     267A      1.806903   268A      1.818264   269A      1.823027  
     270A      1.837490   271A      1.838803   272A      1.842623  
     273A      1.852712   274A      1.865051   275A      1.870246  
     276A      1.879520   277A      1.880573   278A      1.893591  
     279A      1.897292   280A      1.913304   281A      1.920776  
     282A      1.930167   283A      1.940458   284A      1.958161  
     285A      1.973133   286A      1.984508   287A      1.989941  
     288A      1.998321   289A      2.018456   290A      2.031083  
     291A      2.045860   292A      2.069797   293A      2.072007  
     294A      2.106904   295A      2.117776   296A      2.157574  
     297A      2.296985   298A      2.341166   299A      2.350700  
     300A      2.360400   301A      2.363081   302A      2.373794  
     303A      2.395845   304A      2.415660   305A      2.425090  
     306A      2.430937   307A      2.449182   308A      2.467977  
     309A      2.479859   310A      2.481420   311A      2.501198  
     312A      2.501722   313A      2.526856   314A      2.534131  
     315A      2.546538   316A      2.558888   317A      2.566185  
     318A      2.568391   319A      2.572769   320A      2.588267  
     321A      2.590761   322A      2.594614   323A      2.601758  
     324A      2.611896   325A      2.618929   326A      2.622222  
     327A      2.629886   328A      2.637662   329A      2.647178  
     330A      2.654540   331A      2.669388   332A      2.672040  
     333A      2.686279   334A      2.694287   335A      2.712163  
     336A      2.728008   337A      2.742189   338A      2.749284  
     339A      2.762627   340A      2.787580   341A      2.792659  
     342A      2.805603   343A      2.810733   344A      2.826495  
     345A      2.832156   346A      2.849856   347A      2.870021  
     348A      2.895315   349A      2.914181   350A      2.915971  
     351A      2.931630   352A      2.951412   353A      2.967949  
     354A      2.970193   355A      3.006649   356A      3.017510  
     357A      3.022079   358A      3.041885   359A      3.062577  
     360A      3.082001   361A      3.144208   362A      3.181433  
     363A      3.217672   364A      3.223860   365A      3.228155  
     366A      3.239915   367A      3.245113   368A      3.262292  
     369A      3.273735   370A      3.274354   371A      3.294680  
     372A      3.314859   373A      3.325125   374A      3.332368  
     375A      3.339214   376A      3.358707   377A      3.367151  
     378A      3.379389   379A      3.393776   380A      3.394812  
     381A      3.398053   382A      3.402687   383A      3.416521  
     384A      3.428721   385A      3.459588   386A      3.523140  
     387A      3.562810   388A      3.615417   389A      3.644203  
     390A      3.653863   391A      3.683933   392A      3.711890  
     393A      3.715035   394A      3.741219   395A      3.744716  
     396A      3.749579   397A      3.771430   398A      3.779225  
     399A      3.867339   400A      4.067414   401A      4.226566  
     402A      4.244404   403A      4.268312   404A      4.331743  
     405A      4.386427   406A      4.396453   407A      4.413786  
     408A      4.422911   409A      4.433205   410A      4.478139  
     411A      4.494272   412A      4.503805   413A      4.520798  
     414A      4.539545   415A      4.547640   416A      4.551663  
     417A      4.562001   418A      4.574068   419A      4.582166  
     420A      4.587154   421A      4.593295   422A      4.627147  
     423A      4.628400   424A      4.660330   425A      4.666458  
     426A      4.690172   427A      4.695835   428A      4.713442  
     429A      4.722805   430A      4.727562   431A      4.741108  
     432A      4.751605   433A      4.766710   434A      4.774192  
     435A      4.784203   436A      4.793982   437A      4.803844  
     438A      4.820475   439A      4.833656   440A      4.847578  
     441A      4.920529   442A      4.942826   443A      4.947839  
     444A      4.959616   445A      4.970397   446A      4.980275  
     447A      4.985856   448A      5.002285   449A      5.020277  
     450A      5.036810   451A      5.041023   452A      5.060546  
     453A      5.082068   454A      5.091956   455A      5.118365  
     456A      5.126340   457A      5.134947   458A      5.158310  
     459A      5.179124   460A      5.223883   461A      5.226767  
     462A      5.243308   463A      5.286358   464A      5.305573  
     465A      5.480884   466A      5.514515   467A      5.548991  
     468A      5.560700   469A      5.568176   470A      5.587225  
     471A      5.599297   472A      5.611933   473A      5.653052  
     474A      5.657459   475A      5.665579   476A      5.670174  
     477A      5.729842   478A      5.734601   479A      5.769543  
     480A      5.802396   481A      5.820135   482A      5.834136  
     483A      5.838621   484A      5.854946   485A      5.896568  
     486A      5.942358   487A      6.162891   488A      6.180696  
     489A      6.187902   490A      6.204220   491A      6.227064  
     492A      6.248079   493A      6.332737   494A      6.349976  
     495A      6.398789   496A      6.450452   497A      6.524730  
     498A      6.627189   499A      6.746439   500A      6.758970  
     501A      6.766021   502A      6.888939   503A      6.911476  
     504A      6.942859   505A      6.949898   506A      7.056644  
     507A      7.110855   508A      7.154895   509A      7.210484  
     510A      7.247813   511A      7.257209   512A      7.291722  
     513A      7.301707   514A      7.380437   515A      7.394449  
     516A      7.436510   517A      7.564235   518A      7.679931  
     519A      7.684994   520A      7.705869   521A      7.715658  
     522A      7.718915   523A      7.737558   524A      7.770804  
     525A      7.805430   526A      7.835184   527A      7.884810  
     528A      7.893431   529A      7.922481   530A      8.107689  
     531A      8.140464   532A      8.174214   533A      8.182790  
     534A      8.211798   535A      8.220631   536A      8.238622  
     537A      8.273208   538A      8.282869   539A      8.298050  
     540A      8.329616   541A      8.339459   542A      8.377227  
     543A      8.385160   544A      8.389786   545A      8.728570  
     546A      8.735475   547A      8.746455   548A      8.795395  
     549A      8.867025   550A      8.885511   551A      8.908417  
     552A      8.938227   553A      9.006072   554A      9.016830  
     555A      9.029500   556A      9.776684   557A      9.808765  
     558A      9.825666   559A      9.853746   560A      9.876601  
     561A      9.931107   562A      9.947390   563A      9.949484  
     564A      9.957018   565A      9.969804   566A     10.049389  
     567A     10.056476   568A     10.065341   569A     10.067198  
     570A     10.076076   571A     10.120074   572A     10.190697  
     573A     10.223399   574A     10.237930   575A     10.243308  
     576A     10.507424   577A     11.049803   578A     11.126596  
     579A     11.189794   580A     11.292840   581A     11.361263  
     582A     11.714914   583A     11.728588   584A     11.743756  
     585A     11.781386   586A     11.806431   587A     12.044271  
     588A     12.233600   589A     12.398096   590A     12.420973  
     591A     12.523480   592A     13.511037   593A     13.570756  
     594A     13.732696   595A     13.769585   596A     13.811599  
     597A     13.839857   598A     13.887511   599A     13.893243  
     600A     13.921358   601A     13.965842   602A     15.374006  
     603A     30.982003   604A     31.152002   605A     31.340713  
     606A     64.353894   607A     65.234975   608A     66.114875  
     609A     66.319499   610A     66.694544   611A    198.291783  

    Final Occupation by Irrep:
              A 
    DOCC [     5 ]
    NA   [     5 ]
    NB   [     5 ]

  @DF-RHF Final Energy:   -76.05808350792707

   => Energetics <=

    Nuclear Repulsion Energy =              8.9825770287868689
    One-Electron Energy =                -122.6650037212985040
    Two-Electron Energy =                  37.6243431845845819
    Total Energy =                        -76.0580835079270514

Computation Completed


Properties will be evaluated at   0.000000,   0.000000,   0.000000 [a0]

Properties computed using the SCF density matrix


 Multipole Moments:

 ------------------------------------------------------------------------------------
     Multipole            Electronic (a.u.)      Nuclear  (a.u.)        Total (a.u.)
 ------------------------------------------------------------------------------------

 L = 1.  Multiply by 2.5417464519 to convert [e a0] to [Debye]
 Dipole X            :        -32.3805696           33.0282005            0.6476309
 Dipole Y            :         29.6683832          -29.9050425           -0.2366593
 Dipole Z            :         35.8284866          -36.2121452           -0.3836586
 Magnitude           :                                                    0.7890674

 ------------------------------------------------------------------------------------

*** tstop() called on moses-razer at Wed Jan 24 17:21:44 2024
Module time:
	user time   =      66.81 seconds =       1.11 minutes
	system time =       3.26 seconds =       0.05 minutes
	total time  =         18 seconds =       0.30 minutes
Total time:
	user time   =      66.81 seconds =       1.11 minutes
	system time =       3.26 seconds =       0.05 minutes
	total time  =         18 seconds =       0.30 minutes

*** tstart() called on moses-razer
*** at Wed Jan 24 17:21:44 2024


  //>>>>>>>>>>>>>>>>>>>>>>>>>>>>>>>>>>>//
  //               DFMP2               //
  //<<<<<<<<<<<<<<<<<<<<<<<<<<<<<<<<<<<//

   => Loading Basis Set <=

    Name: (AUG-CC-PVTZ AUX)
    Role: RIFIT
    Keyword: DF_BASIS_MP2
    atoms 1                                   entry K          line  1282 file /home/kchung25/anaconda3/envs/p415env/share/psi4/basis/def2-qzvpp-ri.gbs 
    atoms 2, 5, 8, 11, 14, 17                 entry O          line   264 file /home/kchung25/anaconda3/envs/p415env/share/psi4/basis/aug-cc-pvtz-ri.gbs 
    atoms 3-4, 6-7, 9-10, 12-13, 15-16, 18-19 entry H          line    30 file /home/kchung25/anaconda3/envs/p415env/share/psi4/basis/aug-cc-pvtz-ri.gbs 

	 --------------------------------------------------------
	                          DF-MP2                         
	      2nd-Order Density-Fitted Moller-Plesset Theory     
	              RMP2 Wavefunction,   6 Threads             
	                                                         
	        Rob Parrish, Justin Turney, Andy Simmonett,      
	           Ed Hohenstein, and C. David Sherrill          
	 --------------------------------------------------------

   => Auxiliary Basis Set <=

  Basis Set: (AUG-CC-PVTZ AUX)
    Blend: AUG-CC-PVTZ-RI + DEF2-QZVPP-RI
    Number of shells: 385
    Number of basis functions: 1387
    Number of Cartesian functions: 1738
    Spherical Harmonics?: true
    Max angular momentum: 4

	 --------------------------------------------------------
	                 NBF =   611, NAUX =  1387
	 --------------------------------------------------------
	   CLASS    FOCC     OCC    AOCC    AVIR     VIR    FVIR
	   PAIRS       0       5       5     606     606       0
	 --------------------------------------------------------

	-----------------------------------------------------------
	 ==================> DF-MP2 Energies <==================== 
	-----------------------------------------------------------
	 Reference Energy          =     -76.0580835079270656 [Eh]
	 Singles Energy            =      -0.0000000000000000 [Eh]
	 Same-Spin Energy          =      -0.0687898757683990 [Eh]
	 Opposite-Spin Energy      =      -0.2168138739299781 [Eh]
	 Correlation Energy        =      -0.2856037496983770 [Eh]
	 Total Energy              =     -76.3436872576254473 [Eh]
	-----------------------------------------------------------
	 ================> DF-SCS-MP2 Energies <================== 
	-----------------------------------------------------------
	 SCS Same-Spin Scale       =       0.3333333333333333 [-]
	 SCS Opposite-Spin Scale   =       1.2000000000000000 [-]
	 SCS Same-Spin Energy      =      -0.0229299585894663 [Eh]
	 SCS Opposite-Spin Energy  =      -0.2601766487159737 [Eh]
	 SCS Correlation Energy    =      -0.2831066073054400 [Eh]
	 SCS Total Energy          =     -76.3411901152325072 [Eh]
	-----------------------------------------------------------


*** tstop() called on moses-razer at Wed Jan 24 17:21:54 2024
Module time:
	user time   =      24.72 seconds =       0.41 minutes
	system time =       1.81 seconds =       0.03 minutes
	total time  =         10 seconds =       0.17 minutes
Total time:
	user time   =      91.53 seconds =       1.53 minutes
	system time =       5.07 seconds =       0.08 minutes
	total time  =         28 seconds =       0.47 minutes

    Psi4 stopped on: Wednesday, 24 January 2024 05:21PM
    Psi4 wall time for execution: 0:00:27.68

*** Psi4 exiting successfully. Buy a developer a beer!
