
    -----------------------------------------------------------------------
          Psi4: An Open-Source Ab Initio Electronic Structure Package
                               Psi4 1.9 release

                         Git: Rev {} zzzzzzz 


    D. G. A. Smith, L. A. Burns, A. C. Simmonett, R. M. Parrish,
    M. C. Schieber, R. Galvelis, P. Kraus, H. Kruse, R. Di Remigio,
    A. Alenaizan, A. M. James, S. Lehtola, J. P. Misiewicz, M. Scheurer,
    R. A. Shaw, J. B. Schriber, Y. Xie, Z. L. Glick, D. A. Sirianni,
    J. S. O'Brien, J. M. Waldrop, A. Kumar, E. G. Hohenstein,
    B. P. Pritchard, B. R. Brooks, H. F. Schaefer III, A. Yu. Sokolov,
    K. Patkowski, A. E. DePrince III, U. Bozkaya, R. A. King,
    F. A. Evangelista, J. M. Turney, T. D. Crawford, C. D. Sherrill,
    J. Chem. Phys. 152(18) 184108 (2020). https://doi.org/10.1063/5.0006002

                            Additional Code Authors
    E. T. Seidl, C. L. Janssen, E. F. Valeev, M. L. Leininger,
    J. F. Gonthier, R. M. Richard, H. R. McAlexander, M. Saitow, X. Wang,
    P. Verma, M. H. Lechner, A. Jiang, S. Behnle, A. G. Heide,
    M. F. Herbst, and D. L. Poole

             Previous Authors, Complete List of Code Contributors,
                       and Citations for Specific Modules
    https://github.com/psi4/psi4/blob/master/codemeta.json
    https://github.com/psi4/psi4/graphs/contributors
    http://psicode.org/psi4manual/master/introduction.html#citing-psifour

    -----------------------------------------------------------------------


    Psi4 started on: Wednesday, 24 January 2024 06:57PM

    Process ID: 1248202
    Host:       moses-razer
    PSIDATADIR: /home/kchung25/anaconda3/envs/psi4_19/share/psi4
    Memory:     500.0 MiB
    Threads:    6
    
  ==> Input File <==

--------------------------------------------------------------------------
MEMORY 60 GB

molecule dimer {
1 1
K          0.000000     0.000000     0.000000
Gh(O)     -0.410929    -0.700784    -2.509863
Gh(H)     -1.217513    -1.219559    -2.665649
Gh(H)     -0.164264    -0.548002    -3.391802
Gh(O)      0.364162     2.737792     0.615970
Gh(H)     -0.368150     3.382202     0.757426
Gh(H)      0.419133     2.301238     1.419304
Gh(O)     -1.302168    -1.379093     2.269078
Gh(H)     -1.734333    -1.173294     3.111865
Gh(H)     -1.340808    -2.327373     2.231571
Gh(O)      2.554230    -0.782247     0.698580
Gh(H)      2.890378    -1.647175     0.845380
Gh(H)      3.241882    -0.204019     0.218312

units ang
no_reorient
no_com
symmetry c1
}

set {
basis        aug-cc-pVTZ
scf_type     df
}

energy("mp2")
--------------------------------------------------------------------------

  Memory set to  55.879 GiB by Python driver.

Scratch directory: /scratch/
   => Libint2 <=

    Primary   basis highest AM E, G, H:  5, 4, 3
    Auxiliary basis highest AM E, G, H:  6, 5, 4
    Onebody   basis highest AM E, G, H:  6, 5, 4
    Solid Harmonics ordering:            gaussian

*** tstart() called on moses-razer
*** at Wed Jan 24 18:57:29 2024

   => Loading Basis Set <=

    Name: AUG-CC-PVTZ
    Role: ORBITAL
    Keyword: BASIS
    atoms 1                     entry K          line  1152 file /home/kchung25/anaconda3/envs/p415env/share/psi4/basis/aug-cc-pvtz.gbs 
    atoms 2, 5, 8, 11           entry O          line   331 file /home/kchung25/anaconda3/envs/p415env/share/psi4/basis/aug-cc-pvtz.gbs 
    atoms 3-4, 6-7, 9-10, 12-13 entry H          line    40 file /home/kchung25/anaconda3/envs/p415env/share/psi4/basis/aug-cc-pvtz.gbs 


         ---------------------------------------------------------
                                   SCF
               by Justin Turney, Rob Parrish, Andy Simmonett
                          and Daniel G. A. Smith
                              RHF Reference
                        6 Threads,  57220 MiB Core
         ---------------------------------------------------------

  ==> Geometry <==

    Molecular point group: c1
    Full point group: C1

    Geometry (in Angstrom), charge = 1, multiplicity = 1:

       Center              X                  Y                   Z               Mass       
    ------------   -----------------  -----------------  -----------------  -----------------
         K            0.000000000000     0.000000000000     0.000000000000    38.963706486400
      Gh(O)          -0.410929000000    -0.700784000000    -2.509863000000    15.994914619570
      Gh(H)          -1.217513000000    -1.219559000000    -2.665649000000     1.007825032230
      Gh(H)          -0.164264000000    -0.548002000000    -3.391802000000     1.007825032230
      Gh(O)           0.364162000000     2.737792000000     0.615970000000    15.994914619570
      Gh(H)          -0.368150000000     3.382202000000     0.757426000000     1.007825032230
      Gh(H)           0.419133000000     2.301238000000     1.419304000000     1.007825032230
      Gh(O)          -1.302168000000    -1.379093000000     2.269078000000    15.994914619570
      Gh(H)          -1.734333000000    -1.173294000000     3.111865000000     1.007825032230
      Gh(H)          -1.340808000000    -2.327373000000     2.231571000000     1.007825032230
      Gh(O)           2.554230000000    -0.782247000000     0.698580000000    15.994914619570
      Gh(H)           2.890378000000    -1.647175000000     0.845380000000     1.007825032230
      Gh(H)           3.241882000000    -0.204019000000     0.218312000000     1.007825032230

  Running in c1 symmetry.

  Rotational constants: A =      0.04709  B =      0.04343  C =      0.03848 [cm^-1]
  Rotational constants: A =   1411.81481  B =   1302.03150  C =   1153.45952 [MHz]
  Nuclear repulsion =    0.000000000000000

  Charge       = 1
  Multiplicity = 1
  Electrons    = 18
  Nalpha       = 9
  Nbeta        = 9

  ==> Algorithm <==

  SCF Algorithm Type is DF.
  DIIS enabled.
  MOM disabled.
  Fractional occupation disabled.
  Guess Type is SAD.
  Energy threshold   = 1.00e-08
  Density threshold  = 1.00e-08
  Integral threshold = 1.00e-12

  ==> Primary Basis <==

  Basis Set: AUG-CC-PVTZ
    Blend: AUG-CC-PVTZ
    Number of shells: 147
    Number of basis functions: 427
    Number of Cartesian functions: 489
    Spherical Harmonics?: true
    Max angular momentum: 3

   => Loading Basis Set <=

    Name: (AUG-CC-PVTZ AUX)
    Role: JKFIT
    Keyword: DF_BASIS_SCF
    atoms 1                     entry K          line  1152 file /home/kchung25/anaconda3/envs/p415env/share/psi4/basis/def2-universal-jkfit.gbs 
    atoms 2, 5, 8, 11           entry O          line   286 file /home/kchung25/anaconda3/envs/p415env/share/psi4/basis/aug-cc-pvtz-jkfit.gbs 
    atoms 3-4, 6-7, 9-10, 12-13 entry H          line    70 file /home/kchung25/anaconda3/envs/p415env/share/psi4/basis/aug-cc-pvtz-jkfit.gbs 

  ==> Integral Setup <==

  DFHelper Memory: AOs need 1.167 GiB; user supplied 41.910 GiB. 
  Using in-core AOs.

  ==> MemDFJK: Density-Fitted J/K Matrices <==

    J tasked:                   Yes
    K tasked:                   Yes
    wK tasked:                   No
    OpenMP threads:               6
    Memory [MiB]:             42915
    Algorithm:                 Core
    Schwarz Cutoff:           1E-12
    Mask sparsity (%):      12.9897
    Fitting Condition:        1E-10

   => Auxiliary Basis Set <=

  Basis Set: (AUG-CC-PVTZ AUX)
    Blend: AUG-CC-PVTZ-JKFIT + DEF2-UNIVERSAL-JKFIT
    Number of shells: 276
    Number of basis functions: 944
    Number of Cartesian functions: 1167
    Spherical Harmonics?: true
    Max angular momentum: 4

  Minimum eigenvalue in the overlap matrix is 1.0191359123E-04.
  Reciprocal condition number of the overlap matrix is 9.1457294770E-06.
    Using symmetric orthogonalization.

  ==> Pre-Iterations <==

  SCF Guess: Superposition of Atomic Densities via on-the-fly atomic UHF (no occupation information).

   -------------------------
    Irrep   Nso     Nmo    
   -------------------------
     A        427     427 
   -------------------------
    Total     427     427
   -------------------------

  ==> Iterations <==

                           Total Energy        Delta E     RMS |[F,P]|

   @DF-RHF iter SAD:  -599.05181880393741   -5.99052e+02   0.00000e+00 
   @DF-RHF iter   1:  -599.01747546856097    3.43433e-02   2.04748e-05 DIIS
   @DF-RHF iter   2:  -599.01751368083740   -3.82123e-05   2.45528e-06 DIIS
   @DF-RHF iter   3:  -599.01751458132662   -9.00489e-07   3.07447e-07 DIIS
   @DF-RHF iter   4:  -599.01751459192769   -1.06011e-08   2.22321e-08 DIIS
   @DF-RHF iter   5:  -599.01751459198965   -6.19593e-11   5.16413e-09 DIIS
  Energy and wave function converged.


  ==> Post-Iterations <==

    Orbital Energies [Eh]
    ---------------------

    Doubly Occupied:                                                      

       1A   -133.752914     2A    -14.708519     3A    -11.738583  
       4A    -11.738582     5A    -11.738581     6A     -1.964019  
       7A     -1.170704     8A     -1.170687     9A     -1.170683  

    Virtual:                                                              

      10A     -0.146961    11A     -0.095556    12A     -0.095553  
      13A     -0.095552    14A     -0.060659    15A     -0.057952  
      16A     -0.057934    17A     -0.057925    18A     -0.057893  
      19A     -0.057866    20A     -0.045540    21A     -0.045538  
      22A     -0.045537    23A     -0.031322    24A     -0.031299  
      25A     -0.031290    26A     -0.031263    27A     -0.031252  
      28A     -0.018621    29A     -0.018426    30A     -0.018385  
      31A     -0.016745    32A     -0.014302    33A     -0.013694  
      34A     -0.013156    35A     -0.008404    36A     -0.003311  
      37A     -0.001734    38A     -0.000914    39A      0.009293  
      40A      0.009992    41A      0.010391    42A      0.011859  
      43A      0.013035    44A      0.026434    45A      0.040424  
      46A      0.044160    47A      0.046557    48A      0.051874  
      49A      0.055331    50A      0.059903    51A      0.060397  
      52A      0.075055    53A      0.081342    54A      0.084150  
      55A      0.086531    56A      0.090496    57A      0.091637  
      58A      0.097243    59A      0.099218    60A      0.099425  
      61A      0.104764    62A      0.108934    63A      0.111340  
      64A      0.115278    65A      0.118528    66A      0.130908  
      67A      0.140108    68A      0.160334    69A      0.176209  
      70A      0.189434    71A      0.194448    72A      0.202024  
      73A      0.214558    74A      0.217670    75A      0.222406  
      76A      0.224768    77A      0.228670    78A      0.231880  
      79A      0.233398    80A      0.237773    81A      0.241990  
      82A      0.248812    83A      0.252806    84A      0.257984  
      85A      0.260245    86A      0.273087    87A      0.274034  
      88A      0.280884    89A      0.281221    90A      0.286035  
      91A      0.291944    92A      0.295191    93A      0.298592  
      94A      0.304924    95A      0.309743    96A      0.319190  
      97A      0.320208    98A      0.327881    99A      0.332691  
     100A      0.336833   101A      0.338106   102A      0.341017  
     103A      0.343777   104A      0.351123   105A      0.363828  
     106A      0.365112   107A      0.366747   108A      0.378171  
     109A      0.389432   110A      0.403673   111A      0.424687  
     112A      0.433187   113A      0.441900   114A      0.456847  
     115A      0.542536   116A      0.553664   117A      0.569770  
     118A      0.596125   119A      0.602883   120A      0.614800  
     121A      0.627230   122A      0.636931   123A      0.639752  
     124A      0.651349   125A      0.661396   126A      0.666661  
     127A      0.682949   128A      0.687014   129A      0.699253  
     130A      0.707240   131A      0.713682   132A      0.717719  
     133A      0.721535   134A      0.729615   135A      0.735175  
     136A      0.744882   137A      0.748573   138A      0.749358  
     139A      0.762780   140A      0.770290   141A      0.773243  
     142A      0.778797   143A      0.782563   144A      0.791267  
     145A      0.793081   146A      0.808808   147A      0.815011  
     148A      0.822573   149A      0.829527   150A      0.832013  
     151A      0.846523   152A      0.850166   153A      0.856638  
     154A      0.859708   155A      0.878665   156A      0.884015  
     157A      0.900970   158A      0.910415   159A      0.929177  
     160A      0.933533   161A      0.940602   162A      0.945512  
     163A      0.953195   164A      0.964298   165A      0.970560  
     166A      0.976606   167A      0.990918   168A      1.002156  
     169A      1.006720   170A      1.012736   171A      1.019283  
     172A      1.028769   173A      1.031707   174A      1.042123  
     175A      1.051642   176A      1.063941   177A      1.065371  
     178A      1.077024   179A      1.091544   180A      1.095821  
     181A      1.097319   182A      1.109405   183A      1.122022  
     184A      1.131429   185A      1.145638   186A      1.155262  
     187A      1.166475   188A      1.179255   189A      1.199683  
     190A      1.233928   191A      1.306561   192A      1.335186  
     193A      1.343312   194A      1.351773   195A      1.377176  
     196A      1.394817   197A      1.399182   198A      1.447268  
     199A      1.523137   200A      1.573052   201A      1.577483  
     202A      1.587708   203A      1.590555   204A      1.603530  
     205A      1.618677   206A      1.625700   207A      1.633437  
     208A      1.638444   209A      1.658842   210A      1.672878  
     211A      1.683411   212A      1.705633   213A      1.714008  
     214A      1.718449   215A      1.732692   216A      1.745973  
     217A      1.751187   218A      1.777029   219A      1.831897  
     220A      1.847150   221A      1.942260   222A      1.952081  
     223A      1.989980   224A      2.196272   225A      2.207045  
     226A      2.211626   227A      2.221308   228A      2.238399  
     229A      2.256608   230A      2.273211   231A      2.294905  
     232A      2.339099   233A      2.342901   234A      2.348462  
     235A      2.349767   236A      2.353723   237A      2.356723  
     238A      2.363467   239A      2.369866   240A      2.375755  
     241A      2.387552   242A      2.389460   243A      2.397545  
     244A      2.409807   245A      2.423677   246A      2.440014  
     247A      2.443369   248A      2.468048   249A      2.498261  
     250A      2.512178   251A      2.527558   252A      2.586565  
     253A      2.597752   254A      2.619122   255A      2.640388  
     256A      2.657174   257A      2.696368   258A      2.722915  
     259A      2.741561   260A      2.977993   261A      3.006209  
     262A      3.023847   263A      3.028404   264A      3.032935  
     265A      3.037114   266A      3.047817   267A      3.050939  
     268A      3.060940   269A      3.097618   270A      3.104066  
     271A      3.132844   272A      3.143617   273A      3.161395  
     274A      3.169084   275A      3.171176   276A      3.198000  
     277A      3.212469   278A      3.233718   279A      3.250885  
     280A      3.390633   281A      3.402595   282A      3.410048  
     283A      3.422566   284A      3.521164   285A      3.538659  
     286A      3.556446   287A      3.561370   288A      4.174700  
     289A      4.224607   290A      4.226232   291A      4.257905  
     292A      4.286810   293A      4.302901   294A      4.313598  
     295A      4.324751   296A      4.337588   297A      4.350810  
     298A      4.379648   299A      4.387921   300A      4.404247  
     301A      4.454000   302A      4.460035   303A      4.476801  
     304A      4.486623   305A      4.529349   306A      4.542766  
     307A      4.557629   308A      4.560631   309A      4.570923  
     310A      4.577552   311A      4.603028   312A      4.700480  
     313A      4.705750   314A      4.714713   315A      4.738986  
     316A      4.749263   317A      4.762581   318A      4.770360  
     319A      4.782644   320A      4.788650   321A      4.797127  
     322A      4.812397   323A      4.912666   324A      4.956526  
     325A      5.058183   326A      5.073346   327A      5.103463  
     328A      5.259516   329A      5.282995   330A      5.401141  
     331A      5.413936   332A      5.425664   333A      5.434809  
     334A      5.457150   335A      5.493625   336A      5.513456  
     337A      5.546302   338A      5.561620   339A      5.587186  
     340A      5.610382   341A      5.697155   342A      5.715391  
     343A      5.738535   344A      5.938651   345A      5.941112  
     346A      5.945331   347A      5.973673   348A      6.110511  
     349A      6.192004   350A      6.243218   351A      6.276713  
     352A      6.470373   353A      6.489466   354A      6.499925  
     355A      6.507601   356A      6.923806   357A      6.929147  
     358A      6.975796   359A      6.991135   360A      7.462102  
     361A      7.479974   362A      7.493048   363A      7.513694  
     364A      7.551238   365A      7.661383   366A      7.684280  
     367A      7.716740   368A      7.863097   369A      7.877048  
     370A      7.885103   371A      7.888939   372A      7.931909  
     373A      7.990392   374A      7.998708   375A      8.037408  
     376A      8.060913   377A      8.117085   378A      8.134100  
     379A      8.160977   380A      8.506605   381A      8.569902  
     382A      8.581205   383A      8.585431   384A      8.636187  
     385A      8.679916   386A      8.746137   387A      8.757474  
     388A      9.544021   389A      9.550858   390A      9.564622  
     391A      9.584911   392A      9.694731   393A      9.732283  
     394A      9.735918   395A      9.756023   396A      9.809550  
     397A      9.825639   398A      9.830547   399A      9.843962  
     400A      9.971784   401A     10.050327   402A     10.055873  
     403A     10.067224   404A     10.757479   405A     11.022806  
     406A     11.071517   407A     11.116501   408A     11.433494  
     409A     11.470348   410A     11.494444   411A     11.536063  
     412A     11.951589   413A     11.984801   414A     12.142774  
     415A     12.223434   416A     13.222761   417A     13.376473  
     418A     13.462438   419A     13.474660   420A     13.613418  
     421A     13.652441   422A     13.669422   423A     13.714062  
     424A     63.807950   425A     64.629110   426A     65.290983  
     427A     65.529606  

    Final Occupation by Irrep:
              A 
    DOCC [     9 ]
    NA   [     9 ]
    NB   [     9 ]

  @DF-RHF Final Energy:  -599.01751459198965

   => Energetics <=

    Nuclear Repulsion Energy =              0.0000000000000000
    One-Electron Energy =                -819.7284898749690001
    Two-Electron Energy =                 220.7109752829793479
    Total Energy =                       -599.0175145919896522

Computation Completed


Properties will be evaluated at   0.000000,   0.000000,   0.000000 [a0]

Properties computed using the SCF density matrix


 Multipole Moments:

 ------------------------------------------------------------------------------------
     Multipole            Electronic (a.u.)      Nuclear  (a.u.)        Total (a.u.)
 ------------------------------------------------------------------------------------

 L = 1.  Multiply by 2.5417464519 to convert [e a0] to [Debye]
 Dipole X            :          0.0000999            0.0000000            0.0000999
 Dipole Y            :         -0.0000071            0.0000000           -0.0000071
 Dipole Z            :          0.0000277            0.0000000            0.0000277
 Magnitude           :                                                    0.0001039

 ------------------------------------------------------------------------------------

*** tstop() called on moses-razer at Wed Jan 24 18:57:39 2024
Module time:
	user time   =      27.63 seconds =       0.46 minutes
	system time =       3.12 seconds =       0.05 minutes
	total time  =         10 seconds =       0.17 minutes
Total time:
	user time   =      27.63 seconds =       0.46 minutes
	system time =       3.12 seconds =       0.05 minutes
	total time  =         10 seconds =       0.17 minutes

*** tstart() called on moses-razer
*** at Wed Jan 24 18:57:39 2024


  //>>>>>>>>>>>>>>>>>>>>>>>>>>>>>>>>>>>//
  //               DFMP2               //
  //<<<<<<<<<<<<<<<<<<<<<<<<<<<<<<<<<<<//

   => Loading Basis Set <=

    Name: (AUG-CC-PVTZ AUX)
    Role: RIFIT
    Keyword: DF_BASIS_MP2
    atoms 1                     entry K          line  1282 file /home/kchung25/anaconda3/envs/p415env/share/psi4/basis/def2-qzvpp-ri.gbs 
    atoms 2, 5, 8, 11           entry O          line   264 file /home/kchung25/anaconda3/envs/p415env/share/psi4/basis/aug-cc-pvtz-ri.gbs 
    atoms 3-4, 6-7, 9-10, 12-13 entry H          line    30 file /home/kchung25/anaconda3/envs/p415env/share/psi4/basis/aug-cc-pvtz-ri.gbs 

	 --------------------------------------------------------
	                          DF-MP2                         
	      2nd-Order Density-Fitted Moller-Plesset Theory     
	              RMP2 Wavefunction,   6 Threads             
	                                                         
	        Rob Parrish, Justin Turney, Andy Simmonett,      
	           Ed Hohenstein, and C. David Sherrill          
	 --------------------------------------------------------

   => Auxiliary Basis Set <=

  Basis Set: (AUG-CC-PVTZ AUX)
    Blend: AUG-CC-PVTZ-RI + DEF2-QZVPP-RI
    Number of shells: 273
    Number of basis functions: 991
    Number of Cartesian functions: 1246
    Spherical Harmonics?: true
    Max angular momentum: 4

	 --------------------------------------------------------
	                 NBF =   427, NAUX =   991
	 --------------------------------------------------------
	   CLASS    FOCC     OCC    AOCC    AVIR     VIR    FVIR
	   PAIRS       0       9       9     418     418       0
	 --------------------------------------------------------

	-----------------------------------------------------------
	 ==================> DF-MP2 Energies <==================== 
	-----------------------------------------------------------
	 Reference Energy          =    -599.0175145919896522 [Eh]
	 Singles Energy            =      -0.0000000000000000 [Eh]
	 Same-Spin Energy          =      -0.0347250522527124 [Eh]
	 Opposite-Spin Energy      =      -0.0835643620014871 [Eh]
	 Correlation Energy        =      -0.1182894142541995 [Eh]
	 Total Energy              =    -599.1358040062438022 [Eh]
	-----------------------------------------------------------
	 ================> DF-SCS-MP2 Energies <================== 
	-----------------------------------------------------------
	 SCS Same-Spin Scale       =       0.3333333333333333 [-]
	 SCS Opposite-Spin Scale   =       1.2000000000000000 [-]
	 SCS Same-Spin Energy      =      -0.0115750174175708 [Eh]
	 SCS Opposite-Spin Energy  =      -0.1002772344017845 [Eh]
	 SCS Correlation Energy    =      -0.1118522518193553 [Eh]
	 SCS Total Energy          =    -599.1293668438089526 [Eh]
	-----------------------------------------------------------


*** tstop() called on moses-razer at Wed Jan 24 18:57:46 2024
Module time:
	user time   =      13.37 seconds =       0.22 minutes
	system time =       1.14 seconds =       0.02 minutes
	total time  =          7 seconds =       0.12 minutes
Total time:
	user time   =      41.01 seconds =       0.68 minutes
	system time =       4.26 seconds =       0.07 minutes
	total time  =         17 seconds =       0.28 minutes

    Psi4 stopped on: Wednesday, 24 January 2024 06:57PM
    Psi4 wall time for execution: 0:00:17.07

*** Psi4 exiting successfully. Buy a developer a beer!
