
    -----------------------------------------------------------------------
          Psi4: An Open-Source Ab Initio Electronic Structure Package
                               Psi4 1.9 release

                         Git: Rev {} zzzzzzz 


    D. G. A. Smith, L. A. Burns, A. C. Simmonett, R. M. Parrish,
    M. C. Schieber, R. Galvelis, P. Kraus, H. Kruse, R. Di Remigio,
    A. Alenaizan, A. M. James, S. Lehtola, J. P. Misiewicz, M. Scheurer,
    R. A. Shaw, J. B. Schriber, Y. Xie, Z. L. Glick, D. A. Sirianni,
    J. S. O'Brien, J. M. Waldrop, A. Kumar, E. G. Hohenstein,
    B. P. Pritchard, B. R. Brooks, H. F. Schaefer III, A. Yu. Sokolov,
    K. Patkowski, A. E. DePrince III, U. Bozkaya, R. A. King,
    F. A. Evangelista, J. M. Turney, T. D. Crawford, C. D. Sherrill,
    J. Chem. Phys. 152(18) 184108 (2020). https://doi.org/10.1063/5.0006002

                            Additional Code Authors
    E. T. Seidl, C. L. Janssen, E. F. Valeev, M. L. Leininger,
    J. F. Gonthier, R. M. Richard, H. R. McAlexander, M. Saitow, X. Wang,
    P. Verma, M. H. Lechner, A. Jiang, S. Behnle, A. G. Heide,
    M. F. Herbst, and D. L. Poole

             Previous Authors, Complete List of Code Contributors,
                       and Citations for Specific Modules
    https://github.com/psi4/psi4/blob/master/codemeta.json
    https://github.com/psi4/psi4/graphs/contributors
    http://psicode.org/psi4manual/master/introduction.html#citing-psifour

    -----------------------------------------------------------------------


    Psi4 started on: Wednesday, 24 January 2024 08:18PM

    Process ID: 1250318
    Host:       moses-razer
    PSIDATADIR: /home/kchung25/anaconda3/envs/psi4_19/share/psi4
    Memory:     500.0 MiB
    Threads:    6
    
  ==> Input File <==

--------------------------------------------------------------------------
MEMORY 60 GB

molecule dimer {
0 1
Gh(K)      0.000000     0.000000     0.000000
Gh(O)      0.260703     2.699192    -0.819281
Gh(H)      0.022127     3.429881    -1.445959
Gh(H)      1.104134     3.079934    -0.434669
Gh(O)      1.097032     0.079310     2.745102
Gh(H)      1.412062     0.923683     2.987028
Gh(H)      1.777563    -0.146764     2.181341
Gh(O)     -2.730553     0.881808     0.899593
Gh(H)     -2.493651     1.851589     0.688121
Gh(H)     -2.847400     0.884946     1.830074
O         -1.654607    -0.656583    -2.067116
H         -1.968817    -0.064990    -2.722678
H         -2.340457    -1.379730    -1.961527
Gh(O)      0.721932    -2.295296     1.132146
Gh(H)      0.703083    -3.102510     0.511510
Gh(H)      1.600267    -2.311320     1.651522

units ang
no_reorient
no_com
symmetry c1
}

set {
basis        aug-cc-pVTZ
scf_type     df
}

energy("mp2")
--------------------------------------------------------------------------

  Memory set to  55.879 GiB by Python driver.

Scratch directory: /scratch/
   => Libint2 <=

    Primary   basis highest AM E, G, H:  5, 4, 3
    Auxiliary basis highest AM E, G, H:  6, 5, 4
    Onebody   basis highest AM E, G, H:  6, 5, 4
    Solid Harmonics ordering:            gaussian

*** tstart() called on moses-razer
*** at Wed Jan 24 20:18:55 2024

   => Loading Basis Set <=

    Name: AUG-CC-PVTZ
    Role: ORBITAL
    Keyword: BASIS
    atoms 1                            entry K          line  1152 file /home/kchung25/anaconda3/envs/p415env/share/psi4/basis/aug-cc-pvtz.gbs 
    atoms 2, 5, 8, 11, 14              entry O          line   331 file /home/kchung25/anaconda3/envs/p415env/share/psi4/basis/aug-cc-pvtz.gbs 
    atoms 3-4, 6-7, 9-10, 12-13, 15-16 entry H          line    40 file /home/kchung25/anaconda3/envs/p415env/share/psi4/basis/aug-cc-pvtz.gbs 


         ---------------------------------------------------------
                                   SCF
               by Justin Turney, Rob Parrish, Andy Simmonett
                          and Daniel G. A. Smith
                              RHF Reference
                        6 Threads,  57220 MiB Core
         ---------------------------------------------------------

  ==> Geometry <==

    Molecular point group: c1
    Full point group: C1

    Geometry (in Angstrom), charge = 0, multiplicity = 1:

       Center              X                  Y                   Z               Mass       
    ------------   -----------------  -----------------  -----------------  -----------------
      Gh(K)           0.000000000000     0.000000000000     0.000000000000    38.963706486400
      Gh(O)           0.260703000000     2.699192000000    -0.819281000000    15.994914619570
      Gh(H)           0.022127000000     3.429881000000    -1.445959000000     1.007825032230
      Gh(H)           1.104134000000     3.079934000000    -0.434669000000     1.007825032230
      Gh(O)           1.097032000000     0.079310000000     2.745102000000    15.994914619570
      Gh(H)           1.412062000000     0.923683000000     2.987028000000     1.007825032230
      Gh(H)           1.777563000000    -0.146764000000     2.181341000000     1.007825032230
      Gh(O)          -2.730553000000     0.881808000000     0.899593000000    15.994914619570
      Gh(H)          -2.493651000000     1.851589000000     0.688121000000     1.007825032230
      Gh(H)          -2.847400000000     0.884946000000     1.830074000000     1.007825032230
         O           -1.654607000000    -0.656583000000    -2.067116000000    15.994914619570
         H           -1.968817000000    -0.064990000000    -2.722678000000     1.007825032230
         H           -2.340457000000    -1.379730000000    -1.961527000000     1.007825032230
      Gh(O)           0.721932000000    -2.295296000000     1.132146000000    15.994914619570
      Gh(H)           0.703083000000    -3.102510000000     0.511510000000     1.007825032230
      Gh(H)           1.600267000000    -2.311320000000     1.651522000000     1.007825032230

  Running in c1 symmetry.

  Rotational constants: A =      0.04345  B =      0.03213  C =      0.02810 [cm^-1]
  Rotational constants: A =   1302.68213  B =    963.19020  C =    842.56265 [MHz]
  Nuclear repulsion =    9.079081624090110

  Charge       = 0
  Multiplicity = 1
  Electrons    = 10
  Nalpha       = 5
  Nbeta        = 5

  ==> Algorithm <==

  SCF Algorithm Type is DF.
  DIIS enabled.
  MOM disabled.
  Fractional occupation disabled.
  Guess Type is SAD.
  Energy threshold   = 1.00e-08
  Density threshold  = 1.00e-08
  Integral threshold = 1.00e-12

  ==> Primary Basis <==

  Basis Set: AUG-CC-PVTZ
    Blend: AUG-CC-PVTZ
    Number of shells: 179
    Number of basis functions: 519
    Number of Cartesian functions: 594
    Spherical Harmonics?: true
    Max angular momentum: 3

   => Loading Basis Set <=

    Name: (AUG-CC-PVTZ AUX)
    Role: JKFIT
    Keyword: DF_BASIS_SCF
    atoms 1                            entry K          line  1152 file /home/kchung25/anaconda3/envs/p415env/share/psi4/basis/def2-universal-jkfit.gbs 
    atoms 2, 5, 8, 11, 14              entry O          line   286 file /home/kchung25/anaconda3/envs/p415env/share/psi4/basis/aug-cc-pvtz-jkfit.gbs 
    atoms 3-4, 6-7, 9-10, 12-13, 15-16 entry H          line    70 file /home/kchung25/anaconda3/envs/p415env/share/psi4/basis/aug-cc-pvtz-jkfit.gbs 

  ==> Integral Setup <==

  DFHelper Memory: AOs need 2.069 GiB; user supplied 41.910 GiB. 
  Using in-core AOs.

  ==> MemDFJK: Density-Fitted J/K Matrices <==

    J tasked:                   Yes
    K tasked:                   Yes
    wK tasked:                   No
    OpenMP threads:               6
    Memory [MiB]:             42915
    Algorithm:                 Core
    Schwarz Cutoff:           1E-12
    Mask sparsity (%):      12.9002
    Fitting Condition:        1E-10

   => Auxiliary Basis Set <=

  Basis Set: (AUG-CC-PVTZ AUX)
    Blend: AUG-CC-PVTZ-JKFIT + DEF2-UNIVERSAL-JKFIT
    Number of shells: 334
    Number of basis functions: 1140
    Number of Cartesian functions: 1408
    Spherical Harmonics?: true
    Max angular momentum: 4

  Minimum eigenvalue in the overlap matrix is 6.4450888096E-05.
  Reciprocal condition number of the overlap matrix is 4.9674800076E-06.
    Using symmetric orthogonalization.

  ==> Pre-Iterations <==

  SCF Guess: Superposition of Atomic Densities via on-the-fly atomic UHF (no occupation information).

   -------------------------
    Irrep   Nso     Nmo    
   -------------------------
     A        519     519 
   -------------------------
    Total     519     519
   -------------------------

  ==> Iterations <==

                           Total Energy        Delta E     RMS |[F,P]|

   @DF-RHF iter SAD:   -75.45964241031032   -7.54596e+01   0.00000e+00 
   @DF-RHF iter   1:   -75.97245905616266   -5.12817e-01   9.03293e-04 ADIIS/DIIS
   @DF-RHF iter   2:   -76.02479985722405   -5.23408e-02   6.21866e-04 ADIIS/DIIS
   @DF-RHF iter   3:   -76.05704839944752   -3.22485e-02   4.24669e-05 DIIS
   @DF-RHF iter   4:   -76.05746443876740   -4.16039e-04   1.04887e-05 DIIS
   @DF-RHF iter   5:   -76.05749228197723   -2.78432e-05   2.43904e-06 DIIS
   @DF-RHF iter   6:   -76.05749468019789   -2.39822e-06   5.48807e-07 DIIS
   @DF-RHF iter   7:   -76.05749481329113   -1.33093e-07   1.00724e-07 DIIS
   @DF-RHF iter   8:   -76.05749481720352   -3.91239e-09   1.71793e-08 DIIS
   @DF-RHF iter   9:   -76.05749481729613   -9.26121e-11   4.50512e-09 DIIS
  Energy and wave function converged.


  ==> Post-Iterations <==

    Orbital Energies [Eh]
    ---------------------

    Doubly Occupied:                                                      

       1A    -20.567711     2A     -1.346127     3A     -0.716725  
       4A     -0.576490     5A     -0.508505  

    Virtual:                                                              

       6A      0.007017     7A      0.009601     8A      0.010127  
       9A      0.010793    10A      0.017709    11A      0.018035  
      12A      0.018738    13A      0.018924    14A      0.019205  
      15A      0.032782    16A      0.034492    17A      0.036403  
      18A      0.040189    19A      0.055035    20A      0.056128  
      21A      0.059636    22A      0.061615    23A      0.064039  
      24A      0.071972    25A      0.072440    26A      0.076741  
      27A      0.077446    28A      0.080350    29A      0.082973  
      30A      0.087279    31A      0.094413    32A      0.097465  
      33A      0.102675    34A      0.104638    35A      0.111589  
      36A      0.118648    37A      0.135919    38A      0.145752  
      39A      0.152889    40A      0.156673    41A      0.158913  
      42A      0.165958    43A      0.166670    44A      0.170523  
      45A      0.176152    46A      0.181143    47A      0.186797  
      48A      0.190147    49A      0.193508    50A      0.195772  
      51A      0.204672    52A      0.207199    53A      0.214784  
      54A      0.221034    55A      0.228406    56A      0.232598  
      57A      0.238366    58A      0.240560    59A      0.246384  
      60A      0.252236    61A      0.260347    62A      0.268535  
      63A      0.275501    64A      0.285613    65A      0.288555  
      66A      0.294390    67A      0.297826    68A      0.309849  
      69A      0.316225    70A      0.322018    71A      0.330144  
      72A      0.337437    73A      0.342365    74A      0.349384  
      75A      0.356118    76A      0.363343    77A      0.366673  
      78A      0.372360    79A      0.375739    80A      0.381383  
      81A      0.388218    82A      0.392075    83A      0.402076  
      84A      0.402469    85A      0.406434    86A      0.410977  
      87A      0.418644    88A      0.426221    89A      0.431879  
      90A      0.440016    91A      0.441588    92A      0.445436  
      93A      0.448680    94A      0.450766    95A      0.453176  
      96A      0.461035    97A      0.466720    98A      0.470145  
      99A      0.473511   100A      0.482548   101A      0.490880  
     102A      0.492182   103A      0.496217   104A      0.502797  
     105A      0.507161   106A      0.513318   107A      0.518608  
     108A      0.526947   109A      0.535160   110A      0.541750  
     111A      0.543149   112A      0.569150   113A      0.570923  
     114A      0.574167   115A      0.594707   116A      0.605145  
     117A      0.620511   118A      0.630129   119A      0.683786  
     120A      0.697764   121A      0.715308   122A      0.721703  
     123A      0.734886   124A      0.739291   125A      0.752328  
     126A      0.761533   127A      0.775781   128A      0.780996  
     129A      0.786930   130A      0.797459   131A      0.803321  
     132A      0.810589   133A      0.815113   134A      0.820165  
     135A      0.825971   136A      0.837164   137A      0.848894  
     138A      0.855231   139A      0.862933   140A      0.865686  
     141A      0.873339   142A      0.880789   143A      0.890101  
     144A      0.891703   145A      0.900864   146A      0.906354  
     147A      0.910104   148A      0.915530   149A      0.917331  
     150A      0.930708   151A      0.932393   152A      0.945290  
     153A      0.956584   154A      0.962006   155A      0.964261  
     156A      0.970701   157A      0.976733   158A      0.984215  
     159A      0.991234   160A      0.996275   161A      1.001645  
     162A      1.013635   163A      1.015450   164A      1.026737  
     165A      1.034648   166A      1.043128   167A      1.050089  
     168A      1.062639   169A      1.068338   170A      1.074750  
     171A      1.078360   172A      1.086655   173A      1.090839  
     174A      1.094874   175A      1.099325   176A      1.104137  
     177A      1.110204   178A      1.115805   179A      1.116937  
     180A      1.123708   181A      1.135262   182A      1.140282  
     183A      1.152795   184A      1.158015   185A      1.159920  
     186A      1.173043   187A      1.174985   188A      1.186484  
     189A      1.187140   190A      1.190128   191A      1.206830  
     192A      1.207208   193A      1.214588   194A      1.225762  
     195A      1.233523   196A      1.241446   197A      1.247036  
     198A      1.256271   199A      1.266743   200A      1.272205  
     201A      1.287580   202A      1.300553   203A      1.311155  
     204A      1.323132   205A      1.325643   206A      1.337497  
     207A      1.358037   208A      1.368361   209A      1.376000  
     210A      1.383522   211A      1.419278   212A      1.426593  
     213A      1.438647   214A      1.460024   215A      1.486802  
     216A      1.494694   217A      1.506579   218A      1.529537  
     219A      1.541226   220A      1.554554   221A      1.568947  
     222A      1.597934   223A      1.603506   224A      1.626941  
     225A      1.644138   226A      1.691264   227A      1.710633  
     228A      1.731378   229A      1.750293   230A      1.766846  
     231A      1.773147   232A      1.785071   233A      1.798783  
     234A      1.800735   235A      1.804384   236A      1.823384  
     237A      1.828665   238A      1.836810   239A      1.860788  
     240A      1.875300   241A      1.881320   242A      1.900326  
     243A      1.902312   244A      1.909316   245A      1.915095  
     246A      1.925767   247A      1.952630   248A      1.977387  
     249A      1.988114   250A      2.003684   251A      2.028305  
     252A      2.079183   253A      2.099358   254A      2.148194  
     255A      2.166410   256A      2.245554   257A      2.286485  
     258A      2.320105   259A      2.342345   260A      2.355058  
     261A      2.373240   262A      2.379320   263A      2.387842  
     264A      2.406255   265A      2.425107   266A      2.449535  
     267A      2.459895   268A      2.469202   269A      2.473028  
     270A      2.482676   271A      2.501628   272A      2.508063  
     273A      2.533184   274A      2.543176   275A      2.549677  
     276A      2.566726   277A      2.571430   278A      2.578023  
     279A      2.587149   280A      2.595124   281A      2.601607  
     282A      2.605320   283A      2.614424   284A      2.633920  
     285A      2.639522   286A      2.643812   287A      2.661400  
     288A      2.672194   289A      2.698815   290A      2.700794  
     291A      2.723891   292A      2.729333   293A      2.755923  
     294A      2.757452   295A      2.782498   296A      2.789524  
     297A      2.797370   298A      2.804549   299A      2.834879  
     300A      2.839421   301A      2.856862   302A      2.870643  
     303A      2.880512   304A      2.894304   305A      2.919077  
     306A      2.923374   307A      2.929838   308A      2.980566  
     309A      3.024490   310A      3.073114   311A      3.126147  
     312A      3.138132   313A      3.165264   314A      3.188902  
     315A      3.204173   316A      3.222121   317A      3.233399  
     318A      3.240339   319A      3.249774   320A      3.280799  
     321A      3.291295   322A      3.300440   323A      3.314959  
     324A      3.339017   325A      3.345258   326A      3.360858  
     327A      3.368758   328A      3.391100   329A      3.394523  
     330A      3.420864   331A      3.515972   332A      3.528669  
     333A      3.586205   334A      3.638113   335A      3.680576  
     336A      3.723086   337A      3.728025   338A      3.738221  
     339A      3.752838   340A      3.786926   341A      3.834287  
     342A      3.870672   343A      4.050987   344A      4.216756  
     345A      4.249526   346A      4.281382   347A      4.358830  
     348A      4.371050   349A      4.380665   350A      4.397106  
     351A      4.444825   352A      4.451045   353A      4.459390  
     354A      4.464970   355A      4.483612   356A      4.494731  
     357A      4.501355   358A      4.505428   359A      4.512001  
     360A      4.524378   361A      4.535704   362A      4.556687  
     363A      4.564716   364A      4.599004   365A      4.613453  
     366A      4.630269   367A      4.655971   368A      4.666292  
     369A      4.678819   370A      4.702718   371A      4.716762  
     372A      4.724495   373A      4.730705   374A      4.769313  
     375A      4.804358   376A      4.828975   377A      4.866895  
     378A      4.896685   379A      4.905742   380A      4.922722  
     381A      4.933522   382A      4.948527   383A      4.960101  
     384A      4.966938   385A      4.977232   386A      5.003181  
     387A      5.029455   388A      5.045038   389A      5.091943  
     390A      5.138931   391A      5.139162   392A      5.203023  
     393A      5.220386   394A      5.245779   395A      5.296120  
     396A      5.333119   397A      5.367091   398A      5.368769  
     399A      5.429695   400A      5.464022   401A      5.480140  
     402A      5.490779   403A      5.512931   404A      5.520150  
     405A      5.543476   406A      5.550896   407A      5.701957  
     408A      5.730477   409A      5.798774   410A      5.805891  
     411A      5.818517   412A      5.840279   413A      5.846992  
     414A      5.861525   415A      6.060041   416A      6.112352  
     417A      6.126893   418A      6.141684   419A      6.146755  
     420A      6.227396   421A      6.247781   422A      6.268206  
     423A      6.366215   424A      6.421039   425A      6.500562  
     426A      6.526577   427A      6.620595   428A      6.636875  
     429A      6.742488   430A      6.824213   431A      6.884408  
     432A      6.906452   433A      6.923464   434A      7.086318  
     435A      7.149685   436A      7.289728   437A      7.300270  
     438A      7.345082   439A      7.375288   440A      7.412526  
     441A      7.434552   442A      7.584815   443A      7.667363  
     444A      7.684062   445A      7.699197   446A      7.748091  
     447A      7.763442   448A      7.827532   449A      7.834875  
     450A      7.880467   451A      7.975337   452A      8.007446  
     453A      8.018460   454A      8.041403   455A      8.051625  
     456A      8.062189   457A      8.125714   458A      8.134025  
     459A      8.138650   460A      8.167594   461A      8.204985  
     462A      8.224973   463A      8.301694   464A      8.420615  
     465A      8.486007   466A      8.514531   467A      8.597176  
     468A      8.674390   469A      8.737424   470A      8.754051  
     471A      8.792511   472A      9.011254   473A      9.107840  
     474A      9.735947   475A      9.756165   476A      9.763446  
     477A      9.818144   478A      9.921715   479A      9.930106  
     480A      9.964008   481A      9.991210   482A      9.995034  
     483A     10.036256   484A     10.047934   485A     10.052738  
     486A     10.170754   487A     10.238306   488A     10.263787  
     489A     10.293628   490A     10.430432   491A     10.887802  
     492A     11.002534   493A     11.050462   494A     11.541677  
     495A     11.576394   496A     11.597281   497A     11.609471  
     498A     11.694589   499A     11.716046   500A     11.817029  
     501A     12.146586   502A     12.642391   503A     13.280509  
     504A     13.418678   505A     13.461076   506A     13.824613  
     507A     13.865397   508A     13.887363   509A     13.942019  
     510A     14.050927   511A     15.777791   512A     30.698835  
     513A     31.176039   514A     31.383479   515A     62.156097  
     516A     62.961917   517A     64.101153   518A     67.773521  
     519A    198.128088  

    Final Occupation by Irrep:
              A 
    DOCC [     5 ]
    NA   [     5 ]
    NB   [     5 ]

  @DF-RHF Final Energy:   -76.05749481729613

   => Energetics <=

    Nuclear Repulsion Energy =              9.0790816240901098
    One-Electron Energy =                -122.8420334225953070
    Two-Electron Energy =                  37.7054569812090676
    Total Energy =                        -76.0574948172961314

Computation Completed


Properties will be evaluated at   0.000000,   0.000000,   0.000000 [a0]

Properties computed using the SCF density matrix


 Multipole Moments:

 ------------------------------------------------------------------------------------
     Multipole            Electronic (a.u.)      Nuclear  (a.u.)        Total (a.u.)
 ------------------------------------------------------------------------------------

 L = 1.  Multiply by 2.5417464519 to convert [e a0] to [Debye]
 Dipole X            :         32.4938920          -33.1573803           -0.6634883
 Dipole Y            :         12.5770924          -12.6562215           -0.0791292
 Dipole Z            :         39.7306004          -40.1021294           -0.3715290
 Magnitude           :                                                    0.7645338

 ------------------------------------------------------------------------------------

*** tstop() called on moses-razer at Wed Jan 24 20:19:07 2024
Module time:
	user time   =      41.90 seconds =       0.70 minutes
	system time =       2.43 seconds =       0.04 minutes
	total time  =         12 seconds =       0.20 minutes
Total time:
	user time   =      41.90 seconds =       0.70 minutes
	system time =       2.43 seconds =       0.04 minutes
	total time  =         12 seconds =       0.20 minutes

*** tstart() called on moses-razer
*** at Wed Jan 24 20:19:07 2024


  //>>>>>>>>>>>>>>>>>>>>>>>>>>>>>>>>>>>//
  //               DFMP2               //
  //<<<<<<<<<<<<<<<<<<<<<<<<<<<<<<<<<<<//

   => Loading Basis Set <=

    Name: (AUG-CC-PVTZ AUX)
    Role: RIFIT
    Keyword: DF_BASIS_MP2
    atoms 1                            entry K          line  1282 file /home/kchung25/anaconda3/envs/p415env/share/psi4/basis/def2-qzvpp-ri.gbs 
    atoms 2, 5, 8, 11, 14              entry O          line   264 file /home/kchung25/anaconda3/envs/p415env/share/psi4/basis/aug-cc-pvtz-ri.gbs 
    atoms 3-4, 6-7, 9-10, 12-13, 15-16 entry H          line    30 file /home/kchung25/anaconda3/envs/p415env/share/psi4/basis/aug-cc-pvtz-ri.gbs 

	 --------------------------------------------------------
	                          DF-MP2                         
	      2nd-Order Density-Fitted Moller-Plesset Theory     
	              RMP2 Wavefunction,   6 Threads             
	                                                         
	        Rob Parrish, Justin Turney, Andy Simmonett,      
	           Ed Hohenstein, and C. David Sherrill          
	 --------------------------------------------------------

   => Auxiliary Basis Set <=

  Basis Set: (AUG-CC-PVTZ AUX)
    Blend: AUG-CC-PVTZ-RI + DEF2-QZVPP-RI
    Number of shells: 329
    Number of basis functions: 1189
    Number of Cartesian functions: 1492
    Spherical Harmonics?: true
    Max angular momentum: 4

	 --------------------------------------------------------
	                 NBF =   519, NAUX =  1189
	 --------------------------------------------------------
	   CLASS    FOCC     OCC    AOCC    AVIR     VIR    FVIR
	   PAIRS       0       5       5     514     514       0
	 --------------------------------------------------------

	-----------------------------------------------------------
	 ==================> DF-MP2 Energies <==================== 
	-----------------------------------------------------------
	 Reference Energy          =     -76.0574948172961314 [Eh]
	 Singles Energy            =      -0.0000000000000000 [Eh]
	 Same-Spin Energy          =      -0.0685343780752762 [Eh]
	 Opposite-Spin Energy      =      -0.2160390197057384 [Eh]
	 Correlation Energy        =      -0.2845733977810146 [Eh]
	 Total Energy              =     -76.3420682150771484 [Eh]
	-----------------------------------------------------------
	 ================> DF-SCS-MP2 Energies <================== 
	-----------------------------------------------------------
	 SCS Same-Spin Scale       =       0.3333333333333333 [-]
	 SCS Opposite-Spin Scale   =       1.2000000000000000 [-]
	 SCS Same-Spin Energy      =      -0.0228447926917587 [Eh]
	 SCS Opposite-Spin Energy  =      -0.2592468236468861 [Eh]
	 SCS Correlation Energy    =      -0.2820916163386448 [Eh]
	 SCS Total Energy          =     -76.3395864336347785 [Eh]
	-----------------------------------------------------------


*** tstop() called on moses-razer at Wed Jan 24 20:19:15 2024
Module time:
	user time   =      17.53 seconds =       0.29 minutes
	system time =       1.39 seconds =       0.02 minutes
	total time  =          8 seconds =       0.13 minutes
Total time:
	user time   =      59.43 seconds =       0.99 minutes
	system time =       3.82 seconds =       0.06 minutes
	total time  =         20 seconds =       0.33 minutes

    Psi4 stopped on: Wednesday, 24 January 2024 08:19PM
    Psi4 wall time for execution: 0:00:19.95

*** Psi4 exiting successfully. Buy a developer a beer!
