
    -----------------------------------------------------------------------
          Psi4: An Open-Source Ab Initio Electronic Structure Package
                               Psi4 1.9 release

                         Git: Rev {} zzzzzzz 


    D. G. A. Smith, L. A. Burns, A. C. Simmonett, R. M. Parrish,
    M. C. Schieber, R. Galvelis, P. Kraus, H. Kruse, R. Di Remigio,
    A. Alenaizan, A. M. James, S. Lehtola, J. P. Misiewicz, M. Scheurer,
    R. A. Shaw, J. B. Schriber, Y. Xie, Z. L. Glick, D. A. Sirianni,
    J. S. O'Brien, J. M. Waldrop, A. Kumar, E. G. Hohenstein,
    B. P. Pritchard, B. R. Brooks, H. F. Schaefer III, A. Yu. Sokolov,
    K. Patkowski, A. E. DePrince III, U. Bozkaya, R. A. King,
    F. A. Evangelista, J. M. Turney, T. D. Crawford, C. D. Sherrill,
    J. Chem. Phys. 152(18) 184108 (2020). https://doi.org/10.1063/5.0006002

                            Additional Code Authors
    E. T. Seidl, C. L. Janssen, E. F. Valeev, M. L. Leininger,
    J. F. Gonthier, R. M. Richard, H. R. McAlexander, M. Saitow, X. Wang,
    P. Verma, M. H. Lechner, A. Jiang, S. Behnle, A. G. Heide,
    M. F. Herbst, and D. L. Poole

             Previous Authors, Complete List of Code Contributors,
                       and Citations for Specific Modules
    https://github.com/psi4/psi4/blob/master/codemeta.json
    https://github.com/psi4/psi4/graphs/contributors
    http://psicode.org/psi4manual/master/introduction.html#citing-psifour

    -----------------------------------------------------------------------


    Psi4 started on: Wednesday, 24 January 2024 06:33PM

    Process ID: 1247625
    Host:       moses-razer
    PSIDATADIR: /home/kchung25/anaconda3/envs/psi4_19/share/psi4
    Memory:     500.0 MiB
    Threads:    6
    
  ==> Input File <==

--------------------------------------------------------------------------
MEMORY 60 GB

molecule dimer {
0 1
Gh(K)      0.000000     0.000000     0.000000
Gh(O)      0.293827     2.618771    -0.398133
Gh(H)     -0.603386     2.977651    -0.383603
Gh(H)      0.504951     2.523150    -1.349400
Gh(O)      2.290662    -1.154012     1.170513
Gh(H)      2.200413    -1.828377     1.847435
Gh(H)      2.800025    -0.449315     1.581926
O         -0.679679    -1.715755     2.067459
H          0.176766    -2.136211     2.260417
H         -1.317277    -2.272083     1.599994
Gh(O)     -2.767030     0.221449     0.099673
Gh(H)     -3.057655     0.587440     0.925810
Gh(H)     -3.142942    -0.646895     0.189675

units ang
no_reorient
no_com
symmetry c1
}

set {
basis        aug-cc-pVTZ
scf_type     df
}

energy("mp2")
--------------------------------------------------------------------------

  Memory set to  55.879 GiB by Python driver.

Scratch directory: /scratch/
   => Libint2 <=

    Primary   basis highest AM E, G, H:  5, 4, 3
    Auxiliary basis highest AM E, G, H:  6, 5, 4
    Onebody   basis highest AM E, G, H:  6, 5, 4
    Solid Harmonics ordering:            gaussian

*** tstart() called on moses-razer
*** at Wed Jan 24 18:33:08 2024

   => Loading Basis Set <=

    Name: AUG-CC-PVTZ
    Role: ORBITAL
    Keyword: BASIS
    atoms 1                     entry K          line  1152 file /home/kchung25/anaconda3/envs/p415env/share/psi4/basis/aug-cc-pvtz.gbs 
    atoms 2, 5, 8, 11           entry O          line   331 file /home/kchung25/anaconda3/envs/p415env/share/psi4/basis/aug-cc-pvtz.gbs 
    atoms 3-4, 6-7, 9-10, 12-13 entry H          line    40 file /home/kchung25/anaconda3/envs/p415env/share/psi4/basis/aug-cc-pvtz.gbs 


         ---------------------------------------------------------
                                   SCF
               by Justin Turney, Rob Parrish, Andy Simmonett
                          and Daniel G. A. Smith
                              RHF Reference
                        6 Threads,  57220 MiB Core
         ---------------------------------------------------------

  ==> Geometry <==

    Molecular point group: c1
    Full point group: C1

    Geometry (in Angstrom), charge = 0, multiplicity = 1:

       Center              X                  Y                   Z               Mass       
    ------------   -----------------  -----------------  -----------------  -----------------
      Gh(K)           0.000000000000     0.000000000000     0.000000000000    38.963706486400
      Gh(O)           0.293827000000     2.618771000000    -0.398133000000    15.994914619570
      Gh(H)          -0.603386000000     2.977651000000    -0.383603000000     1.007825032230
      Gh(H)           0.504951000000     2.523150000000    -1.349400000000     1.007825032230
      Gh(O)           2.290662000000    -1.154012000000     1.170513000000    15.994914619570
      Gh(H)           2.200413000000    -1.828377000000     1.847435000000     1.007825032230
      Gh(H)           2.800025000000    -0.449315000000     1.581926000000     1.007825032230
         O           -0.679679000000    -1.715755000000     2.067459000000    15.994914619570
         H            0.176766000000    -2.136211000000     2.260417000000     1.007825032230
         H           -1.317277000000    -2.272083000000     1.599994000000     1.007825032230
      Gh(O)          -2.767030000000     0.221449000000     0.099673000000    15.994914619570
      Gh(H)          -3.057655000000     0.587440000000     0.925810000000     1.007825032230
      Gh(H)          -3.142942000000    -0.646895000000     0.189675000000     1.007825032230

  Running in c1 symmetry.

  Rotational constants: A =      0.06268  B =      0.05022  C =      0.03177 [cm^-1]
  Rotational constants: A =   1878.98250  B =   1505.49626  C =    952.43012 [MHz]
  Nuclear repulsion =    9.051064165137324

  Charge       = 0
  Multiplicity = 1
  Electrons    = 10
  Nalpha       = 5
  Nbeta        = 5

  ==> Algorithm <==

  SCF Algorithm Type is DF.
  DIIS enabled.
  MOM disabled.
  Fractional occupation disabled.
  Guess Type is SAD.
  Energy threshold   = 1.00e-08
  Density threshold  = 1.00e-08
  Integral threshold = 1.00e-12

  ==> Primary Basis <==

  Basis Set: AUG-CC-PVTZ
    Blend: AUG-CC-PVTZ
    Number of shells: 147
    Number of basis functions: 427
    Number of Cartesian functions: 489
    Spherical Harmonics?: true
    Max angular momentum: 3

   => Loading Basis Set <=

    Name: (AUG-CC-PVTZ AUX)
    Role: JKFIT
    Keyword: DF_BASIS_SCF
    atoms 1                     entry K          line  1152 file /home/kchung25/anaconda3/envs/p415env/share/psi4/basis/def2-universal-jkfit.gbs 
    atoms 2, 5, 8, 11           entry O          line   286 file /home/kchung25/anaconda3/envs/p415env/share/psi4/basis/aug-cc-pvtz-jkfit.gbs 
    atoms 3-4, 6-7, 9-10, 12-13 entry H          line    70 file /home/kchung25/anaconda3/envs/p415env/share/psi4/basis/aug-cc-pvtz-jkfit.gbs 

  ==> Integral Setup <==

  DFHelper Memory: AOs need 1.198 GiB; user supplied 41.910 GiB. 
  Using in-core AOs.

  ==> MemDFJK: Density-Fitted J/K Matrices <==

    J tasked:                   Yes
    K tasked:                   Yes
    wK tasked:                   No
    OpenMP threads:               6
    Memory [MiB]:             42915
    Algorithm:                 Core
    Schwarz Cutoff:           1E-12
    Mask sparsity (%):      10.6061
    Fitting Condition:        1E-10

   => Auxiliary Basis Set <=

  Basis Set: (AUG-CC-PVTZ AUX)
    Blend: AUG-CC-PVTZ-JKFIT + DEF2-UNIVERSAL-JKFIT
    Number of shells: 276
    Number of basis functions: 944
    Number of Cartesian functions: 1167
    Spherical Harmonics?: true
    Max angular momentum: 4

  Minimum eigenvalue in the overlap matrix is 8.1882177695E-05.
  Reciprocal condition number of the overlap matrix is 6.5339819738E-06.
    Using symmetric orthogonalization.

  ==> Pre-Iterations <==

  SCF Guess: Superposition of Atomic Densities via on-the-fly atomic UHF (no occupation information).

   -------------------------
    Irrep   Nso     Nmo    
   -------------------------
     A        427     427 
   -------------------------
    Total     427     427
   -------------------------

  ==> Iterations <==

                           Total Energy        Delta E     RMS |[F,P]|

   @DF-RHF iter SAD:   -75.45351883993443   -7.54535e+01   0.00000e+00 
   @DF-RHF iter   1:   -75.97329829737485   -5.19779e-01   1.09575e-03 ADIIS/DIIS
   @DF-RHF iter   2:   -76.02499954725859   -5.17012e-02   7.49226e-04 ADIIS/DIIS
   @DF-RHF iter   3:   -76.05661065718827   -3.16111e-02   5.07826e-05 DIIS
   @DF-RHF iter   4:   -76.05702400882718   -4.13352e-04   1.26266e-05 DIIS
   @DF-RHF iter   5:   -76.05705173348591   -2.77247e-05   2.91830e-06 DIIS
   @DF-RHF iter   6:   -76.05705415538171   -2.42190e-06   6.73298e-07 DIIS
   @DF-RHF iter   7:   -76.05705429817657   -1.42795e-07   1.31849e-07 DIIS
   @DF-RHF iter   8:   -76.05705430298461   -4.80804e-09   2.14003e-08 DIIS
   @DF-RHF iter   9:   -76.05705430308576   -1.01153e-10   5.38134e-09 DIIS
  Energy and wave function converged.


  ==> Post-Iterations <==

    Orbital Energies [Eh]
    ---------------------

    Doubly Occupied:                                                      

       1A    -20.564097     2A     -1.339753     3A     -0.729669  
       4A     -0.561768     5A     -0.505877  

    Virtual:                                                              

       6A      0.007006     7A      0.009330     8A      0.009692  
       9A      0.011072    10A      0.017836    11A      0.018130  
      12A      0.018746    13A      0.019035    14A      0.019417  
      15A      0.032263    16A      0.033515    17A      0.036506  
      18A      0.039953    19A      0.054042    20A      0.057777  
      21A      0.060910    22A      0.062005    23A      0.064546  
      24A      0.074105    25A      0.077122    26A      0.077416  
      27A      0.079187    28A      0.083448    29A      0.083883  
      30A      0.095828    31A      0.098695    32A      0.107540  
      33A      0.109192    34A      0.118773    35A      0.126418  
      36A      0.136767    37A      0.149681    38A      0.152166  
      39A      0.156620    40A      0.160711    41A      0.165633  
      42A      0.176484    43A      0.180565    44A      0.182922  
      45A      0.186526    46A      0.195964    47A      0.197912  
      48A      0.202506    49A      0.213650    50A      0.214791  
      51A      0.229999    52A      0.230969    53A      0.237096  
      54A      0.245416    55A      0.250876    56A      0.256930  
      57A      0.267757    58A      0.269798    59A      0.274865  
      60A      0.283484    61A      0.286637    62A      0.296989  
      63A      0.302886    64A      0.316910    65A      0.327086  
      66A      0.334417    67A      0.341168    68A      0.342974  
      69A      0.351347    70A      0.359766    71A      0.367179  
      72A      0.370150    73A      0.380357    74A      0.383872  
      75A      0.395297    76A      0.406863    77A      0.411397  
      78A      0.416811    79A      0.421958    80A      0.422327  
      81A      0.429544    82A      0.432489    83A      0.440791  
      84A      0.441501    85A      0.448339    86A      0.451043  
      87A      0.460679    88A      0.469195    89A      0.472456  
      90A      0.476440    91A      0.483232    92A      0.493656  
      93A      0.499891    94A      0.515537    95A      0.524121  
      96A      0.532047    97A      0.543349    98A      0.549493  
      99A      0.553220   100A      0.572433   101A      0.582624  
     102A      0.591733   103A      0.595253   104A      0.622121  
     105A      0.650631   106A      0.681857   107A      0.694643  
     108A      0.729160   109A      0.730754   110A      0.736643  
     111A      0.743506   112A      0.758333   113A      0.789620  
     114A      0.797365   115A      0.801104   116A      0.807519  
     117A      0.818198   118A      0.823716   119A      0.830713  
     120A      0.842189   121A      0.849482   122A      0.854425  
     123A      0.870565   124A      0.874974   125A      0.886745  
     126A      0.893796   127A      0.903266   128A      0.905839  
     129A      0.912438   130A      0.921062   131A      0.930302  
     132A      0.934071   133A      0.952290   134A      0.955852  
     135A      0.961129   136A      0.968255   137A      0.974126  
     138A      0.980671   139A      0.990027   140A      1.001928  
     141A      1.009011   142A      1.018859   143A      1.032375  
     144A      1.036693   145A      1.047387   146A      1.052366  
     147A      1.063029   148A      1.067338   149A      1.074653  
     150A      1.081609   151A      1.093708   152A      1.099945  
     153A      1.111282   154A      1.116666   155A      1.135908  
     156A      1.146332   157A      1.159899   158A      1.161253  
     159A      1.171242   160A      1.179837   161A      1.183384  
     162A      1.189482   163A      1.198894   164A      1.210930  
     165A      1.220512   166A      1.231127   167A      1.239153  
     168A      1.242456   169A      1.251445   170A      1.264073  
     171A      1.291697   172A      1.304849   173A      1.314545  
     174A      1.321783   175A      1.323567   176A      1.352046  
     177A      1.368495   178A      1.382975   179A      1.412850  
     180A      1.450651   181A      1.464582   182A      1.478295  
     183A      1.494281   184A      1.507071   185A      1.522412  
     186A      1.547967   187A      1.562896   188A      1.592559  
     189A      1.606221   190A      1.662886   191A      1.672307  
     192A      1.718015   193A      1.744463   194A      1.753831  
     195A      1.762640   196A      1.776772   197A      1.780788  
     198A      1.795792   199A      1.820106   200A      1.828038  
     201A      1.845182   202A      1.859352   203A      1.873720  
     204A      1.880171   205A      1.886641   206A      1.895359  
     207A      1.911415   208A      1.925579   209A      1.953644  
     210A      2.027192   211A      2.063941   212A      2.069113  
     213A      2.114531   214A      2.149339   215A      2.214386  
     216A      2.245117   217A      2.260776   218A      2.310417  
     219A      2.324508   220A      2.348635   221A      2.364562  
     222A      2.405796   223A      2.411470   224A      2.427868  
     225A      2.438118   226A      2.447054   227A      2.461769  
     228A      2.486351   229A      2.505974   230A      2.534099  
     231A      2.540695   232A      2.547609   233A      2.566772  
     234A      2.576599   235A      2.588572   236A      2.594842  
     237A      2.595804   238A      2.614885   239A      2.618353  
     240A      2.635531   241A      2.645859   242A      2.663643  
     243A      2.665732   244A      2.700791   245A      2.721213  
     246A      2.734644   247A      2.757731   248A      2.789551  
     249A      2.813504   250A      2.826077   251A      2.856272  
     252A      2.868023   253A      2.872927   254A      2.886170  
     255A      2.897350   256A      2.915007   257A      2.955966  
     258A      2.979894   259A      2.980724   260A      3.009388  
     261A      3.073482   262A      3.157690   263A      3.193358  
     264A      3.204157   265A      3.223631   266A      3.233008  
     267A      3.238058   268A      3.265022   269A      3.327385  
     270A      3.338360   271A      3.345634   272A      3.353263  
     273A      3.372563   274A      3.373771   275A      3.402056  
     276A      3.431989   277A      3.483158   278A      3.577981  
     279A      3.596239   280A      3.628020   281A      3.695893  
     282A      3.722316   283A      3.723963   284A      3.755596  
     285A      3.926886   286A      4.119664   287A      4.254163  
     288A      4.281119   289A      4.329981   290A      4.386798  
     291A      4.414151   292A      4.421320   293A      4.464778  
     294A      4.473213   295A      4.477080   296A      4.482708  
     297A      4.504491   298A      4.516065   299A      4.526469  
     300A      4.548538   301A      4.562429   302A      4.578599  
     303A      4.594190   304A      4.629144   305A      4.632737  
     306A      4.660102   307A      4.670179   308A      4.706005  
     309A      4.721082   310A      4.744249   311A      4.755418  
     312A      4.766591   313A      4.776024   314A      4.791517  
     315A      4.879955   316A      4.939177   317A      4.944454  
     318A      4.947983   319A      4.959747   320A      4.978270  
     321A      5.004933   322A      5.025047   323A      5.082086  
     324A      5.144748   325A      5.201727   326A      5.209153  
     327A      5.248389   328A      5.279878   329A      5.337744  
     330A      5.431802   331A      5.478005   332A      5.497772  
     333A      5.558691   334A      5.580517   335A      5.638303  
     336A      5.645190   337A      5.673172   338A      5.679017  
     339A      5.682020   340A      5.726482   341A      5.833381  
     342A      5.874261   343A      5.900312   344A      5.953423  
     345A      6.113513   346A      6.124150   347A      6.143316  
     348A      6.201414   349A      6.359303   350A      6.372070  
     351A      6.416777   352A      6.611123   353A      6.649588  
     354A      6.687696   355A      6.729130   356A      6.783846  
     357A      6.841266   358A      7.025877   359A      7.091111  
     360A      7.147568   361A      7.230226   362A      7.304815  
     363A      7.331787   364A      7.358658   365A      7.469113  
     366A      7.539632   367A      7.665427   368A      7.689437  
     369A      7.707776   370A      7.741294   371A      7.820908  
     372A      7.830439   373A      7.844753   374A      7.957026  
     375A      8.045326   376A      8.077737   377A      8.094559  
     378A      8.101361   379A      8.146963   380A      8.168726  
     381A      8.211762   382A      8.289682   383A      8.330267  
     384A      8.356717   385A      8.672985   386A      8.716700  
     387A      8.761808   388A      8.778101   389A      8.780962  
     390A      8.845347   391A      8.930085   392A      9.745550  
     393A      9.752217   394A      9.805706   395A      9.928355  
     396A      9.932893   397A      9.972618   398A     10.022002  
     399A     10.031540   400A     10.067415   401A     10.224244  
     402A     10.232466   403A     10.255306   404A     10.278281  
     405A     11.155782   406A     11.229050   407A     11.368504  
     408A     11.684907   409A     11.747716   410A     11.755701  
     411A     12.023871   412A     12.186837   413A     12.314409  
     414A     13.473885   415A     13.558439   416A     13.674411  
     417A     13.800850   418A     13.869569   419A     13.890302  
     420A     16.034242   421A     30.495242   422A     30.944351  
     423A     31.164216   424A     64.309578   425A     65.049660  
     426A     65.679568   427A    197.863627  

    Final Occupation by Irrep:
              A 
    DOCC [     5 ]
    NA   [     5 ]
    NB   [     5 ]

  @DF-RHF Final Energy:   -76.05705430308576

   => Energetics <=

    Nuclear Repulsion Energy =              9.0510641651373245
    One-Electron Energy =                -122.8139065295640791
    Two-Electron Energy =                  37.7057880613410035
    Total Energy =                        -76.0570543030857493

Computation Completed


Properties will be evaluated at   0.000000,   0.000000,   0.000000 [a0]

Properties computed using the SCF density matrix


 Multipole Moments:

 ------------------------------------------------------------------------------------
     Multipole            Electronic (a.u.)      Nuclear  (a.u.)        Total (a.u.)
 ------------------------------------------------------------------------------------

 L = 1.  Multiply by 2.5417464519 to convert [e a0] to [Debye]
 Dipole X            :         12.5793114          -12.4305107            0.1488007
 Dipole Y            :         33.6013346          -34.2689247           -0.6675901
 Dipole Z            :        -38.7381236           38.5505698           -0.1875538
 Magnitude           :                                                    0.7092211

 ------------------------------------------------------------------------------------

*** tstop() called on moses-razer at Wed Jan 24 18:33:17 2024
Module time:
	user time   =      27.05 seconds =       0.45 minutes
	system time =       1.76 seconds =       0.03 minutes
	total time  =          9 seconds =       0.15 minutes
Total time:
	user time   =      27.05 seconds =       0.45 minutes
	system time =       1.76 seconds =       0.03 minutes
	total time  =          9 seconds =       0.15 minutes

*** tstart() called on moses-razer
*** at Wed Jan 24 18:33:17 2024


  //>>>>>>>>>>>>>>>>>>>>>>>>>>>>>>>>>>>//
  //               DFMP2               //
  //<<<<<<<<<<<<<<<<<<<<<<<<<<<<<<<<<<<//

   => Loading Basis Set <=

    Name: (AUG-CC-PVTZ AUX)
    Role: RIFIT
    Keyword: DF_BASIS_MP2
    atoms 1                     entry K          line  1282 file /home/kchung25/anaconda3/envs/p415env/share/psi4/basis/def2-qzvpp-ri.gbs 
    atoms 2, 5, 8, 11           entry O          line   264 file /home/kchung25/anaconda3/envs/p415env/share/psi4/basis/aug-cc-pvtz-ri.gbs 
    atoms 3-4, 6-7, 9-10, 12-13 entry H          line    30 file /home/kchung25/anaconda3/envs/p415env/share/psi4/basis/aug-cc-pvtz-ri.gbs 

	 --------------------------------------------------------
	                          DF-MP2                         
	      2nd-Order Density-Fitted Moller-Plesset Theory     
	              RMP2 Wavefunction,   6 Threads             
	                                                         
	        Rob Parrish, Justin Turney, Andy Simmonett,      
	           Ed Hohenstein, and C. David Sherrill          
	 --------------------------------------------------------

   => Auxiliary Basis Set <=

  Basis Set: (AUG-CC-PVTZ AUX)
    Blend: AUG-CC-PVTZ-RI + DEF2-QZVPP-RI
    Number of shells: 273
    Number of basis functions: 991
    Number of Cartesian functions: 1246
    Spherical Harmonics?: true
    Max angular momentum: 4

	 --------------------------------------------------------
	                 NBF =   427, NAUX =   991
	 --------------------------------------------------------
	   CLASS    FOCC     OCC    AOCC    AVIR     VIR    FVIR
	   PAIRS       0       5       5     422     422       0
	 --------------------------------------------------------

	-----------------------------------------------------------
	 ==================> DF-MP2 Energies <==================== 
	-----------------------------------------------------------
	 Reference Energy          =     -76.0570543030857635 [Eh]
	 Singles Energy            =      -0.0000000000000000 [Eh]
	 Same-Spin Energy          =      -0.0685425310823189 [Eh]
	 Opposite-Spin Energy      =      -0.2159867636464721 [Eh]
	 Correlation Energy        =      -0.2845292947287910 [Eh]
	 Total Energy              =     -76.3415835978145481 [Eh]
	-----------------------------------------------------------
	 ================> DF-SCS-MP2 Energies <================== 
	-----------------------------------------------------------
	 SCS Same-Spin Scale       =       0.3333333333333333 [-]
	 SCS Opposite-Spin Scale   =       1.2000000000000000 [-]
	 SCS Same-Spin Energy      =      -0.0228475103607730 [Eh]
	 SCS Opposite-Spin Energy  =      -0.2591841163757665 [Eh]
	 SCS Correlation Energy    =      -0.2820316267365395 [Eh]
	 SCS Total Energy          =     -76.3390859298223035 [Eh]
	-----------------------------------------------------------


*** tstop() called on moses-razer at Wed Jan 24 18:33:23 2024
Module time:
	user time   =      12.88 seconds =       0.21 minutes
	system time =       1.06 seconds =       0.02 minutes
	total time  =          6 seconds =       0.10 minutes
Total time:
	user time   =      39.93 seconds =       0.67 minutes
	system time =       2.82 seconds =       0.05 minutes
	total time  =         15 seconds =       0.25 minutes

    Psi4 stopped on: Wednesday, 24 January 2024 06:33PM
    Psi4 wall time for execution: 0:00:15.16

*** Psi4 exiting successfully. Buy a developer a beer!
