
    -----------------------------------------------------------------------
          Psi4: An Open-Source Ab Initio Electronic Structure Package
                               Psi4 1.9 release

                         Git: Rev {} zzzzzzz 


    D. G. A. Smith, L. A. Burns, A. C. Simmonett, R. M. Parrish,
    M. C. Schieber, R. Galvelis, P. Kraus, H. Kruse, R. Di Remigio,
    A. Alenaizan, A. M. James, S. Lehtola, J. P. Misiewicz, M. Scheurer,
    R. A. Shaw, J. B. Schriber, Y. Xie, Z. L. Glick, D. A. Sirianni,
    J. S. O'Brien, J. M. Waldrop, A. Kumar, E. G. Hohenstein,
    B. P. Pritchard, B. R. Brooks, H. F. Schaefer III, A. Yu. Sokolov,
    K. Patkowski, A. E. DePrince III, U. Bozkaya, R. A. King,
    F. A. Evangelista, J. M. Turney, T. D. Crawford, C. D. Sherrill,
    J. Chem. Phys. 152(18) 184108 (2020). https://doi.org/10.1063/5.0006002

                            Additional Code Authors
    E. T. Seidl, C. L. Janssen, E. F. Valeev, M. L. Leininger,
    J. F. Gonthier, R. M. Richard, H. R. McAlexander, M. Saitow, X. Wang,
    P. Verma, M. H. Lechner, A. Jiang, S. Behnle, A. G. Heide,
    M. F. Herbst, and D. L. Poole

             Previous Authors, Complete List of Code Contributors,
                       and Citations for Specific Modules
    https://github.com/psi4/psi4/blob/master/codemeta.json
    https://github.com/psi4/psi4/graphs/contributors
    http://psicode.org/psi4manual/master/introduction.html#citing-psifour

    -----------------------------------------------------------------------


    Psi4 started on: Wednesday, 24 January 2024 03:52PM

    Process ID: 1228361
    Host:       moses-razer
    PSIDATADIR: /home/kchung25/anaconda3/envs/psi4_19/share/psi4
    Memory:     500.0 MiB
    Threads:    6
    
  ==> Input File <==

--------------------------------------------------------------------------
MEMORY 60 GB

molecule dimer {
0 1
Gh(K)      0.000000     0.000000     0.000000
Gh(O)      1.380814     0.870128    -2.552071
Gh(H)      0.720240     1.596362    -2.443970
Gh(H)      1.177395     0.252244    -3.293213
O          1.273503     1.903801     1.295069
H          1.989230     1.514260     1.865592
H          0.801927     2.486720     1.867390
Gh(O)     -2.462575     1.133906     0.643205
Gh(H)     -2.766838     0.224028     0.624927
Gh(H)     -2.781846     1.533607    -0.169164
Gh(O)     -2.169681    -1.506407    -1.529652
Gh(H)     -2.399596    -2.128795    -2.205315
Gh(H)     -2.797931    -0.796605    -1.523323
Gh(O)      1.163535    -1.097883     2.056202
Gh(H)      2.105116    -0.983745     2.128536
Gh(H)      0.817248    -1.314531     2.991563

units ang
no_reorient
no_com
symmetry c1
}

set {
basis        aug-cc-pVTZ
scf_type     df
}

energy("mp2")
--------------------------------------------------------------------------

  Memory set to  55.879 GiB by Python driver.

Scratch directory: /scratch/
   => Libint2 <=

    Primary   basis highest AM E, G, H:  5, 4, 3
    Auxiliary basis highest AM E, G, H:  6, 5, 4
    Onebody   basis highest AM E, G, H:  6, 5, 4
    Solid Harmonics ordering:            gaussian

*** tstart() called on moses-razer
*** at Wed Jan 24 15:52:23 2024

   => Loading Basis Set <=

    Name: AUG-CC-PVTZ
    Role: ORBITAL
    Keyword: BASIS
    atoms 1                            entry K          line  1152 file /home/kchung25/anaconda3/envs/p415env/share/psi4/basis/aug-cc-pvtz.gbs 
    atoms 2, 5, 8, 11, 14              entry O          line   331 file /home/kchung25/anaconda3/envs/p415env/share/psi4/basis/aug-cc-pvtz.gbs 
    atoms 3-4, 6-7, 9-10, 12-13, 15-16 entry H          line    40 file /home/kchung25/anaconda3/envs/p415env/share/psi4/basis/aug-cc-pvtz.gbs 


         ---------------------------------------------------------
                                   SCF
               by Justin Turney, Rob Parrish, Andy Simmonett
                          and Daniel G. A. Smith
                              RHF Reference
                        6 Threads,  57220 MiB Core
         ---------------------------------------------------------

  ==> Geometry <==

    Molecular point group: c1
    Full point group: C1

    Geometry (in Angstrom), charge = 0, multiplicity = 1:

       Center              X                  Y                   Z               Mass       
    ------------   -----------------  -----------------  -----------------  -----------------
      Gh(K)           0.000000000000     0.000000000000     0.000000000000    38.963706486400
      Gh(O)           1.380814000000     0.870128000000    -2.552071000000    15.994914619570
      Gh(H)           0.720240000000     1.596362000000    -2.443970000000     1.007825032230
      Gh(H)           1.177395000000     0.252244000000    -3.293213000000     1.007825032230
         O            1.273503000000     1.903801000000     1.295069000000    15.994914619570
         H            1.989230000000     1.514260000000     1.865592000000     1.007825032230
         H            0.801927000000     2.486720000000     1.867390000000     1.007825032230
      Gh(O)          -2.462575000000     1.133906000000     0.643205000000    15.994914619570
      Gh(H)          -2.766838000000     0.224028000000     0.624927000000     1.007825032230
      Gh(H)          -2.781846000000     1.533607000000    -0.169164000000     1.007825032230
      Gh(O)          -2.169681000000    -1.506407000000    -1.529652000000    15.994914619570
      Gh(H)          -2.399596000000    -2.128795000000    -2.205315000000     1.007825032230
      Gh(H)          -2.797931000000    -0.796605000000    -1.523323000000     1.007825032230
      Gh(O)           1.163535000000    -1.097883000000     2.056202000000    15.994914619570
      Gh(H)           2.105116000000    -0.983745000000     2.128536000000     1.007825032230
      Gh(H)           0.817248000000    -1.314531000000     2.991563000000     1.007825032230

  Running in c1 symmetry.

  Rotational constants: A =      0.04292  B =      0.03348  C =      0.02821 [cm^-1]
  Rotational constants: A =   1286.65882  B =   1003.61288  C =    845.81635 [MHz]
  Nuclear repulsion =    9.088709967448938

  Charge       = 0
  Multiplicity = 1
  Electrons    = 10
  Nalpha       = 5
  Nbeta        = 5

  ==> Algorithm <==

  SCF Algorithm Type is DF.
  DIIS enabled.
  MOM disabled.
  Fractional occupation disabled.
  Guess Type is SAD.
  Energy threshold   = 1.00e-08
  Density threshold  = 1.00e-08
  Integral threshold = 1.00e-12

  ==> Primary Basis <==

  Basis Set: AUG-CC-PVTZ
    Blend: AUG-CC-PVTZ
    Number of shells: 179
    Number of basis functions: 519
    Number of Cartesian functions: 594
    Spherical Harmonics?: true
    Max angular momentum: 3

   => Loading Basis Set <=

    Name: (AUG-CC-PVTZ AUX)
    Role: JKFIT
    Keyword: DF_BASIS_SCF
    atoms 1                            entry K          line  1152 file /home/kchung25/anaconda3/envs/p415env/share/psi4/basis/def2-universal-jkfit.gbs 
    atoms 2, 5, 8, 11, 14              entry O          line   286 file /home/kchung25/anaconda3/envs/p415env/share/psi4/basis/aug-cc-pvtz-jkfit.gbs 
    atoms 3-4, 6-7, 9-10, 12-13, 15-16 entry H          line    70 file /home/kchung25/anaconda3/envs/p415env/share/psi4/basis/aug-cc-pvtz-jkfit.gbs 

  ==> Integral Setup <==

  DFHelper Memory: AOs need 2.062 GiB; user supplied 41.910 GiB. 
  Using in-core AOs.

  ==> MemDFJK: Density-Fitted J/K Matrices <==

    J tasked:                   Yes
    K tasked:                   Yes
    wK tasked:                   No
    OpenMP threads:               6
    Memory [MiB]:             42915
    Algorithm:                 Core
    Schwarz Cutoff:           1E-12
    Mask sparsity (%):      13.1831
    Fitting Condition:        1E-10

   => Auxiliary Basis Set <=

  Basis Set: (AUG-CC-PVTZ AUX)
    Blend: AUG-CC-PVTZ-JKFIT + DEF2-UNIVERSAL-JKFIT
    Number of shells: 334
    Number of basis functions: 1140
    Number of Cartesian functions: 1408
    Spherical Harmonics?: true
    Max angular momentum: 4

  Minimum eigenvalue in the overlap matrix is 6.3309214920E-05.
  Reciprocal condition number of the overlap matrix is 4.7742427222E-06.
    Using symmetric orthogonalization.

  ==> Pre-Iterations <==

  SCF Guess: Superposition of Atomic Densities via on-the-fly atomic UHF (no occupation information).

   -------------------------
    Irrep   Nso     Nmo    
   -------------------------
     A        519     519 
   -------------------------
    Total     519     519
   -------------------------

  ==> Iterations <==

                           Total Energy        Delta E     RMS |[F,P]|

   @DF-RHF iter SAD:   -75.46359343926099   -7.54636e+01   0.00000e+00 
   @DF-RHF iter   1:   -75.97335056531422   -5.09757e-01   9.02570e-04 DIIS/ADIIS
   @DF-RHF iter   2:   -76.02570438910962   -5.23538e-02   6.22126e-04 DIIS/ADIIS
   @DF-RHF iter   3:   -76.05799396731607   -3.22896e-02   4.24273e-05 DIIS
   @DF-RHF iter   4:   -76.05840301288347   -4.09046e-04   1.04219e-05 DIIS
   @DF-RHF iter   5:   -76.05843018466867   -2.71718e-05   2.41443e-06 DIIS
   @DF-RHF iter   6:   -76.05843249026383   -2.30560e-06   5.34651e-07 DIIS
   @DF-RHF iter   7:   -76.05843261378078   -1.23517e-07   9.57064e-08 DIIS
   @DF-RHF iter   8:   -76.05843261723132   -3.45054e-09   1.63288e-08 DIIS
   @DF-RHF iter   9:   -76.05843261731181   -8.04903e-11   4.19850e-09 DIIS
  Energy and wave function converged.


  ==> Post-Iterations <==

    Orbital Energies [Eh]
    ---------------------

    Doubly Occupied:                                                      

       1A    -20.568905     2A     -1.348018     3A     -0.711943  
       4A     -0.582027     5A     -0.509373  

    Virtual:                                                              

       6A      0.006713     7A      0.009469     8A      0.009882  
       9A      0.010921    10A      0.017842    11A      0.018097  
      12A      0.018471    13A      0.018982    14A      0.019112  
      15A      0.031259    16A      0.034150    17A      0.036292  
      18A      0.040083    19A      0.055318    20A      0.057766  
      21A      0.058340    22A      0.061256    23A      0.062698  
      24A      0.071168    25A      0.074017    26A      0.077005  
      27A      0.077203    28A      0.079054    29A      0.083497  
      30A      0.088613    31A      0.091359    32A      0.097869  
      33A      0.100023    34A      0.105251    35A      0.117288  
      36A      0.122188    37A      0.126984    38A      0.140597  
      39A      0.150107    40A      0.155418    41A      0.163341  
      42A      0.164792    43A      0.169130    44A      0.172272  
      45A      0.175791    46A      0.180942    47A      0.183677  
      48A      0.190179    49A      0.193623    50A      0.194790  
      51A      0.204022    52A      0.207778    53A      0.212018  
      54A      0.220575    55A      0.227114    56A      0.228407  
      57A      0.231106    58A      0.241403    59A      0.244458  
      60A      0.254728    61A      0.262178    62A      0.265509  
      63A      0.268763    64A      0.275959    65A      0.288687  
      66A      0.294901    67A      0.302639    68A      0.314020  
      69A      0.316998    70A      0.325074    71A      0.333402  
      72A      0.342573    73A      0.345397    74A      0.352546  
      75A      0.358137    76A      0.363062    77A      0.367975  
      78A      0.373384    79A      0.378656    80A      0.381847  
      81A      0.389809    82A      0.391529    83A      0.394328  
      84A      0.402843    85A      0.405637    86A      0.413162  
      87A      0.415345    88A      0.419559    89A      0.426348  
      90A      0.431022    91A      0.438731    92A      0.441222  
      93A      0.447493    94A      0.450937    95A      0.461454  
      96A      0.471771    97A      0.474339    98A      0.478372  
      99A      0.484870   100A      0.487393   101A      0.492716  
     102A      0.495432   103A      0.501333   104A      0.506679  
     105A      0.508511   106A      0.512564   107A      0.522036  
     108A      0.527586   109A      0.536862   110A      0.549858  
     111A      0.558322   112A      0.560232   113A      0.572423  
     114A      0.582616   115A      0.593727   116A      0.613323  
     117A      0.620460   118A      0.629798   119A      0.655814  
     120A      0.681443   121A      0.704481   122A      0.718447  
     123A      0.740463   124A      0.744735   125A      0.762912  
     126A      0.766578   127A      0.771816   128A      0.789443  
     129A      0.793226   130A      0.801254   131A      0.809258  
     132A      0.822595   133A      0.826284   134A      0.834554  
     135A      0.837233   136A      0.842174   137A      0.843351  
     138A      0.853619   139A      0.859019   140A      0.859719  
     141A      0.877185   142A      0.882186   143A      0.887392  
     144A      0.894399   145A      0.902118   146A      0.904520  
     147A      0.919386   148A      0.922120   149A      0.935010  
     150A      0.939762   151A      0.943170   152A      0.949221  
     153A      0.955920   154A      0.959941   155A      0.963449  
     156A      0.969677   157A      0.974050   158A      0.984856  
     159A      0.988282   160A      0.994494   161A      0.996442  
     162A      1.011326   163A      1.016514   164A      1.018531  
     165A      1.024044   166A      1.034247   167A      1.046585  
     168A      1.053572   169A      1.058115   170A      1.062786  
     171A      1.077066   172A      1.082391   173A      1.085843  
     174A      1.094966   175A      1.097545   176A      1.109770  
     177A      1.110759   178A      1.114360   179A      1.119745  
     180A      1.130722   181A      1.138641   182A      1.148475  
     183A      1.156498   184A      1.160911   185A      1.166315  
     186A      1.172456   187A      1.183322   188A      1.193135  
     189A      1.198597   190A      1.213180   191A      1.215407  
     192A      1.222896   193A      1.232391   194A      1.242390  
     195A      1.244674   196A      1.252888   197A      1.266738  
     198A      1.270493   199A      1.284059   200A      1.291046  
     201A      1.298147   202A      1.305527   203A      1.313303  
     204A      1.321011   205A      1.329979   206A      1.336302  
     207A      1.360414   208A      1.370161   209A      1.389656  
     210A      1.398333   211A      1.410809   212A      1.429214  
     213A      1.447855   214A      1.477818   215A      1.503420  
     216A      1.516791   217A      1.528056   218A      1.536287  
     219A      1.543620   220A      1.552129   221A      1.564852  
     222A      1.587395   223A      1.602010   224A      1.614631  
     225A      1.630052   226A      1.653545   227A      1.669043  
     228A      1.766740   229A      1.770274   230A      1.782524  
     231A      1.794829   232A      1.800975   233A      1.807848  
     234A      1.825298   235A      1.837852   236A      1.850338  
     237A      1.855028   238A      1.858056   239A      1.867304  
     240A      1.876929   241A      1.887972   242A      1.895107  
     243A      1.905635   244A      1.916699   245A      1.927962  
     246A      1.943130   247A      1.954789   248A      1.980311  
     249A      1.980806   250A      2.009364   251A      2.035587  
     252A      2.041196   253A      2.082118   254A      2.147499  
     255A      2.161715   256A      2.213710   257A      2.282488  
     258A      2.309285   259A      2.357825   260A      2.371056  
     261A      2.394045   262A      2.399432   263A      2.411623  
     264A      2.435781   265A      2.447168   266A      2.449995  
     267A      2.474776   268A      2.489023   269A      2.491477  
     270A      2.520204   271A      2.531884   272A      2.537213  
     273A      2.549568   274A      2.563920   275A      2.565580  
     276A      2.570921   277A      2.579678   278A      2.582326  
     279A      2.602470   280A      2.612624   281A      2.614453  
     282A      2.625883   283A      2.630632   284A      2.642649  
     285A      2.654050   286A      2.674717   287A      2.679334  
     288A      2.696022   289A      2.715165   290A      2.729130  
     291A      2.736145   292A      2.749585   293A      2.759341  
     294A      2.776693   295A      2.798292   296A      2.817354  
     297A      2.828242   298A      2.835514   299A      2.865244  
     300A      2.875848   301A      2.890855   302A      2.898514  
     303A      2.917387   304A      2.943805   305A      2.956596  
     306A      2.972644   307A      2.979314   308A      3.003618  
     309A      3.036094   310A      3.052925   311A      3.129457  
     312A      3.176766   313A      3.185975   314A      3.209829  
     315A      3.223567   316A      3.236167   317A      3.246341  
     318A      3.260879   319A      3.271133   320A      3.278132  
     321A      3.294621   322A      3.307832   323A      3.325963  
     324A      3.329882   325A      3.350045   326A      3.354920  
     327A      3.362623   328A      3.375283   329A      3.389365  
     330A      3.429144   331A      3.463066   332A      3.476715  
     333A      3.593565   334A      3.620405   335A      3.638500  
     336A      3.659244   337A      3.710357   338A      3.722592  
     339A      3.741000   340A      3.768908   341A      3.794425  
     342A      3.877907   343A      4.110372   344A      4.249393  
     345A      4.273941   346A      4.290912   347A      4.345134  
     348A      4.361195   349A      4.394661   350A      4.399563  
     351A      4.446538   352A      4.457719   353A      4.481604  
     354A      4.486772   355A      4.501859   356A      4.516595  
     357A      4.537180   358A      4.541874   359A      4.550410  
     360A      4.566210   361A      4.569893   362A      4.586882  
     363A      4.602620   364A      4.628179   365A      4.643086  
     366A      4.651365   367A      4.661658   368A      4.691870  
     369A      4.693203   370A      4.713643   371A      4.723877  
     372A      4.746979   373A      4.753300   374A      4.783986  
     375A      4.803931   376A      4.810415   377A      4.856449  
     378A      4.905355   379A      4.936860   380A      4.959887  
     381A      4.966171   382A      5.006095   383A      5.019934  
     384A      5.028629   385A      5.042079   386A      5.052038  
     387A      5.062955   388A      5.065273   389A      5.091466  
     390A      5.137986   391A      5.157727   392A      5.162357  
     393A      5.186021   394A      5.197055   395A      5.278114  
     396A      5.281632   397A      5.369838   398A      5.434163  
     399A      5.442079   400A      5.462904   401A      5.493903  
     402A      5.539686   403A      5.543317   404A      5.586995  
     405A      5.633100   406A      5.642944   407A      5.668278  
     408A      5.683002   409A      5.688741   410A      5.694599  
     411A      5.747518   412A      5.773259   413A      5.789341  
     414A      5.862361   415A      5.890360   416A      6.145991  
     417A      6.153104   418A      6.165014   419A      6.177710  
     420A      6.182129   421A      6.294522   422A      6.341666  
     423A      6.414301   424A      6.448648   425A      6.602103  
     426A      6.622946   427A      6.703567   428A      6.773861  
     429A      6.785817   430A      6.868212   431A      6.925146  
     432A      6.978782   433A      7.053356   434A      7.102346  
     435A      7.163894   436A      7.178824   437A      7.324908  
     438A      7.338194   439A      7.380219   440A      7.428305  
     441A      7.442508   442A      7.607932   443A      7.672561  
     444A      7.694526   445A      7.713924   446A      7.733945  
     447A      7.764504   448A      7.793616   449A      7.812657  
     450A      7.872447   451A      7.902431   452A      7.962378  
     453A      8.057974   454A      8.125963   455A      8.136581  
     456A      8.181555   457A      8.184829   458A      8.217824  
     459A      8.236791   460A      8.269283   461A      8.282731  
     462A      8.303733   463A      8.307183   464A      8.323736  
     465A      8.654149   466A      8.657088   467A      8.674494  
     468A      8.739599   469A      8.792775   470A      8.815556  
     471A      8.852420   472A      8.891341   473A      8.986507  
     474A      9.754743   475A      9.788558   476A      9.820501  
     477A      9.822322   478A      9.912062   479A      9.929359  
     480A      9.947274   481A      9.968983   482A     10.030367  
     483A     10.039501   484A     10.043087   485A     10.053536  
     486A     10.127334   487A     10.203810   488A     10.245594  
     489A     10.254368   490A     10.451232   491A     10.963577  
     492A     10.973046   493A     11.232524   494A     11.275481  
     495A     11.663735   496A     11.700702   497A     11.706913  
     498A     11.762851   499A     11.920382   500A     12.063725  
     501A     12.184895   502A     12.320622   503A     13.362793  
     504A     13.401935   505A     13.615141   506A     13.702212  
     507A     13.855532   508A     13.888673   509A     13.906203  
     510A     13.957056   511A     15.784074   512A     30.873204  
     513A     30.980971   514A     31.263863   515A     63.670274  
     516A     63.939963   517A     65.403273   518A     66.023862  
     519A    198.198310  

    Final Occupation by Irrep:
              A 
    DOCC [     5 ]
    NA   [     5 ]
    NB   [     5 ]

  @DF-RHF Final Energy:   -76.05843261731181

   => Energetics <=

    Nuclear Repulsion Energy =              9.0887099674489384
    One-Electron Energy =                -122.8537484797690240
    Two-Electron Energy =                  37.7066058950082805
    Total Energy =                        -76.0584326173118086

Computation Completed


Properties will be evaluated at   0.000000,   0.000000,   0.000000 [a0]

Properties computed using the SCF density matrix


 Multipole Moments:

 ------------------------------------------------------------------------------------
     Multipole            Electronic (a.u.)      Nuclear  (a.u.)        Total (a.u.)
 ------------------------------------------------------------------------------------

 L = 1.  Multiply by 2.5417464519 to convert [e a0] to [Debye]
 Dipole X            :        -24.3723770           24.5270974            0.1547205
 Dipole Y            :        -36.2083497           36.3420563            0.1337066
 Dipole Z            :        -25.8775335           26.6329194            0.7553859
 Magnitude           :                                                    0.7825751

 ------------------------------------------------------------------------------------

*** tstop() called on moses-razer at Wed Jan 24 15:52:35 2024
Module time:
	user time   =      42.22 seconds =       0.70 minutes
	system time =       2.33 seconds =       0.04 minutes
	total time  =         12 seconds =       0.20 minutes
Total time:
	user time   =      42.22 seconds =       0.70 minutes
	system time =       2.33 seconds =       0.04 minutes
	total time  =         12 seconds =       0.20 minutes

*** tstart() called on moses-razer
*** at Wed Jan 24 15:52:35 2024


  //>>>>>>>>>>>>>>>>>>>>>>>>>>>>>>>>>>>//
  //               DFMP2               //
  //<<<<<<<<<<<<<<<<<<<<<<<<<<<<<<<<<<<//

   => Loading Basis Set <=

    Name: (AUG-CC-PVTZ AUX)
    Role: RIFIT
    Keyword: DF_BASIS_MP2
    atoms 1                            entry K          line  1282 file /home/kchung25/anaconda3/envs/p415env/share/psi4/basis/def2-qzvpp-ri.gbs 
    atoms 2, 5, 8, 11, 14              entry O          line   264 file /home/kchung25/anaconda3/envs/p415env/share/psi4/basis/aug-cc-pvtz-ri.gbs 
    atoms 3-4, 6-7, 9-10, 12-13, 15-16 entry H          line    30 file /home/kchung25/anaconda3/envs/p415env/share/psi4/basis/aug-cc-pvtz-ri.gbs 

	 --------------------------------------------------------
	                          DF-MP2                         
	      2nd-Order Density-Fitted Moller-Plesset Theory     
	              RMP2 Wavefunction,   6 Threads             
	                                                         
	        Rob Parrish, Justin Turney, Andy Simmonett,      
	           Ed Hohenstein, and C. David Sherrill          
	 --------------------------------------------------------

   => Auxiliary Basis Set <=

  Basis Set: (AUG-CC-PVTZ AUX)
    Blend: AUG-CC-PVTZ-RI + DEF2-QZVPP-RI
    Number of shells: 329
    Number of basis functions: 1189
    Number of Cartesian functions: 1492
    Spherical Harmonics?: true
    Max angular momentum: 4

	 --------------------------------------------------------
	                 NBF =   519, NAUX =  1189
	 --------------------------------------------------------
	   CLASS    FOCC     OCC    AOCC    AVIR     VIR    FVIR
	   PAIRS       0       5       5     514     514       0
	 --------------------------------------------------------

	-----------------------------------------------------------
	 ==================> DF-MP2 Energies <==================== 
	-----------------------------------------------------------
	 Reference Energy          =     -76.0584326173118086 [Eh]
	 Singles Energy            =      -0.0000000000000000 [Eh]
	 Same-Spin Energy          =      -0.0685776820768391 [Eh]
	 Opposite-Spin Energy      =      -0.2162109652913732 [Eh]
	 Correlation Energy        =      -0.2847886473682122 [Eh]
	 Total Energy              =     -76.3432212646800252 [Eh]
	-----------------------------------------------------------
	 ================> DF-SCS-MP2 Energies <================== 
	-----------------------------------------------------------
	 SCS Same-Spin Scale       =       0.3333333333333333 [-]
	 SCS Opposite-Spin Scale   =       1.2000000000000000 [-]
	 SCS Same-Spin Energy      =      -0.0228592273589464 [Eh]
	 SCS Opposite-Spin Energy  =      -0.2594531583496478 [Eh]
	 SCS Correlation Energy    =      -0.2823123857085941 [Eh]
	 SCS Total Energy          =     -76.3407450030204018 [Eh]
	-----------------------------------------------------------


*** tstop() called on moses-razer at Wed Jan 24 15:52:43 2024
Module time:
	user time   =      17.64 seconds =       0.29 minutes
	system time =       1.40 seconds =       0.02 minutes
	total time  =          8 seconds =       0.13 minutes
Total time:
	user time   =      59.86 seconds =       1.00 minutes
	system time =       3.73 seconds =       0.06 minutes
	total time  =         20 seconds =       0.33 minutes

    Psi4 stopped on: Wednesday, 24 January 2024 03:52PM
    Psi4 wall time for execution: 0:00:20.06

*** Psi4 exiting successfully. Buy a developer a beer!
