
    -----------------------------------------------------------------------
          Psi4: An Open-Source Ab Initio Electronic Structure Package
                               Psi4 1.9 release

                         Git: Rev {} zzzzzzz 


    D. G. A. Smith, L. A. Burns, A. C. Simmonett, R. M. Parrish,
    M. C. Schieber, R. Galvelis, P. Kraus, H. Kruse, R. Di Remigio,
    A. Alenaizan, A. M. James, S. Lehtola, J. P. Misiewicz, M. Scheurer,
    R. A. Shaw, J. B. Schriber, Y. Xie, Z. L. Glick, D. A. Sirianni,
    J. S. O'Brien, J. M. Waldrop, A. Kumar, E. G. Hohenstein,
    B. P. Pritchard, B. R. Brooks, H. F. Schaefer III, A. Yu. Sokolov,
    K. Patkowski, A. E. DePrince III, U. Bozkaya, R. A. King,
    F. A. Evangelista, J. M. Turney, T. D. Crawford, C. D. Sherrill,
    J. Chem. Phys. 152(18) 184108 (2020). https://doi.org/10.1063/5.0006002

                            Additional Code Authors
    E. T. Seidl, C. L. Janssen, E. F. Valeev, M. L. Leininger,
    J. F. Gonthier, R. M. Richard, H. R. McAlexander, M. Saitow, X. Wang,
    P. Verma, M. H. Lechner, A. Jiang, S. Behnle, A. G. Heide,
    M. F. Herbst, and D. L. Poole

             Previous Authors, Complete List of Code Contributors,
                       and Citations for Specific Modules
    https://github.com/psi4/psi4/blob/master/codemeta.json
    https://github.com/psi4/psi4/graphs/contributors
    http://psicode.org/psi4manual/master/introduction.html#citing-psifour

    -----------------------------------------------------------------------


    Psi4 started on: Wednesday, 24 January 2024 07:02PM

    Process ID: 1248333
    Host:       moses-razer
    PSIDATADIR: /home/kchung25/anaconda3/envs/psi4_19/share/psi4
    Memory:     500.0 MiB
    Threads:    6
    
  ==> Input File <==

--------------------------------------------------------------------------
MEMORY 60 GB

molecule dimer {
0 1
Gh(K)      0.000000     0.000000     0.000000
O         -0.015696    -0.345584    -2.941205
H          0.515652    -0.599405    -3.713110
H         -0.673237     0.300386    -3.283334
Gh(O)     -2.446947    -1.823863     0.179839
Gh(H)     -2.158831    -2.714217     0.379934
Gh(H)     -2.806161    -1.416264     1.005551
Gh(O)      2.301395     1.583890     1.081324
Gh(H)      1.387959     1.838924     0.873685
Gh(H)      2.218707     0.954213     1.825131
Gh(O)      2.051371    -1.795200    -0.845859
Gh(H)      2.285042    -2.269202    -0.005706
Gh(H)      2.857258    -1.807046    -1.325303
Gh(O)      1.560729     1.646549    -1.959294
Gh(H)      1.936631     0.802346    -2.208848
Gh(H)      2.350103     2.037956    -1.650044

units ang
no_reorient
no_com
symmetry c1
}

set {
basis        aug-cc-pVTZ
scf_type     df
}

energy("mp2")
--------------------------------------------------------------------------

  Memory set to  55.879 GiB by Python driver.

Scratch directory: /scratch/
   => Libint2 <=

    Primary   basis highest AM E, G, H:  5, 4, 3
    Auxiliary basis highest AM E, G, H:  6, 5, 4
    Onebody   basis highest AM E, G, H:  6, 5, 4
    Solid Harmonics ordering:            gaussian

*** tstart() called on moses-razer
*** at Wed Jan 24 19:02:04 2024

   => Loading Basis Set <=

    Name: AUG-CC-PVTZ
    Role: ORBITAL
    Keyword: BASIS
    atoms 1                            entry K          line  1152 file /home/kchung25/anaconda3/envs/p415env/share/psi4/basis/aug-cc-pvtz.gbs 
    atoms 2, 5, 8, 11, 14              entry O          line   331 file /home/kchung25/anaconda3/envs/p415env/share/psi4/basis/aug-cc-pvtz.gbs 
    atoms 3-4, 6-7, 9-10, 12-13, 15-16 entry H          line    40 file /home/kchung25/anaconda3/envs/p415env/share/psi4/basis/aug-cc-pvtz.gbs 


         ---------------------------------------------------------
                                   SCF
               by Justin Turney, Rob Parrish, Andy Simmonett
                          and Daniel G. A. Smith
                              RHF Reference
                        6 Threads,  57220 MiB Core
         ---------------------------------------------------------

  ==> Geometry <==

    Molecular point group: c1
    Full point group: C1

    Geometry (in Angstrom), charge = 0, multiplicity = 1:

       Center              X                  Y                   Z               Mass       
    ------------   -----------------  -----------------  -----------------  -----------------
      Gh(K)           0.000000000000     0.000000000000     0.000000000000    38.963706486400
         O           -0.015696000000    -0.345584000000    -2.941205000000    15.994914619570
         H            0.515652000000    -0.599405000000    -3.713110000000     1.007825032230
         H           -0.673237000000     0.300386000000    -3.283334000000     1.007825032230
      Gh(O)          -2.446947000000    -1.823863000000     0.179839000000    15.994914619570
      Gh(H)          -2.158831000000    -2.714217000000     0.379934000000     1.007825032230
      Gh(H)          -2.806161000000    -1.416264000000     1.005551000000     1.007825032230
      Gh(O)           2.301395000000     1.583890000000     1.081324000000    15.994914619570
      Gh(H)           1.387959000000     1.838924000000     0.873685000000     1.007825032230
      Gh(H)           2.218707000000     0.954213000000     1.825131000000     1.007825032230
      Gh(O)           2.051371000000    -1.795200000000    -0.845859000000    15.994914619570
      Gh(H)           2.285042000000    -2.269202000000    -0.005706000000     1.007825032230
      Gh(H)           2.857258000000    -1.807046000000    -1.325303000000     1.007825032230
      Gh(O)           1.560729000000     1.646549000000    -1.959294000000    15.994914619570
      Gh(H)           1.936631000000     0.802346000000    -2.208848000000     1.007825032230
      Gh(H)           2.350103000000     2.037956000000    -1.650044000000     1.007825032230

  Running in c1 symmetry.

  Rotational constants: A =      0.04228  B =      0.03077  C =      0.02449 [cm^-1]
  Rotational constants: A =   1267.56840  B =    922.56325  C =    734.09844 [MHz]
  Nuclear repulsion =    9.007194012724863

  Charge       = 0
  Multiplicity = 1
  Electrons    = 10
  Nalpha       = 5
  Nbeta        = 5

  ==> Algorithm <==

  SCF Algorithm Type is DF.
  DIIS enabled.
  MOM disabled.
  Fractional occupation disabled.
  Guess Type is SAD.
  Energy threshold   = 1.00e-08
  Density threshold  = 1.00e-08
  Integral threshold = 1.00e-12

  ==> Primary Basis <==

  Basis Set: AUG-CC-PVTZ
    Blend: AUG-CC-PVTZ
    Number of shells: 179
    Number of basis functions: 519
    Number of Cartesian functions: 594
    Spherical Harmonics?: true
    Max angular momentum: 3

   => Loading Basis Set <=

    Name: (AUG-CC-PVTZ AUX)
    Role: JKFIT
    Keyword: DF_BASIS_SCF
    atoms 1                            entry K          line  1152 file /home/kchung25/anaconda3/envs/p415env/share/psi4/basis/def2-universal-jkfit.gbs 
    atoms 2, 5, 8, 11, 14              entry O          line   286 file /home/kchung25/anaconda3/envs/p415env/share/psi4/basis/aug-cc-pvtz-jkfit.gbs 
    atoms 3-4, 6-7, 9-10, 12-13, 15-16 entry H          line    70 file /home/kchung25/anaconda3/envs/p415env/share/psi4/basis/aug-cc-pvtz-jkfit.gbs 

  ==> Integral Setup <==

  DFHelper Memory: AOs need 2.103 GiB; user supplied 41.910 GiB. 
  Using in-core AOs.

  ==> MemDFJK: Density-Fitted J/K Matrices <==

    J tasked:                   Yes
    K tasked:                   Yes
    wK tasked:                   No
    OpenMP threads:               6
    Memory [MiB]:             42915
    Algorithm:                 Core
    Schwarz Cutoff:           1E-12
    Mask sparsity (%):      11.3840
    Fitting Condition:        1E-10

   => Auxiliary Basis Set <=

  Basis Set: (AUG-CC-PVTZ AUX)
    Blend: AUG-CC-PVTZ-JKFIT + DEF2-UNIVERSAL-JKFIT
    Number of shells: 334
    Number of basis functions: 1140
    Number of Cartesian functions: 1408
    Spherical Harmonics?: true
    Max angular momentum: 4

  Minimum eigenvalue in the overlap matrix is 7.6483564610E-05.
  Reciprocal condition number of the overlap matrix is 5.3389453247E-06.
    Using symmetric orthogonalization.

  ==> Pre-Iterations <==

  SCF Guess: Superposition of Atomic Densities via on-the-fly atomic UHF (no occupation information).

   -------------------------
    Irrep   Nso     Nmo    
   -------------------------
     A        519     519 
   -------------------------
    Total     519     519
   -------------------------

  ==> Iterations <==

                           Total Energy        Delta E     RMS |[F,P]|

   @DF-RHF iter SAD:   -75.45434514392153   -7.54543e+01   0.00000e+00 
   @DF-RHF iter   1:   -75.97354883803578   -5.19204e-01   8.99940e-04 ADIIS/DIIS
   @DF-RHF iter   2:   -76.02545249866391   -5.19037e-02   6.25240e-04 ADIIS/DIIS
   @DF-RHF iter   3:   -76.05818880948560   -3.27363e-02   4.26346e-05 DIIS
   @DF-RHF iter   4:   -76.05860461633630   -4.15807e-04   1.06058e-05 DIIS
   @DF-RHF iter   5:   -76.05863298340088   -2.83671e-05   2.44824e-06 DIIS
   @DF-RHF iter   6:   -76.05863537265998   -2.38926e-06   5.39802e-07 DIIS
   @DF-RHF iter   7:   -76.05863549940000   -1.26740e-07   9.69175e-08 DIIS
   @DF-RHF iter   8:   -76.05863550295936   -3.55936e-09   1.66283e-08 DIIS
   @DF-RHF iter   9:   -76.05863550304375   -8.43841e-11   4.25753e-09 DIIS
  Energy and wave function converged.


  ==> Post-Iterations <==

    Orbital Energies [Eh]
    ---------------------

    Doubly Occupied:                                                      

       1A    -20.570161     2A     -1.343091     3A     -0.708174  
       4A     -0.579828     5A     -0.508552  

    Virtual:                                                              

       6A      0.007012     7A      0.009509     8A      0.010099  
       9A      0.010895    10A      0.018085    11A      0.018138  
      12A      0.018591    13A      0.018701    14A      0.019126  
      15A      0.032373    16A      0.034191    17A      0.035978  
      18A      0.040804    19A      0.056932    20A      0.057800  
      21A      0.058860    22A      0.061530    23A      0.061848  
      24A      0.069443    25A      0.074465    26A      0.075257  
      27A      0.077752    28A      0.079629    29A      0.082462  
      30A      0.085278    31A      0.090821    32A      0.095075  
      33A      0.102748    34A      0.104627    35A      0.117207  
      36A      0.126147    37A      0.135228    38A      0.148517  
      39A      0.155237    40A      0.157733    41A      0.160095  
      42A      0.161377    43A      0.168431    44A      0.175757  
      45A      0.178065    46A      0.182313    47A      0.184984  
      48A      0.186699    49A      0.195406    50A      0.197912  
      51A      0.199579    52A      0.208462    53A      0.212612  
      54A      0.214401    55A      0.221722    56A      0.227521  
      57A      0.233509    58A      0.238710    59A      0.246341  
      60A      0.252779    61A      0.253908    62A      0.264194  
      63A      0.271298    64A      0.275413    65A      0.285505  
      66A      0.295406    67A      0.302272    68A      0.305617  
      69A      0.318008    70A      0.323557    71A      0.326077  
      72A      0.333982    73A      0.342169    74A      0.350470  
      75A      0.358153    76A      0.361749    77A      0.369098  
      78A      0.373617    79A      0.382507    80A      0.385857  
      81A      0.392293    82A      0.396682    83A      0.400305  
      84A      0.408551    85A      0.409581    86A      0.412604  
      87A      0.421697    88A      0.428636    89A      0.431952  
      90A      0.434926    91A      0.441275    92A      0.445818  
      93A      0.451858    94A      0.455810    95A      0.460174  
      96A      0.462272    97A      0.468014    98A      0.475276  
      99A      0.480466   100A      0.484835   101A      0.485965  
     102A      0.488390   103A      0.496840   104A      0.503238  
     105A      0.513119   106A      0.517929   107A      0.525939  
     108A      0.531544   109A      0.535413   110A      0.549339  
     111A      0.551344   112A      0.566778   113A      0.578706  
     114A      0.580769   115A      0.585936   116A      0.606981  
     117A      0.616920   118A      0.631950   119A      0.639225  
     120A      0.698548   121A      0.702195   122A      0.715336  
     123A      0.746242   124A      0.747798   125A      0.757693  
     126A      0.764496   127A      0.772198   128A      0.786196  
     129A      0.791991   130A      0.801046   131A      0.807862  
     132A      0.816726   133A      0.822533   134A      0.826960  
     135A      0.835440   136A      0.841012   137A      0.848397  
     138A      0.857559   139A      0.871185   140A      0.877955  
     141A      0.883424   142A      0.886309   143A      0.893543  
     144A      0.897224   145A      0.900187   146A      0.907512  
     147A      0.919661   148A      0.923968   149A      0.930599  
     150A      0.939580   151A      0.944086   152A      0.949614  
     153A      0.955080   154A      0.958094   155A      0.969690  
     156A      0.973246   157A      0.977696   158A      0.989519  
     159A      0.989774   160A      1.000656   161A      1.008288  
     162A      1.016304   163A      1.023204   164A      1.026844  
     165A      1.041042   166A      1.041946   167A      1.056988  
     168A      1.065793   169A      1.070732   170A      1.077266  
     171A      1.081658   172A      1.086783   173A      1.090705  
     174A      1.103415   175A      1.109996   176A      1.120626  
     177A      1.126459   178A      1.129362   179A      1.136570  
     180A      1.140672   181A      1.154899   182A      1.165737  
     183A      1.171041   184A      1.179270   185A      1.181860  
     186A      1.192556   187A      1.198052   188A      1.205078  
     189A      1.207855   190A      1.216554   191A      1.222816  
     192A      1.231265   193A      1.240023   194A      1.242756  
     195A      1.255581   196A      1.262578   197A      1.269665  
     198A      1.280061   199A      1.285114   200A      1.294591  
     201A      1.305698   202A      1.323658   203A      1.325082  
     204A      1.342734   205A      1.352493   206A      1.361850  
     207A      1.373556   208A      1.387701   209A      1.408705  
     210A      1.417798   211A      1.437804   212A      1.451610  
     213A      1.474422   214A      1.480388   215A      1.499808  
     216A      1.503753   217A      1.521788   218A      1.553595  
     219A      1.563717   220A      1.574727   221A      1.577655  
     222A      1.613464   223A      1.633034   224A      1.647170  
     225A      1.661760   226A      1.745878   227A      1.757864  
     228A      1.760496   229A      1.770320   230A      1.790396  
     231A      1.794689   232A      1.807406   233A      1.820283  
     234A      1.828987   235A      1.838113   236A      1.852239  
     237A      1.857985   238A      1.867228   239A      1.877030  
     240A      1.881789   241A      1.902794   242A      1.904100  
     243A      1.915266   244A      1.936995   245A      1.949184  
     246A      1.964157   247A      1.992833   248A      1.995400  
     249A      2.031725   250A      2.040938   251A      2.076155  
     252A      2.079612   253A      2.107163   254A      2.150929  
     255A      2.214079   256A      2.233073   257A      2.302118  
     258A      2.324056   259A      2.346002   260A      2.355806  
     261A      2.368517   262A      2.387560   263A      2.410296  
     264A      2.423134   265A      2.425775   266A      2.440699  
     267A      2.455667   268A      2.480368   269A      2.517767  
     270A      2.530052   271A      2.535594   272A      2.545958  
     273A      2.548605   274A      2.565419   275A      2.571417  
     276A      2.582932   277A      2.589969   278A      2.592829  
     279A      2.601862   280A      2.605233   281A      2.614215  
     282A      2.619180   283A      2.639874   284A      2.645696  
     285A      2.663515   286A      2.667343   287A      2.684650  
     288A      2.710712   289A      2.720066   290A      2.752299  
     291A      2.756517   292A      2.770473   293A      2.779590  
     294A      2.792498   295A      2.809164   296A      2.814217  
     297A      2.851806   298A      2.860439   299A      2.872778  
     300A      2.878081   301A      2.905837   302A      2.918777  
     303A      2.919715   304A      2.935742   305A      2.948243  
     306A      2.966266   307A      2.970303   308A      2.993261  
     309A      3.014786   310A      3.085126   311A      3.127053  
     312A      3.169094   313A      3.197991   314A      3.214405  
     315A      3.228655   316A      3.249545   317A      3.254215  
     318A      3.263013   319A      3.288037   320A      3.290681  
     321A      3.322953   322A      3.332258   323A      3.355945  
     324A      3.358738   325A      3.367754   326A      3.373883  
     327A      3.382620   328A      3.409607   329A      3.419460  
     330A      3.446856   331A      3.482425   332A      3.546385  
     333A      3.588032   334A      3.606585   335A      3.638838  
     336A      3.657560   337A      3.718707   338A      3.764825  
     339A      3.781165   340A      3.804828   341A      3.859324  
     342A      3.877267   343A      4.070021   344A      4.246535  
     345A      4.278378   346A      4.312797   347A      4.349506  
     348A      4.398576   349A      4.417271   350A      4.445958  
     351A      4.453627   352A      4.481135   353A      4.498864  
     354A      4.511095   355A      4.522246   356A      4.526301  
     357A      4.534903   358A      4.544535   359A      4.551178  
     360A      4.574242   361A      4.609922   362A      4.612748  
     363A      4.635610   364A      4.643414   365A      4.648990  
     366A      4.662857   367A      4.680324   368A      4.714110  
     369A      4.715282   370A      4.731498   371A      4.752373  
     372A      4.763665   373A      4.785486   374A      4.789648  
     375A      4.813156   376A      4.826731   377A      4.914617  
     378A      4.931345   379A      4.943168   380A      4.949952  
     381A      4.962281   382A      4.985403   383A      5.004562  
     384A      5.010323   385A      5.028647   386A      5.034343  
     387A      5.044160   388A      5.077688   389A      5.113132  
     390A      5.141377   391A      5.157299   392A      5.225044  
     393A      5.248949   394A      5.250250   395A      5.318018  
     396A      5.339473   397A      5.377176   398A      5.469857  
     399A      5.508928   400A      5.539484   401A      5.565094  
     402A      5.589109   403A      5.615190   404A      5.625956  
     405A      5.653712   406A      5.671500   407A      5.715833  
     408A      5.735007   409A      5.758546   410A      5.770222  
     411A      5.783123   412A      5.830265   413A      5.872486  
     414A      5.899118   415A      6.073348   416A      6.144732  
     417A      6.189334   418A      6.220144   419A      6.232734  
     420A      6.301389   421A      6.320959   422A      6.374754  
     423A      6.411091   424A      6.425827   425A      6.632091  
     426A      6.657992   427A      6.668436   428A      6.695105  
     429A      6.756965   430A      6.803227   431A      6.935156  
     432A      7.033091   433A      7.045070   434A      7.135498  
     435A      7.160011   436A      7.296585   437A      7.309502  
     438A      7.343254   439A      7.367187   440A      7.421030  
     441A      7.436416   442A      7.577429   443A      7.674793  
     444A      7.713051   445A      7.729825   446A      7.769304  
     447A      7.779457   448A      7.843753   449A      7.869607  
     450A      7.919777   451A      7.959767   452A      8.033516  
     453A      8.072049   454A      8.085347   455A      8.106030  
     456A      8.120938   457A      8.169689   458A      8.179990  
     459A      8.198023   460A      8.218577   461A      8.269035  
     462A      8.318266   463A      8.320793   464A      8.433899  
     465A      8.701440   466A      8.714014   467A      8.742971  
     468A      8.761412   469A      8.791371   470A      8.793022  
     471A      8.880716   472A      8.924297   473A      9.016377  
     474A      9.743081   475A      9.777762   476A      9.821367  
     477A      9.828147   478A      9.934609   479A      9.946006  
     480A      9.976164   481A     10.002660   482A     10.034219  
     483A     10.040485   484A     10.054243   485A     10.108136  
     486A     10.195534   487A     10.237909   488A     10.262479  
     489A     10.311098   490A     10.396005   491A     11.097543  
     492A     11.150782   493A     11.174069   494A     11.441932  
     495A     11.659462   496A     11.718071   497A     11.725174  
     498A     11.843128   499A     12.010779   500A     12.060425  
     501A     12.243460   502A     12.438739   503A     13.462402  
     504A     13.508838   505A     13.568410   506A     13.835942  
     507A     13.871720   508A     13.885279   509A     13.932945  
     510A     13.944697   511A     15.602726   512A     30.760341  
     513A     31.039666   514A     31.295416   515A     64.198772  
     516A     64.476427   517A     64.864787   518A     66.578926  
     519A    198.078646  

    Final Occupation by Irrep:
              A 
    DOCC [     5 ]
    NA   [     5 ]
    NB   [     5 ]

  @DF-RHF Final Energy:   -76.05863550304375

   => Energetics <=

    Nuclear Repulsion Energy =              9.0071940127248631
    One-Electron Energy =                -122.7120438451370603
    Two-Electron Energy =                  37.6462143293684477
    Total Energy =                        -76.0586355030437460

Computation Completed


Properties will be evaluated at   0.000000,   0.000000,   0.000000 [a0]

Properties computed using the SCF density matrix


 Multipole Moments:

 ------------------------------------------------------------------------------------
     Multipole            Electronic (a.u.)      Nuclear  (a.u.)        Total (a.u.)
 ------------------------------------------------------------------------------------

 L = 1.  Multiply by 2.5417464519 to convert [e a0] to [Debye]
 Dipole X            :          0.4534482           -0.5350816           -0.0816334
 Dipole Y            :          6.0461611           -5.7895369            0.2566242
 Dipole Z            :         56.9522777          -57.6859384           -0.7336607
 Magnitude           :                                                    0.7815229

 ------------------------------------------------------------------------------------

*** tstop() called on moses-razer at Wed Jan 24 19:02:16 2024
Module time:
	user time   =      42.25 seconds =       0.70 minutes
	system time =       2.43 seconds =       0.04 minutes
	total time  =         12 seconds =       0.20 minutes
Total time:
	user time   =      42.25 seconds =       0.70 minutes
	system time =       2.43 seconds =       0.04 minutes
	total time  =         12 seconds =       0.20 minutes

*** tstart() called on moses-razer
*** at Wed Jan 24 19:02:16 2024


  //>>>>>>>>>>>>>>>>>>>>>>>>>>>>>>>>>>>//
  //               DFMP2               //
  //<<<<<<<<<<<<<<<<<<<<<<<<<<<<<<<<<<<//

   => Loading Basis Set <=

    Name: (AUG-CC-PVTZ AUX)
    Role: RIFIT
    Keyword: DF_BASIS_MP2
    atoms 1                            entry K          line  1282 file /home/kchung25/anaconda3/envs/p415env/share/psi4/basis/def2-qzvpp-ri.gbs 
    atoms 2, 5, 8, 11, 14              entry O          line   264 file /home/kchung25/anaconda3/envs/p415env/share/psi4/basis/aug-cc-pvtz-ri.gbs 
    atoms 3-4, 6-7, 9-10, 12-13, 15-16 entry H          line    30 file /home/kchung25/anaconda3/envs/p415env/share/psi4/basis/aug-cc-pvtz-ri.gbs 

	 --------------------------------------------------------
	                          DF-MP2                         
	      2nd-Order Density-Fitted Moller-Plesset Theory     
	              RMP2 Wavefunction,   6 Threads             
	                                                         
	        Rob Parrish, Justin Turney, Andy Simmonett,      
	           Ed Hohenstein, and C. David Sherrill          
	 --------------------------------------------------------

   => Auxiliary Basis Set <=

  Basis Set: (AUG-CC-PVTZ AUX)
    Blend: AUG-CC-PVTZ-RI + DEF2-QZVPP-RI
    Number of shells: 329
    Number of basis functions: 1189
    Number of Cartesian functions: 1492
    Spherical Harmonics?: true
    Max angular momentum: 4

	 --------------------------------------------------------
	                 NBF =   519, NAUX =  1189
	 --------------------------------------------------------
	   CLASS    FOCC     OCC    AOCC    AVIR     VIR    FVIR
	   PAIRS       0       5       5     514     514       0
	 --------------------------------------------------------

	-----------------------------------------------------------
	 ==================> DF-MP2 Energies <==================== 
	-----------------------------------------------------------
	 Reference Energy          =     -76.0586355030437460 [Eh]
	 Singles Energy            =      -0.0000000000000000 [Eh]
	 Same-Spin Energy          =      -0.0687414679478389 [Eh]
	 Opposite-Spin Energy      =      -0.2167564162212768 [Eh]
	 Correlation Energy        =      -0.2854978841691158 [Eh]
	 Total Energy              =     -76.3441333872128638 [Eh]
	-----------------------------------------------------------
	 ================> DF-SCS-MP2 Energies <================== 
	-----------------------------------------------------------
	 SCS Same-Spin Scale       =       0.3333333333333333 [-]
	 SCS Opposite-Spin Scale   =       1.2000000000000000 [-]
	 SCS Same-Spin Energy      =      -0.0229138226492796 [Eh]
	 SCS Opposite-Spin Energy  =      -0.2601076994655322 [Eh]
	 SCS Correlation Energy    =      -0.2830215221148119 [Eh]
	 SCS Total Energy          =     -76.3416570251585540 [Eh]
	-----------------------------------------------------------


*** tstop() called on moses-razer at Wed Jan 24 19:02:24 2024
Module time:
	user time   =      17.62 seconds =       0.29 minutes
	system time =       1.35 seconds =       0.02 minutes
	total time  =          8 seconds =       0.13 minutes
Total time:
	user time   =      59.87 seconds =       1.00 minutes
	system time =       3.78 seconds =       0.06 minutes
	total time  =         20 seconds =       0.33 minutes

    Psi4 stopped on: Wednesday, 24 January 2024 07:02PM
    Psi4 wall time for execution: 0:00:20.02

*** Psi4 exiting successfully. Buy a developer a beer!
