
    -----------------------------------------------------------------------
          Psi4: An Open-Source Ab Initio Electronic Structure Package
                               Psi4 1.9 release

                         Git: Rev {} zzzzzzz 


    D. G. A. Smith, L. A. Burns, A. C. Simmonett, R. M. Parrish,
    M. C. Schieber, R. Galvelis, P. Kraus, H. Kruse, R. Di Remigio,
    A. Alenaizan, A. M. James, S. Lehtola, J. P. Misiewicz, M. Scheurer,
    R. A. Shaw, J. B. Schriber, Y. Xie, Z. L. Glick, D. A. Sirianni,
    J. S. O'Brien, J. M. Waldrop, A. Kumar, E. G. Hohenstein,
    B. P. Pritchard, B. R. Brooks, H. F. Schaefer III, A. Yu. Sokolov,
    K. Patkowski, A. E. DePrince III, U. Bozkaya, R. A. King,
    F. A. Evangelista, J. M. Turney, T. D. Crawford, C. D. Sherrill,
    J. Chem. Phys. 152(18) 184108 (2020). https://doi.org/10.1063/5.0006002

                            Additional Code Authors
    E. T. Seidl, C. L. Janssen, E. F. Valeev, M. L. Leininger,
    J. F. Gonthier, R. M. Richard, H. R. McAlexander, M. Saitow, X. Wang,
    P. Verma, M. H. Lechner, A. Jiang, S. Behnle, A. G. Heide,
    M. F. Herbst, and D. L. Poole

             Previous Authors, Complete List of Code Contributors,
                       and Citations for Specific Modules
    https://github.com/psi4/psi4/blob/master/codemeta.json
    https://github.com/psi4/psi4/graphs/contributors
    http://psicode.org/psi4manual/master/introduction.html#citing-psifour

    -----------------------------------------------------------------------


    Psi4 started on: Wednesday, 24 January 2024 03:29PM

    Process ID: 1224556
    Host:       moses-razer
    PSIDATADIR: /home/kchung25/anaconda3/envs/psi4_19/share/psi4
    Memory:     500.0 MiB
    Threads:    6
    
  ==> Input File <==

--------------------------------------------------------------------------
MEMORY 60 GB

molecule dimer {
0 1
Gh(K)      0.000000     0.000000     0.000000
Gh(O)      1.573041     1.595164    -1.828830
Gh(H)      1.782496     2.427484    -1.472982
Gh(H)      2.404379     1.442044    -2.240169
Gh(O)      2.542675    -0.726399     0.160104
Gh(H)      2.495524    -0.827647    -0.784085
Gh(H)      2.947300    -1.512593     0.461683
Gh(O)     -0.696117    -1.387787     2.142827
Gh(H)     -1.572201    -1.578739     1.777997
Gh(H)     -0.721888    -1.146147     3.057868
O         -2.445245    -1.000611    -0.272942
H         -2.636754    -1.958729    -0.204424
H         -3.151468    -0.659976    -0.827128
Gh(O)     -1.095844     1.180662    -2.400144
Gh(H)     -0.169066     1.239994    -2.615175
Gh(H)     -1.309802     0.269347    -2.619630

units ang
no_reorient
no_com
symmetry c1
}

set {
basis        aug-cc-pVTZ
scf_type     df
}

energy("mp2")
--------------------------------------------------------------------------

  Memory set to  55.879 GiB by Python driver.

Scratch directory: /scratch/
   => Libint2 <=

    Primary   basis highest AM E, G, H:  5, 4, 3
    Auxiliary basis highest AM E, G, H:  6, 5, 4
    Onebody   basis highest AM E, G, H:  6, 5, 4
    Solid Harmonics ordering:            gaussian

*** tstart() called on moses-razer
*** at Wed Jan 24 15:29:52 2024

   => Loading Basis Set <=

    Name: AUG-CC-PVTZ
    Role: ORBITAL
    Keyword: BASIS
    atoms 1                            entry K          line  1152 file /home/kchung25/anaconda3/envs/p415env/share/psi4/basis/aug-cc-pvtz.gbs 
    atoms 2, 5, 8, 11, 14              entry O          line   331 file /home/kchung25/anaconda3/envs/p415env/share/psi4/basis/aug-cc-pvtz.gbs 
    atoms 3-4, 6-7, 9-10, 12-13, 15-16 entry H          line    40 file /home/kchung25/anaconda3/envs/p415env/share/psi4/basis/aug-cc-pvtz.gbs 


         ---------------------------------------------------------
                                   SCF
               by Justin Turney, Rob Parrish, Andy Simmonett
                          and Daniel G. A. Smith
                              RHF Reference
                        6 Threads,  57220 MiB Core
         ---------------------------------------------------------

  ==> Geometry <==

    Molecular point group: c1
    Full point group: C1

    Geometry (in Angstrom), charge = 0, multiplicity = 1:

       Center              X                  Y                   Z               Mass       
    ------------   -----------------  -----------------  -----------------  -----------------
      Gh(K)           0.000000000000     0.000000000000     0.000000000000    38.963706486400
      Gh(O)           1.573041000000     1.595164000000    -1.828830000000    15.994914619570
      Gh(H)           1.782496000000     2.427484000000    -1.472982000000     1.007825032230
      Gh(H)           2.404379000000     1.442044000000    -2.240169000000     1.007825032230
      Gh(O)           2.542675000000    -0.726399000000     0.160104000000    15.994914619570
      Gh(H)           2.495524000000    -0.827647000000    -0.784085000000     1.007825032230
      Gh(H)           2.947300000000    -1.512593000000     0.461683000000     1.007825032230
      Gh(O)          -0.696117000000    -1.387787000000     2.142827000000    15.994914619570
      Gh(H)          -1.572201000000    -1.578739000000     1.777997000000     1.007825032230
      Gh(H)          -0.721888000000    -1.146147000000     3.057868000000     1.007825032230
         O           -2.445245000000    -1.000611000000    -0.272942000000    15.994914619570
         H           -2.636754000000    -1.958729000000    -0.204424000000     1.007825032230
         H           -3.151468000000    -0.659976000000    -0.827128000000     1.007825032230
      Gh(O)          -1.095844000000     1.180662000000    -2.400144000000    15.994914619570
      Gh(H)          -0.169066000000     1.239994000000    -2.615175000000     1.007825032230
      Gh(H)          -1.309802000000     0.269347000000    -2.619630000000     1.007825032230

  Running in c1 symmetry.

  Rotational constants: A =      0.05324  B =      0.04029  C =      0.02487 [cm^-1]
  Rotational constants: A =   1596.19955  B =   1207.78450  C =    745.67334 [MHz]
  Nuclear repulsion =    9.077208210183224

  Charge       = 0
  Multiplicity = 1
  Electrons    = 10
  Nalpha       = 5
  Nbeta        = 5

  ==> Algorithm <==

  SCF Algorithm Type is DF.
  DIIS enabled.
  MOM disabled.
  Fractional occupation disabled.
  Guess Type is SAD.
  Energy threshold   = 1.00e-08
  Density threshold  = 1.00e-08
  Integral threshold = 1.00e-12

  ==> Primary Basis <==

  Basis Set: AUG-CC-PVTZ
    Blend: AUG-CC-PVTZ
    Number of shells: 179
    Number of basis functions: 519
    Number of Cartesian functions: 594
    Spherical Harmonics?: true
    Max angular momentum: 3

   => Loading Basis Set <=

    Name: (AUG-CC-PVTZ AUX)
    Role: JKFIT
    Keyword: DF_BASIS_SCF
    atoms 1                            entry K          line  1152 file /home/kchung25/anaconda3/envs/p415env/share/psi4/basis/def2-universal-jkfit.gbs 
    atoms 2, 5, 8, 11, 14              entry O          line   286 file /home/kchung25/anaconda3/envs/p415env/share/psi4/basis/aug-cc-pvtz-jkfit.gbs 
    atoms 3-4, 6-7, 9-10, 12-13, 15-16 entry H          line    70 file /home/kchung25/anaconda3/envs/p415env/share/psi4/basis/aug-cc-pvtz-jkfit.gbs 

  ==> Integral Setup <==

  DFHelper Memory: AOs need 2.097 GiB; user supplied 41.910 GiB. 
  Using in-core AOs.

  ==> MemDFJK: Density-Fitted J/K Matrices <==

    J tasked:                   Yes
    K tasked:                   Yes
    wK tasked:                   No
    OpenMP threads:               6
    Memory [MiB]:             42915
    Algorithm:                 Core
    Schwarz Cutoff:           1E-12
    Mask sparsity (%):      11.6387
    Fitting Condition:        1E-10

   => Auxiliary Basis Set <=

  Basis Set: (AUG-CC-PVTZ AUX)
    Blend: AUG-CC-PVTZ-JKFIT + DEF2-UNIVERSAL-JKFIT
    Number of shells: 334
    Number of basis functions: 1140
    Number of Cartesian functions: 1408
    Spherical Harmonics?: true
    Max angular momentum: 4

  Minimum eigenvalue in the overlap matrix is 3.2420201524E-05.
  Reciprocal condition number of the overlap matrix is 2.3097264286E-06.
    Using symmetric orthogonalization.

  ==> Pre-Iterations <==

  SCF Guess: Superposition of Atomic Densities via on-the-fly atomic UHF (no occupation information).

   -------------------------
    Irrep   Nso     Nmo    
   -------------------------
     A        519     519 
   -------------------------
    Total     519     519
   -------------------------

  ==> Iterations <==

                           Total Energy        Delta E     RMS |[F,P]|

   @DF-RHF iter SAD:   -75.46381950434005   -7.54638e+01   0.00000e+00 
   @DF-RHF iter   1:   -75.97449091687733   -5.10671e-01   9.01181e-04 ADIIS/DIIS
   @DF-RHF iter   2:   -76.02668048544434   -5.21896e-02   6.21724e-04 ADIIS/DIIS
   @DF-RHF iter   3:   -76.05894592605613   -3.22654e-02   4.23313e-05 DIIS
   @DF-RHF iter   4:   -76.05935046061965   -4.04535e-04   1.03703e-05 DIIS
   @DF-RHF iter   5:   -76.05937716982612   -2.67092e-05   2.38468e-06 DIIS
   @DF-RHF iter   6:   -76.05937940041099   -2.23058e-06   5.23562e-07 DIIS
   @DF-RHF iter   7:   -76.05937951791428   -1.17503e-07   9.34430e-08 DIIS
   @DF-RHF iter   8:   -76.05937952118070   -3.26642e-09   1.58643e-08 DIIS
   @DF-RHF iter   9:   -76.05937952125585   -7.51470e-11   3.98714e-09 DIIS
  Energy and wave function converged.


  ==> Post-Iterations <==

    Orbital Energies [Eh]
    ---------------------

    Doubly Occupied:                                                      

       1A    -20.569438     2A     -1.347488     3A     -0.710165  
       4A     -0.583245     5A     -0.509423  

    Virtual:                                                              

       6A      0.006811     7A      0.009680     8A      0.010001  
       9A      0.010958    10A      0.017901    11A      0.018075  
      12A      0.018510    13A      0.018836    14A      0.019301  
      15A      0.032123    16A      0.034685    17A      0.036744  
      18A      0.040267    19A      0.054942    20A      0.057924  
      21A      0.060411    22A      0.061464    23A      0.063425  
      24A      0.072359    25A      0.073459    26A      0.075950  
      27A      0.079447    28A      0.080368    29A      0.083105  
      30A      0.089256    31A      0.090447    32A      0.099849  
      33A      0.102332    34A      0.108436    35A      0.110192  
      36A      0.124443    37A      0.134562    38A      0.148577  
      39A      0.153409    40A      0.156631    41A      0.162396  
      42A      0.168338    43A      0.174137    44A      0.179805  
      45A      0.183425    46A      0.187485    47A      0.189839  
      48A      0.191996    49A      0.200135    50A      0.202724  
      51A      0.207573    52A      0.216600    53A      0.218433  
      54A      0.224526    55A      0.226770    56A      0.231722  
      57A      0.240665    58A      0.247277    59A      0.251283  
      60A      0.259151    61A      0.264852    62A      0.265933  
      63A      0.271758    64A      0.285110    65A      0.290905  
      66A      0.294490    67A      0.297928    68A      0.311945  
      69A      0.324290    70A      0.336200    71A      0.340804  
      72A      0.344327    73A      0.349273    74A      0.355930  
      75A      0.362542    76A      0.365967    77A      0.371382  
      78A      0.377049    79A      0.382182    80A      0.389954  
      81A      0.393871    82A      0.399257    83A      0.407981  
      84A      0.413303    85A      0.416331    86A      0.420004  
      87A      0.424953    88A      0.435113    89A      0.438274  
      90A      0.446350    91A      0.449225    92A      0.454101  
      93A      0.457273    94A      0.461432    95A      0.467353  
      96A      0.471509    97A      0.482340    98A      0.485800  
      99A      0.489177   100A      0.490827   101A      0.498064  
     102A      0.504359   103A      0.516463   104A      0.519424  
     105A      0.525521   106A      0.527229   107A      0.534599  
     108A      0.541621   109A      0.554580   110A      0.570590  
     111A      0.579587   112A      0.588839   113A      0.591138  
     114A      0.601880   115A      0.608337   116A      0.614129  
     117A      0.628868   118A      0.643504   119A      0.656466  
     120A      0.705403   121A      0.717998   122A      0.737404  
     123A      0.752347   124A      0.756932   125A      0.765198  
     126A      0.774016   127A      0.783196   128A      0.786904  
     129A      0.800834   130A      0.811707   131A      0.814377  
     132A      0.819411   133A      0.826767   134A      0.838284  
     135A      0.846744   136A      0.859923   137A      0.866972  
     138A      0.873248   139A      0.876012   140A      0.883298  
     141A      0.892459   142A      0.895917   143A      0.899353  
     144A      0.903508   145A      0.915602   146A      0.920490  
     147A      0.926057   148A      0.927646   149A      0.937580  
     150A      0.943350   151A      0.952521   152A      0.953018  
     153A      0.960394   154A      0.969031   155A      0.977052  
     156A      0.980987   157A      0.982607   158A      0.997313  
     159A      1.003159   160A      1.005695   161A      1.025956  
     162A      1.030637   163A      1.034407   164A      1.041122  
     165A      1.047377   166A      1.059782   167A      1.064499  
     168A      1.073892   169A      1.084722   170A      1.098245  
     171A      1.100885   172A      1.108355   173A      1.111725  
     174A      1.116683   175A      1.126098   176A      1.139717  
     177A      1.141951   178A      1.143713   179A      1.152924  
     180A      1.157025   181A      1.168385   182A      1.171405  
     183A      1.189312   184A      1.197604   185A      1.201737  
     186A      1.207830   187A      1.217530   188A      1.223676  
     189A      1.225497   190A      1.233546   191A      1.237254  
     192A      1.248481   193A      1.250856   194A      1.273194  
     195A      1.285759   196A      1.289771   197A      1.301544  
     198A      1.314938   199A      1.320930   200A      1.326855  
     201A      1.344717   202A      1.345181   203A      1.357306  
     204A      1.376491   205A      1.385400   206A      1.404361  
     207A      1.410725   208A      1.430910   209A      1.465181  
     210A      1.474267   211A      1.490871   212A      1.495676  
     213A      1.504773   214A      1.527865   215A      1.555687  
     216A      1.579702   217A      1.585951   218A      1.602136  
     219A      1.642223   220A      1.646215   221A      1.659091  
     222A      1.668825   223A      1.674962   224A      1.685732  
     225A      1.712340   226A      1.721263   227A      1.756063  
     228A      1.773213   229A      1.800365   230A      1.804014  
     231A      1.811811   232A      1.827270   233A      1.835349  
     234A      1.842242   235A      1.854971   236A      1.856829  
     237A      1.874546   238A      1.881049   239A      1.886718  
     240A      1.900435   241A      1.912277   242A      1.923466  
     243A      1.955291   244A      1.987738   245A      1.990861  
     246A      2.001761   247A      2.016413   248A      2.043768  
     249A      2.064475   250A      2.116362   251A      2.139377  
     252A      2.145511   253A      2.157602   254A      2.192179  
     255A      2.211159   256A      2.246935   257A      2.320005  
     258A      2.353757   259A      2.376232   260A      2.410549  
     261A      2.423229   262A      2.430023   263A      2.434358  
     264A      2.463243   265A      2.465978   266A      2.482028  
     267A      2.499995   268A      2.516773   269A      2.529274  
     270A      2.538320   271A      2.545005   272A      2.576052  
     273A      2.580475   274A      2.590026   275A      2.596753  
     276A      2.604509   277A      2.618359   278A      2.621999  
     279A      2.629851   280A      2.636390   281A      2.660322  
     282A      2.665965   283A      2.673814   284A      2.695465  
     285A      2.710135   286A      2.720796   287A      2.751170  
     288A      2.765584   289A      2.774172   290A      2.783884  
     291A      2.787154   292A      2.791834   293A      2.811308  
     294A      2.834665   295A      2.840004   296A      2.847914  
     297A      2.872144   298A      2.897054   299A      2.903721  
     300A      2.911351   301A      2.954948   302A      2.962088  
     303A      2.968627   304A      2.982151   305A      2.997953  
     306A      3.023859   307A      3.052606   308A      3.074937  
     309A      3.132941   310A      3.146762   311A      3.196071  
     312A      3.216905   313A      3.254535   314A      3.257521  
     315A      3.272589   316A      3.281014   317A      3.309989  
     318A      3.319696   319A      3.336330   320A      3.351629  
     321A      3.355430   322A      3.379886   323A      3.392303  
     324A      3.410793   325A      3.433641   326A      3.470868  
     327A      3.471693   328A      3.477238   329A      3.491126  
     330A      3.533125   331A      3.563401   332A      3.617857  
     333A      3.633196   334A      3.664965   335A      3.685996  
     336A      3.745815   337A      3.757079   338A      3.772795  
     339A      3.800238   340A      3.817862   341A      3.907692  
     342A      3.948830   343A      4.131092   344A      4.255011  
     345A      4.277191   346A      4.333163   347A      4.394275  
     348A      4.433028   349A      4.443892   350A      4.468619  
     351A      4.478981   352A      4.494152   353A      4.522067  
     354A      4.529233   355A      4.539045   356A      4.549699  
     357A      4.564195   358A      4.566051   359A      4.594124  
     360A      4.598279   361A      4.611530   362A      4.632836  
     363A      4.649588   364A      4.683785   365A      4.696833  
     366A      4.711012   367A      4.738059   368A      4.756813  
     369A      4.767676   370A      4.782377   371A      4.793658  
     372A      4.812107   373A      4.836029   374A      4.864648  
     375A      4.880607   376A      4.912570   377A      4.925361  
     378A      4.945555   379A      4.961029   380A      4.970898  
     381A      4.985473   382A      4.986935   383A      5.021345  
     384A      5.041010   385A      5.068111   386A      5.118054  
     387A      5.147404   388A      5.187913   389A      5.198394  
     390A      5.212191   391A      5.217949   392A      5.278083  
     393A      5.288497   394A      5.320720   395A      5.346691  
     396A      5.372185   397A      5.398644   398A      5.542326  
     399A      5.590985   400A      5.629288   401A      5.643392  
     402A      5.649293   403A      5.669421   404A      5.689009  
     405A      5.743030   406A      5.760996   407A      5.774657  
     408A      5.778830   409A      5.806114   410A      5.841822  
     411A      5.843164   412A      5.856740   413A      5.935865  
     414A      5.980739   415A      6.062582   416A      6.195161  
     417A      6.201536   418A      6.221341   419A      6.262452  
     420A      6.311774   421A      6.389081   422A      6.482154  
     423A      6.487619   424A      6.529947   425A      6.652640  
     426A      6.724803   427A      6.778117   428A      6.792393  
     429A      6.891684   430A      6.945260   431A      6.951390  
     432A      7.148160   433A      7.153952   434A      7.189660  
     435A      7.202978   436A      7.270243   437A      7.321607  
     438A      7.331772   439A      7.392983   440A      7.443389  
     441A      7.461852   442A      7.659454   443A      7.728628  
     444A      7.760736   445A      7.777223   446A      7.788528  
     447A      7.867980   448A      7.897057   449A      7.905102  
     450A      7.913996   451A      7.981173   452A      8.045443  
     453A      8.116469   454A      8.127572   455A      8.165920  
     456A      8.179332   457A      8.195933   458A      8.244478  
     459A      8.259609   460A      8.301260   461A      8.351035  
     462A      8.352672   463A      8.398352   464A      8.434285  
     465A      8.823536   466A      8.831128   467A      8.860352  
     468A      8.881976   469A      8.947325   470A      8.953821  
     471A      8.999787   472A      9.014379   473A      9.065135  
     474A      9.786822   475A      9.817611   476A      9.825062  
     477A      9.932072   478A      9.951055   479A      9.957827  
     480A      9.969261   481A     10.042441   482A     10.071956  
     483A     10.082460   484A     10.098628   485A     10.143579  
     486A     10.266327   487A     10.273167   488A     10.311097  
     489A     10.321889   490A     10.478655   491A     11.184575  
     492A     11.300742   493A     11.367397   494A     11.515858  
     495A     11.755287   496A     11.768179   497A     11.865424  
     498A     11.924711   499A     12.283095   500A     12.301129  
     501A     12.388223   502A     12.813301   503A     13.657036  
     504A     13.720088   505A     13.748730   506A     13.854502  
     507A     13.884849   508A     13.905236   509A     13.944757  
     510A     13.995028   511A     15.736147   512A     30.653223  
     513A     31.206599   514A     31.582967   515A     65.749480  
     516A     66.282408   517A     66.561804   518A     67.602146  
     519A    198.212646  

    Final Occupation by Irrep:
              A 
    DOCC [     5 ]
    NA   [     5 ]
    NB   [     5 ]

  @DF-RHF Final Energy:   -76.05937952125585

   => Energetics <=

    Nuclear Repulsion Energy =              9.0772082101832243
    One-Electron Energy =                -122.8336551658326954
    Two-Electron Energy =                  37.6970674343936167
    Total Energy =                        -76.0593795212558490

Computation Completed


Properties will be evaluated at   0.000000,   0.000000,   0.000000 [a0]

Properties computed using the SCF density matrix


 Multipole Moments:

 ------------------------------------------------------------------------------------
     Multipole            Electronic (a.u.)      Nuclear  (a.u.)        Total (a.u.)
 ------------------------------------------------------------------------------------

 L = 1.  Multiply by 2.5417464519 to convert [e a0] to [Debye]
 Dipole X            :         47.3119037          -47.9049012           -0.5929976
 Dipole Y            :         19.6715389          -20.0756812           -0.4041423
 Dipole Z            :          5.7542350           -6.0756358           -0.3214008
 Magnitude           :                                                    0.7863051

 ------------------------------------------------------------------------------------

*** tstop() called on moses-razer at Wed Jan 24 15:30:04 2024
Module time:
	user time   =      44.32 seconds =       0.74 minutes
	system time =       2.51 seconds =       0.04 minutes
	total time  =         12 seconds =       0.20 minutes
Total time:
	user time   =      44.32 seconds =       0.74 minutes
	system time =       2.51 seconds =       0.04 minutes
	total time  =         12 seconds =       0.20 minutes

*** tstart() called on moses-razer
*** at Wed Jan 24 15:30:04 2024


  //>>>>>>>>>>>>>>>>>>>>>>>>>>>>>>>>>>>//
  //               DFMP2               //
  //<<<<<<<<<<<<<<<<<<<<<<<<<<<<<<<<<<<//

   => Loading Basis Set <=

    Name: (AUG-CC-PVTZ AUX)
    Role: RIFIT
    Keyword: DF_BASIS_MP2
    atoms 1                            entry K          line  1282 file /home/kchung25/anaconda3/envs/p415env/share/psi4/basis/def2-qzvpp-ri.gbs 
    atoms 2, 5, 8, 11, 14              entry O          line   264 file /home/kchung25/anaconda3/envs/p415env/share/psi4/basis/aug-cc-pvtz-ri.gbs 
    atoms 3-4, 6-7, 9-10, 12-13, 15-16 entry H          line    30 file /home/kchung25/anaconda3/envs/p415env/share/psi4/basis/aug-cc-pvtz-ri.gbs 

	 --------------------------------------------------------
	                          DF-MP2                         
	      2nd-Order Density-Fitted Moller-Plesset Theory     
	              RMP2 Wavefunction,   6 Threads             
	                                                         
	        Rob Parrish, Justin Turney, Andy Simmonett,      
	           Ed Hohenstein, and C. David Sherrill          
	 --------------------------------------------------------

   => Auxiliary Basis Set <=

  Basis Set: (AUG-CC-PVTZ AUX)
    Blend: AUG-CC-PVTZ-RI + DEF2-QZVPP-RI
    Number of shells: 329
    Number of basis functions: 1189
    Number of Cartesian functions: 1492
    Spherical Harmonics?: true
    Max angular momentum: 4

	 --------------------------------------------------------
	                 NBF =   519, NAUX =  1189
	 --------------------------------------------------------
	   CLASS    FOCC     OCC    AOCC    AVIR     VIR    FVIR
	   PAIRS       0       5       5     514     514       0
	 --------------------------------------------------------

	-----------------------------------------------------------
	 ==================> DF-MP2 Energies <==================== 
	-----------------------------------------------------------
	 Reference Energy          =     -76.0593795212558490 [Eh]
	 Singles Energy            =      -0.0000000000000000 [Eh]
	 Same-Spin Energy          =      -0.0686242219323569 [Eh]
	 Opposite-Spin Energy      =      -0.2163839826393282 [Eh]
	 Correlation Energy        =      -0.2850082045716851 [Eh]
	 Total Energy              =     -76.3443877258275307 [Eh]
	-----------------------------------------------------------
	 ================> DF-SCS-MP2 Energies <================== 
	-----------------------------------------------------------
	 SCS Same-Spin Scale       =       0.3333333333333333 [-]
	 SCS Opposite-Spin Scale   =       1.2000000000000000 [-]
	 SCS Same-Spin Energy      =      -0.0228747406441190 [Eh]
	 SCS Opposite-Spin Energy  =      -0.2596607791671939 [Eh]
	 SCS Correlation Energy    =      -0.2825355198113129 [Eh]
	 SCS Total Energy          =     -76.3419150410671676 [Eh]
	-----------------------------------------------------------


*** tstop() called on moses-razer at Wed Jan 24 15:30:12 2024
Module time:
	user time   =      18.16 seconds =       0.30 minutes
	system time =       1.40 seconds =       0.02 minutes
	total time  =          8 seconds =       0.13 minutes
Total time:
	user time   =      62.49 seconds =       1.04 minutes
	system time =       3.91 seconds =       0.07 minutes
	total time  =         20 seconds =       0.33 minutes

    Psi4 stopped on: Wednesday, 24 January 2024 03:30PM
    Psi4 wall time for execution: 0:00:20.93

*** Psi4 exiting successfully. Buy a developer a beer!
