
    -----------------------------------------------------------------------
          Psi4: An Open-Source Ab Initio Electronic Structure Package
                               Psi4 1.9 release

                         Git: Rev {} zzzzzzz 


    D. G. A. Smith, L. A. Burns, A. C. Simmonett, R. M. Parrish,
    M. C. Schieber, R. Galvelis, P. Kraus, H. Kruse, R. Di Remigio,
    A. Alenaizan, A. M. James, S. Lehtola, J. P. Misiewicz, M. Scheurer,
    R. A. Shaw, J. B. Schriber, Y. Xie, Z. L. Glick, D. A. Sirianni,
    J. S. O'Brien, J. M. Waldrop, A. Kumar, E. G. Hohenstein,
    B. P. Pritchard, B. R. Brooks, H. F. Schaefer III, A. Yu. Sokolov,
    K. Patkowski, A. E. DePrince III, U. Bozkaya, R. A. King,
    F. A. Evangelista, J. M. Turney, T. D. Crawford, C. D. Sherrill,
    J. Chem. Phys. 152(18) 184108 (2020). https://doi.org/10.1063/5.0006002

                            Additional Code Authors
    E. T. Seidl, C. L. Janssen, E. F. Valeev, M. L. Leininger,
    J. F. Gonthier, R. M. Richard, H. R. McAlexander, M. Saitow, X. Wang,
    P. Verma, M. H. Lechner, A. Jiang, S. Behnle, A. G. Heide,
    M. F. Herbst, and D. L. Poole

             Previous Authors, Complete List of Code Contributors,
                       and Citations for Specific Modules
    https://github.com/psi4/psi4/blob/master/codemeta.json
    https://github.com/psi4/psi4/graphs/contributors
    http://psicode.org/psi4manual/master/introduction.html#citing-psifour

    -----------------------------------------------------------------------


    Psi4 started on: Wednesday, 24 January 2024 07:51PM

    Process ID: 1249609
    Host:       moses-razer
    PSIDATADIR: /home/kchung25/anaconda3/envs/psi4_19/share/psi4
    Memory:     500.0 MiB
    Threads:    6
    
  ==> Input File <==

--------------------------------------------------------------------------
MEMORY 60 GB

molecule dimer {
1 1
K          0.000000     0.000000     0.000000
Gh(O)      2.210706     1.169674     1.148820
Gh(H)      2.542276     0.564502     1.883025
Gh(H)      2.469189     2.058712     1.390268
Gh(O)     -0.157161     0.568570    -2.648263
Gh(H)      0.654664     1.115551    -2.877620
Gh(H)     -0.061308    -0.316781    -3.128151
Gh(O)      1.720062    -1.820533    -1.495334
Gh(H)      1.720440    -2.330188    -2.342644
Gh(H)      2.311599    -2.331956    -0.890084
Gh(O)     -1.760100     1.823148     0.416399
Gh(H)     -1.645011     2.388567     1.190595
Gh(H)     -1.171767     2.247211    -0.232701
Gh(O)      0.101240    -2.179944     1.333505
Gh(H)     -0.422830    -2.543391     0.610743
Gh(H)      1.012164    -2.546319     1.146336

units ang
no_reorient
no_com
symmetry c1
}

set {
basis        aug-cc-pVTZ
scf_type     df
}

energy("mp2")
--------------------------------------------------------------------------

  Memory set to  55.879 GiB by Python driver.

Scratch directory: /scratch/
   => Libint2 <=

    Primary   basis highest AM E, G, H:  5, 4, 3
    Auxiliary basis highest AM E, G, H:  6, 5, 4
    Onebody   basis highest AM E, G, H:  6, 5, 4
    Solid Harmonics ordering:            gaussian

*** tstart() called on moses-razer
*** at Wed Jan 24 19:51:37 2024

   => Loading Basis Set <=

    Name: AUG-CC-PVTZ
    Role: ORBITAL
    Keyword: BASIS
    atoms 1                            entry K          line  1152 file /home/kchung25/anaconda3/envs/p415env/share/psi4/basis/aug-cc-pvtz.gbs 
    atoms 2, 5, 8, 11, 14              entry O          line   331 file /home/kchung25/anaconda3/envs/p415env/share/psi4/basis/aug-cc-pvtz.gbs 
    atoms 3-4, 6-7, 9-10, 12-13, 15-16 entry H          line    40 file /home/kchung25/anaconda3/envs/p415env/share/psi4/basis/aug-cc-pvtz.gbs 


         ---------------------------------------------------------
                                   SCF
               by Justin Turney, Rob Parrish, Andy Simmonett
                          and Daniel G. A. Smith
                              RHF Reference
                        6 Threads,  57220 MiB Core
         ---------------------------------------------------------

  ==> Geometry <==

    Molecular point group: c1
    Full point group: C1

    Geometry (in Angstrom), charge = 1, multiplicity = 1:

       Center              X                  Y                   Z               Mass       
    ------------   -----------------  -----------------  -----------------  -----------------
         K            0.000000000000     0.000000000000     0.000000000000    38.963706486400
      Gh(O)           2.210706000000     1.169674000000     1.148820000000    15.994914619570
      Gh(H)           2.542276000000     0.564502000000     1.883025000000     1.007825032230
      Gh(H)           2.469189000000     2.058712000000     1.390268000000     1.007825032230
      Gh(O)          -0.157161000000     0.568570000000    -2.648263000000    15.994914619570
      Gh(H)           0.654664000000     1.115551000000    -2.877620000000     1.007825032230
      Gh(H)          -0.061308000000    -0.316781000000    -3.128151000000     1.007825032230
      Gh(O)           1.720062000000    -1.820533000000    -1.495334000000    15.994914619570
      Gh(H)           1.720440000000    -2.330188000000    -2.342644000000     1.007825032230
      Gh(H)           2.311599000000    -2.331956000000    -0.890084000000     1.007825032230
      Gh(O)          -1.760100000000     1.823148000000     0.416399000000    15.994914619570
      Gh(H)          -1.645011000000     2.388567000000     1.190595000000     1.007825032230
      Gh(H)          -1.171767000000     2.247211000000    -0.232701000000     1.007825032230
      Gh(O)           0.101240000000    -2.179944000000     1.333505000000    15.994914619570
      Gh(H)          -0.422830000000    -2.543391000000     0.610743000000     1.007825032230
      Gh(H)           1.012164000000    -2.546319000000     1.146336000000     1.007825032230

  Running in c1 symmetry.

  Rotational constants: A =      0.04455  B =      0.03709  C =      0.03128 [cm^-1]
  Rotational constants: A =   1335.72130  B =   1111.88920  C =    937.63705 [MHz]
  Nuclear repulsion =    0.000000000000000

  Charge       = 1
  Multiplicity = 1
  Electrons    = 18
  Nalpha       = 9
  Nbeta        = 9

  ==> Algorithm <==

  SCF Algorithm Type is DF.
  DIIS enabled.
  MOM disabled.
  Fractional occupation disabled.
  Guess Type is SAD.
  Energy threshold   = 1.00e-08
  Density threshold  = 1.00e-08
  Integral threshold = 1.00e-12

  ==> Primary Basis <==

  Basis Set: AUG-CC-PVTZ
    Blend: AUG-CC-PVTZ
    Number of shells: 179
    Number of basis functions: 519
    Number of Cartesian functions: 594
    Spherical Harmonics?: true
    Max angular momentum: 3

   => Loading Basis Set <=

    Name: (AUG-CC-PVTZ AUX)
    Role: JKFIT
    Keyword: DF_BASIS_SCF
    atoms 1                            entry K          line  1152 file /home/kchung25/anaconda3/envs/p415env/share/psi4/basis/def2-universal-jkfit.gbs 
    atoms 2, 5, 8, 11, 14              entry O          line   286 file /home/kchung25/anaconda3/envs/p415env/share/psi4/basis/aug-cc-pvtz-jkfit.gbs 
    atoms 3-4, 6-7, 9-10, 12-13, 15-16 entry H          line    70 file /home/kchung25/anaconda3/envs/p415env/share/psi4/basis/aug-cc-pvtz-jkfit.gbs 

  ==> Integral Setup <==

  DFHelper Memory: AOs need 2.120 GiB; user supplied 41.910 GiB. 
  Using in-core AOs.

  ==> MemDFJK: Density-Fitted J/K Matrices <==

    J tasked:                   Yes
    K tasked:                   Yes
    wK tasked:                   No
    OpenMP threads:               6
    Memory [MiB]:             42915
    Algorithm:                 Core
    Schwarz Cutoff:           1E-12
    Mask sparsity (%):      10.6556
    Fitting Condition:        1E-10

   => Auxiliary Basis Set <=

  Basis Set: (AUG-CC-PVTZ AUX)
    Blend: AUG-CC-PVTZ-JKFIT + DEF2-UNIVERSAL-JKFIT
    Number of shells: 334
    Number of basis functions: 1140
    Number of Cartesian functions: 1408
    Spherical Harmonics?: true
    Max angular momentum: 4

  Minimum eigenvalue in the overlap matrix is 5.5637357666E-05.
  Reciprocal condition number of the overlap matrix is 4.0250606550E-06.
    Using symmetric orthogonalization.

  ==> Pre-Iterations <==

  SCF Guess: Superposition of Atomic Densities via on-the-fly atomic UHF (no occupation information).

   -------------------------
    Irrep   Nso     Nmo    
   -------------------------
     A        519     519 
   -------------------------
    Total     519     519
   -------------------------

  ==> Iterations <==

                           Total Energy        Delta E     RMS |[F,P]|

   @DF-RHF iter SAD:  -599.05179901581687   -5.99052e+02   0.00000e+00 
   @DF-RHF iter   1:  -599.01745908433304    3.43399e-02   2.15440e-05 DIIS
   @DF-RHF iter   2:  -599.01751516887362   -5.60845e-05   2.43338e-06 DIIS
   @DF-RHF iter   3:  -599.01751644703404   -1.27816e-06   4.26604e-07 DIIS
   @DF-RHF iter   4:  -599.01751647681647   -2.97824e-08   2.53107e-08 DIIS
   @DF-RHF iter   5:  -599.01751647694221   -1.25738e-10   4.69101e-09 DIIS
  Energy and wave function converged.


  ==> Post-Iterations <==

    Orbital Energies [Eh]
    ---------------------

    Doubly Occupied:                                                      

       1A   -133.752539     2A    -14.708229     3A    -11.738291  
       4A    -11.738288     5A    -11.738288     6A     -1.963897  
       7A     -1.170613     8A     -1.170597     9A     -1.170576  

    Virtual:                                                              

      10A     -0.146958    11A     -0.095556    12A     -0.095552  
      13A     -0.095550    14A     -0.060664    15A     -0.057985  
      16A     -0.057967    17A     -0.057953    18A     -0.057932  
      19A     -0.057901    20A     -0.045542    21A     -0.045539  
      22A     -0.045537    23A     -0.031382    24A     -0.031334  
      25A     -0.031312    26A     -0.031302    27A     -0.031262  
      28A     -0.019223    29A     -0.018886    30A     -0.018222  
      31A     -0.017190    32A     -0.015166    33A     -0.013961  
      34A     -0.011433    35A     -0.009231    36A     -0.006315  
      37A     -0.005214    38A     -0.000250    39A      0.005258  
      40A      0.006951    41A      0.009287    42A      0.010938  
      43A      0.011691    44A      0.025288    45A      0.029851  
      46A      0.036262    47A      0.038336    48A      0.046858  
      49A      0.050952    50A      0.053299    51A      0.057006  
      52A      0.059838    53A      0.060209    54A      0.074617  
      55A      0.080969    56A      0.082912    57A      0.087288  
      58A      0.090740    59A      0.092363    60A      0.099254  
      61A      0.099634    62A      0.102007    63A      0.103461  
      64A      0.107724    65A      0.119730    66A      0.124821  
      67A      0.128251    68A      0.132654    69A      0.140580  
      70A      0.146218    71A      0.149865    72A      0.160666  
      73A      0.171724    74A      0.179708    75A      0.185334  
      76A      0.187970    77A      0.197299    78A      0.202554  
      79A      0.207016    80A      0.212345    81A      0.214664  
      82A      0.221425    83A      0.224963    84A      0.231909  
      85A      0.235640    86A      0.240160    87A      0.243553  
      88A      0.250281    89A      0.255179    90A      0.268543  
      91A      0.270896    92A      0.276004    93A      0.277955  
      94A      0.281430    95A      0.283603    96A      0.292563  
      97A      0.297085    98A      0.301370    99A      0.307052  
     100A      0.311875   101A      0.316483   102A      0.321675  
     103A      0.327346   104A      0.329559   105A      0.332486  
     106A      0.337719   107A      0.340965   108A      0.343701  
     109A      0.348517   110A      0.356746   111A      0.358314  
     112A      0.364622   113A      0.375980   114A      0.381654  
     115A      0.384959   116A      0.387959   117A      0.391044  
     118A      0.405067   119A      0.411205   120A      0.415923  
     121A      0.429099   122A      0.434130   123A      0.439369  
     124A      0.447178   125A      0.458026   126A      0.461830  
     127A      0.473720   128A      0.509884   129A      0.548085  
     130A      0.571033   131A      0.576680   132A      0.584676  
     133A      0.594575   134A      0.605677   135A      0.610531  
     136A      0.628314   137A      0.639021   138A      0.644915  
     139A      0.654301   140A      0.661144   141A      0.668483  
     142A      0.677927   143A      0.686849   144A      0.696553  
     145A      0.706693   146A      0.710099   147A      0.715692  
     148A      0.717873   149A      0.719527   150A      0.727433  
     151A      0.735364   152A      0.740835   153A      0.744627  
     154A      0.747701   155A      0.758958   156A      0.764894  
     157A      0.771598   158A      0.776328   159A      0.780378  
     160A      0.787943   161A      0.800291   162A      0.802878  
     163A      0.809882   164A      0.812101   165A      0.820297  
     166A      0.832340   167A      0.838897   168A      0.844990  
     169A      0.847291   170A      0.855823   171A      0.864952  
     172A      0.875083   173A      0.878063   174A      0.886218  
     175A      0.891106   176A      0.898379   177A      0.913424  
     178A      0.923012   179A      0.923806   180A      0.927464  
     181A      0.938279   182A      0.952133   183A      0.961062  
     184A      0.970076   185A      0.971859   186A      0.974965  
     187A      0.981416   188A      0.989462   189A      0.995856  
     190A      1.005747   191A      1.010192   192A      1.019624  
     193A      1.022924   194A      1.032118   195A      1.037039  
     196A      1.055391   197A      1.059561   198A      1.065736  
     199A      1.073109   200A      1.079642   201A      1.087519  
     202A      1.097694   203A      1.103695   204A      1.121239  
     205A      1.126771   206A      1.132923   207A      1.135675  
     208A      1.148076   209A      1.154692   210A      1.162538  
     211A      1.170060   212A      1.190611   213A      1.191606  
     214A      1.197029   215A      1.219377   216A      1.220567  
     217A      1.227577   218A      1.241744   219A      1.266381  
     220A      1.275950   221A      1.296797   222A      1.330484  
     223A      1.333236   224A      1.347651   225A      1.353320  
     226A      1.370169   227A      1.378764   228A      1.382459  
     229A      1.400011   230A      1.444268   231A      1.463079  
     232A      1.486030   233A      1.517219   234A      1.546423  
     235A      1.584146   236A      1.598481   237A      1.601774  
     238A      1.614626   239A      1.635969   240A      1.644927  
     241A      1.650971   242A      1.662460   243A      1.671987  
     244A      1.681259   245A      1.685666   246A      1.699388  
     247A      1.704479   248A      1.718028   249A      1.725388  
     250A      1.736271   251A      1.750597   252A      1.763896  
     253A      1.775846   254A      1.779710   255A      1.791512  
     256A      1.802477   257A      1.813403   258A      1.828714  
     259A      1.869219   260A      1.878535   261A      1.898638  
     262A      1.927321   263A      1.941127   264A      1.979545  
     265A      2.208947   266A      2.235177   267A      2.242037  
     268A      2.251863   269A      2.270021   270A      2.279060  
     271A      2.308282   272A      2.320828   273A      2.342029  
     274A      2.356240   275A      2.359554   276A      2.362318  
     277A      2.378784   278A      2.384397   279A      2.395697  
     280A      2.398793   281A      2.408949   282A      2.412680  
     283A      2.424408   284A      2.428472   285A      2.440999  
     286A      2.453659   287A      2.458536   288A      2.468046  
     289A      2.481054   290A      2.485270   291A      2.494255  
     292A      2.510594   293A      2.520585   294A      2.534515  
     295A      2.549413   296A      2.560303   297A      2.580543  
     298A      2.597468   299A      2.618478   300A      2.638146  
     301A      2.660491   302A      2.664294   303A      2.681563  
     304A      2.701475   305A      2.709710   306A      2.729203  
     307A      2.734142   308A      2.764689   309A      2.797005  
     310A      2.983808   311A      2.988159   312A      2.995996  
     313A      3.008067   314A      3.024275   315A      3.028588  
     316A      3.037554   317A      3.038528   318A      3.046617  
     319A      3.074266   320A      3.093932   321A      3.102570  
     322A      3.117835   323A      3.129228   324A      3.136937  
     325A      3.141238   326A      3.150361   327A      3.158130  
     328A      3.165266   329A      3.171304   330A      3.180851  
     331A      3.189103   332A      3.214387   333A      3.223037  
     334A      3.238079   335A      3.399601   336A      3.421134  
     337A      3.437839   338A      3.458173   339A      3.496156  
     340A      3.541563   341A      3.556338   342A      3.562267  
     343A      3.569804   344A      3.613125   345A      4.183536  
     346A      4.202300   347A      4.224974   348A      4.243671  
     349A      4.263732   350A      4.312523   351A      4.316223  
     352A      4.329923   353A      4.336536   354A      4.345918  
     355A      4.350220   356A      4.364638   357A      4.372787  
     358A      4.384652   359A      4.409812   360A      4.430634  
     361A      4.438483   362A      4.441529   363A      4.462689  
     364A      4.480143   365A      4.499670   366A      4.513258  
     367A      4.521570   368A      4.527478   369A      4.548392  
     370A      4.562635   371A      4.572387   372A      4.580937  
     373A      4.599231   374A      4.651642   375A      4.731014  
     376A      4.748192   377A      4.765209   378A      4.784567  
     379A      4.793488   380A      4.809025   381A      4.819521  
     382A      4.827408   383A      4.837865   384A      4.843155  
     385A      4.864547   386A      4.869697   387A      4.892486  
     388A      4.930534   389A      4.952063   390A      5.016775  
     391A      5.023376   392A      5.063031   393A      5.081837  
     394A      5.083031   395A      5.178369   396A      5.280756  
     397A      5.284014   398A      5.305589   399A      5.309153  
     400A      5.319752   401A      5.354714   402A      5.369381  
     403A      5.373962   404A      5.397166   405A      5.402423  
     406A      5.424498   407A      5.449513   408A      5.457363  
     409A      5.495648   410A      5.566761   411A      5.609724  
     412A      5.646884   413A      5.673738   414A      5.686774  
     415A      5.940366   416A      5.957420   417A      5.965647  
     418A      5.978438   419A      6.032627   420A      6.041307  
     421A      6.139680   422A      6.161074   423A      6.176611  
     424A      6.187394   425A      6.368961   426A      6.389181  
     427A      6.406443   428A      6.443228   429A      6.475592  
     430A      6.690614   431A      6.798859   432A      6.816784  
     433A      6.850137   434A      6.859499   435A      7.474567  
     436A      7.479545   437A      7.507220   438A      7.530615  
     439A      7.547248   440A      7.586663   441A      7.588823  
     442A      7.632863   443A      7.660112   444A      7.679101  
     445A      7.853346   446A      7.860044   447A      7.861891  
     448A      7.868590   449A      7.890173   450A      7.926180  
     451A      7.929604   452A      7.952151   453A      7.980447  
     454A      7.986760   455A      8.012597   456A      8.055544  
     457A      8.068221   458A      8.081224   459A      8.101060  
     460A      8.302614   461A      8.423258   462A      8.433374  
     463A      8.444728   464A      8.473918   465A      8.501857  
     466A      8.564369   467A      8.569813   468A      8.573844  
     469A      8.618401   470A      9.540652   471A      9.555658  
     472A      9.571975   473A      9.584116   474A      9.638455  
     475A      9.729058   476A      9.732037   477A      9.740358  
     478A      9.749477   479A      9.777563   480A      9.815236  
     481A      9.821896   482A      9.838361   483A      9.845132  
     484A      9.865170   485A      9.991359   486A     10.014842  
     487A     10.043022   488A     10.053455   489A     10.061572  
     490A     10.730103   491A     10.835776   492A     10.889145  
     493A     10.900380   494A     10.999658   495A     11.435027  
     496A     11.448351   497A     11.469323   498A     11.486667  
     499A     11.524499   500A     11.541794   501A     11.687002  
     502A     11.774102   503A     11.805853   504A     11.858873  
     505A     13.116900   506A     13.234528   507A     13.272388  
     508A     13.307848   509A     13.352457   510A     13.674962  
     511A     13.694022   512A     13.715119   513A     13.737720  
     514A     13.794751   515A     62.520288   516A     63.390974  
     517A     63.544260   518A     64.066833   519A     64.528903  

    Final Occupation by Irrep:
              A 
    DOCC [     9 ]
    NA   [     9 ]
    NB   [     9 ]

  @DF-RHF Final Energy:  -599.01751647694221

   => Energetics <=

    Nuclear Repulsion Energy =              0.0000000000000000
    One-Electron Energy =                -819.7323955132262654
    Two-Electron Energy =                 220.7148790362841169
    Total Energy =                       -599.0175164769420917

Computation Completed


Properties will be evaluated at   0.000000,   0.000000,   0.000000 [a0]

Properties computed using the SCF density matrix


 Multipole Moments:

 ------------------------------------------------------------------------------------
     Multipole            Electronic (a.u.)      Nuclear  (a.u.)        Total (a.u.)
 ------------------------------------------------------------------------------------

 L = 1.  Multiply by 2.5417464519 to convert [e a0] to [Debye]
 Dipole X            :          0.0001115            0.0000000            0.0001115
 Dipole Y            :         -0.0000071            0.0000000           -0.0000071
 Dipole Z            :         -0.0000451            0.0000000           -0.0000451
 Magnitude           :                                                    0.0001205

 ------------------------------------------------------------------------------------

*** tstop() called on moses-razer at Wed Jan 24 19:51:51 2024
Module time:
	user time   =      41.99 seconds =       0.70 minutes
	system time =       3.67 seconds =       0.06 minutes
	total time  =         14 seconds =       0.23 minutes
Total time:
	user time   =      41.99 seconds =       0.70 minutes
	system time =       3.67 seconds =       0.06 minutes
	total time  =         14 seconds =       0.23 minutes

*** tstart() called on moses-razer
*** at Wed Jan 24 19:51:51 2024


  //>>>>>>>>>>>>>>>>>>>>>>>>>>>>>>>>>>>//
  //               DFMP2               //
  //<<<<<<<<<<<<<<<<<<<<<<<<<<<<<<<<<<<//

   => Loading Basis Set <=

    Name: (AUG-CC-PVTZ AUX)
    Role: RIFIT
    Keyword: DF_BASIS_MP2
    atoms 1                            entry K          line  1282 file /home/kchung25/anaconda3/envs/p415env/share/psi4/basis/def2-qzvpp-ri.gbs 
    atoms 2, 5, 8, 11, 14              entry O          line   264 file /home/kchung25/anaconda3/envs/p415env/share/psi4/basis/aug-cc-pvtz-ri.gbs 
    atoms 3-4, 6-7, 9-10, 12-13, 15-16 entry H          line    30 file /home/kchung25/anaconda3/envs/p415env/share/psi4/basis/aug-cc-pvtz-ri.gbs 

	 --------------------------------------------------------
	                          DF-MP2                         
	      2nd-Order Density-Fitted Moller-Plesset Theory     
	              RMP2 Wavefunction,   6 Threads             
	                                                         
	        Rob Parrish, Justin Turney, Andy Simmonett,      
	           Ed Hohenstein, and C. David Sherrill          
	 --------------------------------------------------------

   => Auxiliary Basis Set <=

  Basis Set: (AUG-CC-PVTZ AUX)
    Blend: AUG-CC-PVTZ-RI + DEF2-QZVPP-RI
    Number of shells: 329
    Number of basis functions: 1189
    Number of Cartesian functions: 1492
    Spherical Harmonics?: true
    Max angular momentum: 4

	 --------------------------------------------------------
	                 NBF =   519, NAUX =  1189
	 --------------------------------------------------------
	   CLASS    FOCC     OCC    AOCC    AVIR     VIR    FVIR
	   PAIRS       0       9       9     510     510       0
	 --------------------------------------------------------

	-----------------------------------------------------------
	 ==================> DF-MP2 Energies <==================== 
	-----------------------------------------------------------
	 Reference Energy          =    -599.0175164769422054 [Eh]
	 Singles Energy            =      -0.0000000000000000 [Eh]
	 Same-Spin Energy          =      -0.0381079785477938 [Eh]
	 Opposite-Spin Energy      =      -0.0932429682096802 [Eh]
	 Correlation Energy        =      -0.1313509467574740 [Eh]
	 Total Energy              =    -599.1488674236996985 [Eh]
	-----------------------------------------------------------
	 ================> DF-SCS-MP2 Energies <================== 
	-----------------------------------------------------------
	 SCS Same-Spin Scale       =       0.3333333333333333 [-]
	 SCS Opposite-Spin Scale   =       1.2000000000000000 [-]
	 SCS Same-Spin Energy      =      -0.0127026595159313 [Eh]
	 SCS Opposite-Spin Energy  =      -0.1118915618516162 [Eh]
	 SCS Correlation Energy    =      -0.1245942213675475 [Eh]
	 SCS Total Energy          =    -599.1421106983098070 [Eh]
	-----------------------------------------------------------


*** tstop() called on moses-razer at Wed Jan 24 19:51:59 2024
Module time:
	user time   =      18.48 seconds =       0.31 minutes
	system time =       1.40 seconds =       0.02 minutes
	total time  =          8 seconds =       0.13 minutes
Total time:
	user time   =      60.47 seconds =       1.01 minutes
	system time =       5.07 seconds =       0.08 minutes
	total time  =         22 seconds =       0.37 minutes

    Psi4 stopped on: Wednesday, 24 January 2024 07:51PM
    Psi4 wall time for execution: 0:00:21.78

*** Psi4 exiting successfully. Buy a developer a beer!
