
    -----------------------------------------------------------------------
          Psi4: An Open-Source Ab Initio Electronic Structure Package
                               Psi4 1.9 release

                         Git: Rev {} zzzzzzz 


    D. G. A. Smith, L. A. Burns, A. C. Simmonett, R. M. Parrish,
    M. C. Schieber, R. Galvelis, P. Kraus, H. Kruse, R. Di Remigio,
    A. Alenaizan, A. M. James, S. Lehtola, J. P. Misiewicz, M. Scheurer,
    R. A. Shaw, J. B. Schriber, Y. Xie, Z. L. Glick, D. A. Sirianni,
    J. S. O'Brien, J. M. Waldrop, A. Kumar, E. G. Hohenstein,
    B. P. Pritchard, B. R. Brooks, H. F. Schaefer III, A. Yu. Sokolov,
    K. Patkowski, A. E. DePrince III, U. Bozkaya, R. A. King,
    F. A. Evangelista, J. M. Turney, T. D. Crawford, C. D. Sherrill,
    J. Chem. Phys. 152(18) 184108 (2020). https://doi.org/10.1063/5.0006002

                            Additional Code Authors
    E. T. Seidl, C. L. Janssen, E. F. Valeev, M. L. Leininger,
    J. F. Gonthier, R. M. Richard, H. R. McAlexander, M. Saitow, X. Wang,
    P. Verma, M. H. Lechner, A. Jiang, S. Behnle, A. G. Heide,
    M. F. Herbst, and D. L. Poole

             Previous Authors, Complete List of Code Contributors,
                       and Citations for Specific Modules
    https://github.com/psi4/psi4/blob/master/codemeta.json
    https://github.com/psi4/psi4/graphs/contributors
    http://psicode.org/psi4manual/master/introduction.html#citing-psifour

    -----------------------------------------------------------------------


    Psi4 started on: Wednesday, 24 January 2024 07:39PM

    Process ID: 1249334
    Host:       moses-razer
    PSIDATADIR: /home/kchung25/anaconda3/envs/psi4_19/share/psi4
    Memory:     500.0 MiB
    Threads:    6
    
  ==> Input File <==

--------------------------------------------------------------------------
MEMORY 60 GB

molecule dimer {
0 1
Gh(K)      0.000000     0.000000     0.000000
Gh(O)      0.798245    -2.673232     0.586516
Gh(H)      1.259072    -3.227763    -0.050608
Gh(H)      1.531752    -2.180835     0.924560
O          1.063720    -0.518108     2.608119
H          1.747934    -1.086894     2.959635
H          0.362801    -0.538207     3.240479
Gh(O)     -0.749147     2.531063     1.106211
Gh(H)     -1.357034     2.493353     1.855151
Gh(H)     -0.245091     3.336779     1.345826
Gh(O)     -0.978931     1.576870    -1.879881
Gh(H)     -0.514846     1.896055    -2.647649
Gh(H)     -1.625313     0.989072    -2.202663

units ang
no_reorient
no_com
symmetry c1
}

set {
basis        aug-cc-pVTZ
scf_type     df
}

energy("mp2")
--------------------------------------------------------------------------

  Memory set to  55.879 GiB by Python driver.

Scratch directory: /scratch/
   => Libint2 <=

    Primary   basis highest AM E, G, H:  5, 4, 3
    Auxiliary basis highest AM E, G, H:  6, 5, 4
    Onebody   basis highest AM E, G, H:  6, 5, 4
    Solid Harmonics ordering:            gaussian

*** tstart() called on moses-razer
*** at Wed Jan 24 19:39:09 2024

   => Loading Basis Set <=

    Name: AUG-CC-PVTZ
    Role: ORBITAL
    Keyword: BASIS
    atoms 1                     entry K          line  1152 file /home/kchung25/anaconda3/envs/p415env/share/psi4/basis/aug-cc-pvtz.gbs 
    atoms 2, 5, 8, 11           entry O          line   331 file /home/kchung25/anaconda3/envs/p415env/share/psi4/basis/aug-cc-pvtz.gbs 
    atoms 3-4, 6-7, 9-10, 12-13 entry H          line    40 file /home/kchung25/anaconda3/envs/p415env/share/psi4/basis/aug-cc-pvtz.gbs 


         ---------------------------------------------------------
                                   SCF
               by Justin Turney, Rob Parrish, Andy Simmonett
                          and Daniel G. A. Smith
                              RHF Reference
                        6 Threads,  57220 MiB Core
         ---------------------------------------------------------

  ==> Geometry <==

    Molecular point group: c1
    Full point group: C1

    Geometry (in Angstrom), charge = 0, multiplicity = 1:

       Center              X                  Y                   Z               Mass       
    ------------   -----------------  -----------------  -----------------  -----------------
      Gh(K)           0.000000000000     0.000000000000     0.000000000000    38.963706486400
      Gh(O)           0.798245000000    -2.673232000000     0.586516000000    15.994914619570
      Gh(H)           1.259072000000    -3.227763000000    -0.050608000000     1.007825032230
      Gh(H)           1.531752000000    -2.180835000000     0.924560000000     1.007825032230
         O            1.063720000000    -0.518108000000     2.608119000000    15.994914619570
         H            1.747934000000    -1.086894000000     2.959635000000     1.007825032230
         H            0.362801000000    -0.538207000000     3.240479000000     1.007825032230
      Gh(O)          -0.749147000000     2.531063000000     1.106211000000    15.994914619570
      Gh(H)          -1.357034000000     2.493353000000     1.855151000000     1.007825032230
      Gh(H)          -0.245091000000     3.336779000000     1.345826000000     1.007825032230
      Gh(O)          -0.978931000000     1.576870000000    -1.879881000000    15.994914619570
      Gh(H)          -0.514846000000     1.896055000000    -2.647649000000     1.007825032230
      Gh(H)          -1.625313000000     0.989072000000    -2.202663000000     1.007825032230

  Running in c1 symmetry.

  Rotational constants: A =      0.08242  B =      0.04292  C =      0.02871 [cm^-1]
  Rotational constants: A =   2470.76812  B =   1286.80508  C =    860.63971 [MHz]
  Nuclear repulsion =    9.257630727346019

  Charge       = 0
  Multiplicity = 1
  Electrons    = 10
  Nalpha       = 5
  Nbeta        = 5

  ==> Algorithm <==

  SCF Algorithm Type is DF.
  DIIS enabled.
  MOM disabled.
  Fractional occupation disabled.
  Guess Type is SAD.
  Energy threshold   = 1.00e-08
  Density threshold  = 1.00e-08
  Integral threshold = 1.00e-12

  ==> Primary Basis <==

  Basis Set: AUG-CC-PVTZ
    Blend: AUG-CC-PVTZ
    Number of shells: 147
    Number of basis functions: 427
    Number of Cartesian functions: 489
    Spherical Harmonics?: true
    Max angular momentum: 3

   => Loading Basis Set <=

    Name: (AUG-CC-PVTZ AUX)
    Role: JKFIT
    Keyword: DF_BASIS_SCF
    atoms 1                     entry K          line  1152 file /home/kchung25/anaconda3/envs/p415env/share/psi4/basis/def2-universal-jkfit.gbs 
    atoms 2, 5, 8, 11           entry O          line   286 file /home/kchung25/anaconda3/envs/p415env/share/psi4/basis/aug-cc-pvtz-jkfit.gbs 
    atoms 3-4, 6-7, 9-10, 12-13 entry H          line    70 file /home/kchung25/anaconda3/envs/p415env/share/psi4/basis/aug-cc-pvtz-jkfit.gbs 

  ==> Integral Setup <==

  DFHelper Memory: AOs need 1.178 GiB; user supplied 41.910 GiB. 
  Using in-core AOs.

  ==> MemDFJK: Density-Fitted J/K Matrices <==

    J tasked:                   Yes
    K tasked:                   Yes
    wK tasked:                   No
    OpenMP threads:               6
    Memory [MiB]:             42915
    Algorithm:                 Core
    Schwarz Cutoff:           1E-12
    Mask sparsity (%):      12.1648
    Fitting Condition:        1E-10

   => Auxiliary Basis Set <=

  Basis Set: (AUG-CC-PVTZ AUX)
    Blend: AUG-CC-PVTZ-JKFIT + DEF2-UNIVERSAL-JKFIT
    Number of shells: 276
    Number of basis functions: 944
    Number of Cartesian functions: 1167
    Spherical Harmonics?: true
    Max angular momentum: 4

  Minimum eigenvalue in the overlap matrix is 5.9700480275E-05.
  Reciprocal condition number of the overlap matrix is 4.9264032214E-06.
    Using symmetric orthogonalization.

  ==> Pre-Iterations <==

  SCF Guess: Superposition of Atomic Densities via on-the-fly atomic UHF (no occupation information).

   -------------------------
    Irrep   Nso     Nmo    
   -------------------------
     A        427     427 
   -------------------------
    Total     427     427
   -------------------------

  ==> Iterations <==

                           Total Energy        Delta E     RMS |[F,P]|

   @DF-RHF iter SAD:   -75.48443941946681   -7.54844e+01   0.00000e+00 
   @DF-RHF iter   1:   -75.97712531163937   -4.92686e-01   1.09954e-03 DIIS/ADIIS
   @DF-RHF iter   2:   -76.02991194651601   -5.27866e-02   7.40933e-04 DIIS/ADIIS
   @DF-RHF iter   3:   -76.06060861665816   -3.06967e-02   5.03292e-05 DIIS
   @DF-RHF iter   4:   -76.06098789684266   -3.79280e-04   1.17862e-05 DIIS
   @DF-RHF iter   5:   -76.06101037311059   -2.24763e-05   2.64453e-06 DIIS
   @DF-RHF iter   6:   -76.06101218205087   -1.80894e-06   5.81662e-07 DIIS
   @DF-RHF iter   7:   -76.06101227940252   -9.73516e-08   1.08182e-07 DIIS
   @DF-RHF iter   8:   -76.06101228239810   -2.99558e-09   1.79001e-08 DIIS
   @DF-RHF iter   9:   -76.06101228246210   -6.40057e-11   4.36146e-09 DIIS
  Energy and wave function converged.


  ==> Post-Iterations <==

    Orbital Energies [Eh]
    ---------------------

    Doubly Occupied:                                                      

       1A    -20.565260     2A     -1.356165     3A     -0.724023  
       4A     -0.583640     5A     -0.510543  

    Virtual:                                                              

       6A      0.007034     7A      0.009758     8A      0.010185  
       9A      0.011052    10A      0.017787    11A      0.018348  
      12A      0.018896    13A      0.019218    14A      0.019484  
      15A      0.033466    16A      0.035532    17A      0.037566  
      18A      0.040927    19A      0.055144    20A      0.060261  
      21A      0.062827    22A      0.063602    23A      0.066060  
      24A      0.070980    25A      0.074015    26A      0.076613  
      27A      0.080152    28A      0.082149    29A      0.088373  
      30A      0.096595    31A      0.098999    32A      0.105392  
      33A      0.109670    34A      0.114533    35A      0.120644  
      36A      0.142611    37A      0.150230    38A      0.156759  
      39A      0.163486    40A      0.167031    41A      0.176505  
      42A      0.178515    43A      0.183883    44A      0.188733  
      45A      0.192279    46A      0.198849    47A      0.201070  
      48A      0.211281    49A      0.215785    50A      0.218993  
      51A      0.225834    52A      0.228664    53A      0.237508  
      54A      0.241675    55A      0.254973    56A      0.257595  
      57A      0.263980    58A      0.267565    59A      0.272075  
      60A      0.273918    61A      0.283893    62A      0.289800  
      63A      0.308551    64A      0.315703    65A      0.323455  
      66A      0.327356    67A      0.348804    68A      0.358850  
      69A      0.359780    70A      0.366365    71A      0.368389  
      72A      0.372311    73A      0.378079    74A      0.383295  
      75A      0.388173    76A      0.406345    77A      0.414565  
      78A      0.416440    79A      0.424099    80A      0.430868  
      81A      0.438340    82A      0.441471    83A      0.446040  
      84A      0.449809    85A      0.455216    86A      0.459236  
      87A      0.463238    88A      0.464165    89A      0.469691  
      90A      0.475045    91A      0.488619    92A      0.494937  
      93A      0.500152    94A      0.506405    95A      0.508991  
      96A      0.514630    97A      0.533670    98A      0.538776  
      99A      0.557624   100A      0.563584   101A      0.571033  
     102A      0.594577   103A      0.605305   104A      0.616619  
     105A      0.637326   106A      0.685452   107A      0.717116  
     108A      0.721238   109A      0.741333   110A      0.751011  
     111A      0.757498   112A      0.774813   113A      0.793454  
     114A      0.797031   115A      0.805644   116A      0.814011  
     117A      0.825230   118A      0.828061   119A      0.835690  
     120A      0.843184   121A      0.850399   122A      0.855799  
     123A      0.864953   124A      0.871958   125A      0.884065  
     126A      0.888160   127A      0.900463   128A      0.903129  
     129A      0.903996   130A      0.917793   131A      0.933592  
     132A      0.938255   133A      0.948828   134A      0.957783  
     135A      0.964159   136A      0.965115   137A      0.989706  
     138A      0.992885   139A      0.994968   140A      1.012946  
     141A      1.016013   142A      1.024594   143A      1.035454  
     144A      1.043041   145A      1.054029   146A      1.057511  
     147A      1.058649   148A      1.067495   149A      1.074233  
     150A      1.084802   151A      1.096244   152A      1.101358  
     153A      1.103491   154A      1.106929   155A      1.127290  
     156A      1.131690   157A      1.136060   158A      1.148910  
     159A      1.159114   160A      1.171036   161A      1.178242  
     162A      1.186764   163A      1.193281   164A      1.199730  
     165A      1.212336   166A      1.218963   167A      1.225889  
     168A      1.243923   169A      1.259066   170A      1.265003  
     171A      1.270537   172A      1.274383   173A      1.287929  
     174A      1.292654   175A      1.302335   176A      1.327074  
     177A      1.336350   178A      1.352984   179A      1.382788  
     180A      1.407925   181A      1.439161   182A      1.484031  
     183A      1.499132   184A      1.515163   185A      1.519663  
     186A      1.530232   187A      1.560235   188A      1.602599  
     189A      1.621459   190A      1.659638   191A      1.712206  
     192A      1.733208   193A      1.755305   194A      1.762724  
     195A      1.770943   196A      1.796083   197A      1.797699  
     198A      1.808544   199A      1.815890   200A      1.833760  
     201A      1.841690   202A      1.854175   203A      1.866159  
     204A      1.878871   205A      1.896560   206A      1.919302  
     207A      1.920619   208A      1.949061   209A      2.019773  
     210A      2.046303   211A      2.089506   212A      2.111283  
     213A      2.121489   214A      2.168162   215A      2.199964  
     216A      2.216895   217A      2.251437   218A      2.302496  
     219A      2.342768   220A      2.366393   221A      2.378483  
     222A      2.390678   223A      2.403294   224A      2.417182  
     225A      2.432774   226A      2.445311   227A      2.451015  
     228A      2.483907   229A      2.498996   230A      2.515336  
     231A      2.519104   232A      2.548586   233A      2.558145  
     234A      2.569104   235A      2.575860   236A      2.596802  
     237A      2.599105   238A      2.604213   239A      2.613638  
     240A      2.619205   241A      2.640530   242A      2.650646  
     243A      2.679407   244A      2.689600   245A      2.699772  
     246A      2.718422   247A      2.738608   248A      2.764455  
     249A      2.779579   250A      2.810139   251A      2.816560  
     252A      2.855096   253A      2.866628   254A      2.894488  
     255A      2.916075   256A      2.922344   257A      2.955533  
     258A      2.963646   259A      3.004359   260A      3.020499  
     261A      3.095690   262A      3.167938   263A      3.210350  
     264A      3.212503   265A      3.220639   266A      3.263475  
     267A      3.276440   268A      3.287091   269A      3.318811  
     270A      3.340332   271A      3.363593   272A      3.376362  
     273A      3.387988   274A      3.399192   275A      3.411439  
     276A      3.490042   277A      3.525795   278A      3.605989  
     279A      3.649085   280A      3.705367   281A      3.715367  
     282A      3.748755   283A      3.797784   284A      3.862447  
     285A      3.873140   286A      4.094101   287A      4.262595  
     288A      4.289304   289A      4.363658   290A      4.386777  
     291A      4.393615   292A      4.402255   293A      4.441083  
     294A      4.461121   295A      4.470920   296A      4.480735  
     297A      4.494651   298A      4.509681   299A      4.519756  
     300A      4.536678   301A      4.569037   302A      4.590597  
     303A      4.599461   304A      4.617887   305A      4.651305  
     306A      4.683655   307A      4.688720   308A      4.721682  
     309A      4.750083   310A      4.761985   311A      4.771994  
     312A      4.814627   313A      4.847781   314A      4.902858  
     315A      4.911794   316A      4.933754   317A      4.944549  
     318A      4.958145   319A      4.964687   320A      4.977270  
     321A      4.997837   322A      5.012176   323A      5.027582  
     324A      5.213801   325A      5.215976   326A      5.234071  
     327A      5.256672   328A      5.349417   329A      5.368835  
     330A      5.429830   331A      5.568835   332A      5.594340  
     333A      5.606768   334A      5.614531   335A      5.645355  
     336A      5.654730   337A      5.683588   338A      5.688100  
     339A      5.722991   340A      5.751895   341A      5.828701  
     342A      5.890834   343A      5.917447   344A      5.953861  
     345A      6.117988   346A      6.166535   347A      6.177445  
     348A      6.287015   349A      6.323274   350A      6.391097  
     351A      6.500963   352A      6.605232   353A      6.629938  
     354A      6.714409   355A      6.782230   356A      6.789557  
     357A      6.942528   358A      7.044069   359A      7.130903  
     360A      7.195763   361A      7.220036   362A      7.357428  
     363A      7.372035   364A      7.397426   365A      7.421254  
     366A      7.436855   367A      7.638711   368A      7.697101  
     369A      7.702240   370A      7.748604   371A      7.860065  
     372A      7.881234   373A      7.940889   374A      7.970554  
     375A      8.011271   376A      8.056661   377A      8.083767  
     378A      8.091076   379A      8.131244   380A      8.150250  
     381A      8.251138   382A      8.284643   383A      8.342685  
     384A      8.349245   385A      8.637609   386A      8.821438  
     387A      8.856527   388A      8.899136   389A      8.933362  
     390A      8.947140   391A      8.958592   392A      9.732121  
     393A      9.778407   394A      9.845117   395A      9.921220  
     396A      9.962960   397A      9.975797   398A     10.008101  
     399A     10.040918   400A     10.042838   401A     10.234017  
     402A     10.292163   403A     10.312497   404A     10.345788  
     405A     11.199153   406A     11.338357   407A     11.345341  
     408A     11.659637   409A     11.736821   410A     11.749086  
     411A     12.032287   412A     12.269718   413A     12.406726  
     414A     13.541595   415A     13.688052   416A     13.745256  
     417A     13.823483   418A     13.862254   419A     13.864638  
     420A     16.352214   421A     30.450349   422A     30.968565  
     423A     31.507418   424A     64.232294   425A     65.704924  
     426A     66.141356   427A    197.969276  

    Final Occupation by Irrep:
              A 
    DOCC [     5 ]
    NA   [     5 ]
    NB   [     5 ]

  @DF-RHF Final Energy:   -76.06101228246210

   => Energetics <=

    Nuclear Repulsion Energy =              9.2576307273460188
    One-Electron Energy =                -123.1580224662358347
    Two-Electron Energy =                  37.8393794564277215
    Total Energy =                        -76.0610122824621016

Computation Completed


Properties will be evaluated at   0.000000,   0.000000,   0.000000 [a0]

Properties computed using the SCF density matrix


 Multipole Moments:

 ------------------------------------------------------------------------------------
     Multipole            Electronic (a.u.)      Nuclear  (a.u.)        Total (a.u.)
 ------------------------------------------------------------------------------------

 L = 1.  Multiply by 2.5417464519 to convert [e a0] to [Debye]
 Dipole X            :        -20.0828336           20.0698269           -0.0130068
 Dipole Y            :         10.5097363          -10.9036536           -0.3939173
 Dipole Z            :        -50.4853693           51.1455623            0.6601930
 Magnitude           :                                                    0.7688920

 ------------------------------------------------------------------------------------

*** tstop() called on moses-razer at Wed Jan 24 19:39:18 2024
Module time:
	user time   =      26.88 seconds =       0.45 minutes
	system time =       1.87 seconds =       0.03 minutes
	total time  =          9 seconds =       0.15 minutes
Total time:
	user time   =      26.88 seconds =       0.45 minutes
	system time =       1.87 seconds =       0.03 minutes
	total time  =          9 seconds =       0.15 minutes

*** tstart() called on moses-razer
*** at Wed Jan 24 19:39:18 2024


  //>>>>>>>>>>>>>>>>>>>>>>>>>>>>>>>>>>>//
  //               DFMP2               //
  //<<<<<<<<<<<<<<<<<<<<<<<<<<<<<<<<<<<//

   => Loading Basis Set <=

    Name: (AUG-CC-PVTZ AUX)
    Role: RIFIT
    Keyword: DF_BASIS_MP2
    atoms 1                     entry K          line  1282 file /home/kchung25/anaconda3/envs/p415env/share/psi4/basis/def2-qzvpp-ri.gbs 
    atoms 2, 5, 8, 11           entry O          line   264 file /home/kchung25/anaconda3/envs/p415env/share/psi4/basis/aug-cc-pvtz-ri.gbs 
    atoms 3-4, 6-7, 9-10, 12-13 entry H          line    30 file /home/kchung25/anaconda3/envs/p415env/share/psi4/basis/aug-cc-pvtz-ri.gbs 

	 --------------------------------------------------------
	                          DF-MP2                         
	      2nd-Order Density-Fitted Moller-Plesset Theory     
	              RMP2 Wavefunction,   6 Threads             
	                                                         
	        Rob Parrish, Justin Turney, Andy Simmonett,      
	           Ed Hohenstein, and C. David Sherrill          
	 --------------------------------------------------------

   => Auxiliary Basis Set <=

  Basis Set: (AUG-CC-PVTZ AUX)
    Blend: AUG-CC-PVTZ-RI + DEF2-QZVPP-RI
    Number of shells: 273
    Number of basis functions: 991
    Number of Cartesian functions: 1246
    Spherical Harmonics?: true
    Max angular momentum: 4

	 --------------------------------------------------------
	                 NBF =   427, NAUX =   991
	 --------------------------------------------------------
	   CLASS    FOCC     OCC    AOCC    AVIR     VIR    FVIR
	   PAIRS       0       5       5     422     422       0
	 --------------------------------------------------------

	-----------------------------------------------------------
	 ==================> DF-MP2 Energies <==================== 
	-----------------------------------------------------------
	 Reference Energy          =     -76.0610122824621016 [Eh]
	 Singles Energy            =      -0.0000000000000000 [Eh]
	 Same-Spin Energy          =      -0.0682545559622632 [Eh]
	 Opposite-Spin Energy      =      -0.2152037076431769 [Eh]
	 Correlation Energy        =      -0.2834582636054401 [Eh]
	 Total Energy              =     -76.3444705460675408 [Eh]
	-----------------------------------------------------------
	 ================> DF-SCS-MP2 Energies <================== 
	-----------------------------------------------------------
	 SCS Same-Spin Scale       =       0.3333333333333333 [-]
	 SCS Opposite-Spin Scale   =       1.2000000000000000 [-]
	 SCS Same-Spin Energy      =      -0.0227515186540877 [Eh]
	 SCS Opposite-Spin Energy  =      -0.2582444491718122 [Eh]
	 SCS Correlation Energy    =      -0.2809959678259000 [Eh]
	 SCS Total Energy          =     -76.3420082502880035 [Eh]
	-----------------------------------------------------------


*** tstop() called on moses-razer at Wed Jan 24 19:39:24 2024
Module time:
	user time   =      12.80 seconds =       0.21 minutes
	system time =       1.13 seconds =       0.02 minutes
	total time  =          6 seconds =       0.10 minutes
Total time:
	user time   =      39.68 seconds =       0.66 minutes
	system time =       3.00 seconds =       0.05 minutes
	total time  =         15 seconds =       0.25 minutes

    Psi4 stopped on: Wednesday, 24 January 2024 07:39PM
    Psi4 wall time for execution: 0:00:15.19

*** Psi4 exiting successfully. Buy a developer a beer!
