
    -----------------------------------------------------------------------
          Psi4: An Open-Source Ab Initio Electronic Structure Package
                               Psi4 1.9 release

                         Git: Rev {} zzzzzzz 


    D. G. A. Smith, L. A. Burns, A. C. Simmonett, R. M. Parrish,
    M. C. Schieber, R. Galvelis, P. Kraus, H. Kruse, R. Di Remigio,
    A. Alenaizan, A. M. James, S. Lehtola, J. P. Misiewicz, M. Scheurer,
    R. A. Shaw, J. B. Schriber, Y. Xie, Z. L. Glick, D. A. Sirianni,
    J. S. O'Brien, J. M. Waldrop, A. Kumar, E. G. Hohenstein,
    B. P. Pritchard, B. R. Brooks, H. F. Schaefer III, A. Yu. Sokolov,
    K. Patkowski, A. E. DePrince III, U. Bozkaya, R. A. King,
    F. A. Evangelista, J. M. Turney, T. D. Crawford, C. D. Sherrill,
    J. Chem. Phys. 152(18) 184108 (2020). https://doi.org/10.1063/5.0006002

                            Additional Code Authors
    E. T. Seidl, C. L. Janssen, E. F. Valeev, M. L. Leininger,
    J. F. Gonthier, R. M. Richard, H. R. McAlexander, M. Saitow, X. Wang,
    P. Verma, M. H. Lechner, A. Jiang, S. Behnle, A. G. Heide,
    M. F. Herbst, and D. L. Poole

             Previous Authors, Complete List of Code Contributors,
                       and Citations for Specific Modules
    https://github.com/psi4/psi4/blob/master/codemeta.json
    https://github.com/psi4/psi4/graphs/contributors
    http://psicode.org/psi4manual/master/introduction.html#citing-psifour

    -----------------------------------------------------------------------


    Psi4 started on: Wednesday, 24 January 2024 08:07PM

    Process ID: 1250040
    Host:       moses-razer
    PSIDATADIR: /home/kchung25/anaconda3/envs/psi4_19/share/psi4
    Memory:     500.0 MiB
    Threads:    6
    
  ==> Input File <==

--------------------------------------------------------------------------
MEMORY 60 GB

molecule dimer {
0 1
Gh(K)      0.000000     0.000000     0.000000
O         -1.748582    -1.917623     0.824916
H         -1.927657    -2.525574     0.033501
H         -1.050096    -2.347738     1.319853
Gh(O)     -1.621019    -0.026661    -2.495029
Gh(H)     -2.157829     0.783290    -2.142273
Gh(H)     -0.938955     0.298904    -3.093444
Gh(O)      1.590594     2.164731    -0.894823
Gh(H)      1.235565     3.044904    -0.640630
Gh(H)      1.783507     2.237495    -1.824659
Gh(O)     -1.616151     1.949068     0.718448
Gh(H)     -1.919618     2.437775    -0.050766
Gh(H)     -2.417592     1.668498     1.285757
Gh(O)      1.392847    -1.450900    -1.792945
Gh(H)      2.296831    -1.347027    -1.608727
Gh(H)      1.207511    -1.120090    -2.693635

units ang
no_reorient
no_com
symmetry c1
}

set {
basis        aug-cc-pVTZ
scf_type     df
}

energy("mp2")
--------------------------------------------------------------------------

  Memory set to  55.879 GiB by Python driver.

Scratch directory: /scratch/
   => Libint2 <=

    Primary   basis highest AM E, G, H:  5, 4, 3
    Auxiliary basis highest AM E, G, H:  6, 5, 4
    Onebody   basis highest AM E, G, H:  6, 5, 4
    Solid Harmonics ordering:            gaussian

*** tstart() called on moses-razer
*** at Wed Jan 24 20:07:39 2024

   => Loading Basis Set <=

    Name: AUG-CC-PVTZ
    Role: ORBITAL
    Keyword: BASIS
    atoms 1                            entry K          line  1152 file /home/kchung25/anaconda3/envs/p415env/share/psi4/basis/aug-cc-pvtz.gbs 
    atoms 2, 5, 8, 11, 14              entry O          line   331 file /home/kchung25/anaconda3/envs/p415env/share/psi4/basis/aug-cc-pvtz.gbs 
    atoms 3-4, 6-7, 9-10, 12-13, 15-16 entry H          line    40 file /home/kchung25/anaconda3/envs/p415env/share/psi4/basis/aug-cc-pvtz.gbs 


         ---------------------------------------------------------
                                   SCF
               by Justin Turney, Rob Parrish, Andy Simmonett
                          and Daniel G. A. Smith
                              RHF Reference
                        6 Threads,  57220 MiB Core
         ---------------------------------------------------------

  ==> Geometry <==

    Molecular point group: c1
    Full point group: C1

    Geometry (in Angstrom), charge = 0, multiplicity = 1:

       Center              X                  Y                   Z               Mass       
    ------------   -----------------  -----------------  -----------------  -----------------
      Gh(K)           0.000000000000     0.000000000000     0.000000000000    38.963706486400
         O           -1.748582000000    -1.917623000000     0.824916000000    15.994914619570
         H           -1.927657000000    -2.525574000000     0.033501000000     1.007825032230
         H           -1.050096000000    -2.347738000000     1.319853000000     1.007825032230
      Gh(O)          -1.621019000000    -0.026661000000    -2.495029000000    15.994914619570
      Gh(H)          -2.157829000000     0.783290000000    -2.142273000000     1.007825032230
      Gh(H)          -0.938955000000     0.298904000000    -3.093444000000     1.007825032230
      Gh(O)           1.590594000000     2.164731000000    -0.894823000000    15.994914619570
      Gh(H)           1.235565000000     3.044904000000    -0.640630000000     1.007825032230
      Gh(H)           1.783507000000     2.237495000000    -1.824659000000     1.007825032230
      Gh(O)          -1.616151000000     1.949068000000     0.718448000000    15.994914619570
      Gh(H)          -1.919618000000     2.437775000000    -0.050766000000     1.007825032230
      Gh(H)          -2.417592000000     1.668498000000     1.285757000000     1.007825032230
      Gh(O)           1.392847000000    -1.450900000000    -1.792945000000    15.994914619570
      Gh(H)           2.296831000000    -1.347027000000    -1.608727000000     1.007825032230
      Gh(H)           1.207511000000    -1.120090000000    -2.693635000000     1.007825032230

  Running in c1 symmetry.

  Rotational constants: A =      0.03950  B =      0.03645  C =      0.03091 [cm^-1]
  Rotational constants: A =   1184.32390  B =   1092.75785  C =    926.66397 [MHz]
  Nuclear repulsion =    8.931804497201604

  Charge       = 0
  Multiplicity = 1
  Electrons    = 10
  Nalpha       = 5
  Nbeta        = 5

  ==> Algorithm <==

  SCF Algorithm Type is DF.
  DIIS enabled.
  MOM disabled.
  Fractional occupation disabled.
  Guess Type is SAD.
  Energy threshold   = 1.00e-08
  Density threshold  = 1.00e-08
  Integral threshold = 1.00e-12

  ==> Primary Basis <==

  Basis Set: AUG-CC-PVTZ
    Blend: AUG-CC-PVTZ
    Number of shells: 179
    Number of basis functions: 519
    Number of Cartesian functions: 594
    Spherical Harmonics?: true
    Max angular momentum: 3

   => Loading Basis Set <=

    Name: (AUG-CC-PVTZ AUX)
    Role: JKFIT
    Keyword: DF_BASIS_SCF
    atoms 1                            entry K          line  1152 file /home/kchung25/anaconda3/envs/p415env/share/psi4/basis/def2-universal-jkfit.gbs 
    atoms 2, 5, 8, 11, 14              entry O          line   286 file /home/kchung25/anaconda3/envs/p415env/share/psi4/basis/aug-cc-pvtz-jkfit.gbs 
    atoms 3-4, 6-7, 9-10, 12-13, 15-16 entry H          line    70 file /home/kchung25/anaconda3/envs/p415env/share/psi4/basis/aug-cc-pvtz-jkfit.gbs 

  ==> Integral Setup <==

  DFHelper Memory: AOs need 2.128 GiB; user supplied 41.910 GiB. 
  Using in-core AOs.

  ==> MemDFJK: Density-Fitted J/K Matrices <==

    J tasked:                   Yes
    K tasked:                   Yes
    wK tasked:                   No
    OpenMP threads:               6
    Memory [MiB]:             42915
    Algorithm:                 Core
    Schwarz Cutoff:           1E-12
    Mask sparsity (%):      10.2895
    Fitting Condition:        1E-10

   => Auxiliary Basis Set <=

  Basis Set: (AUG-CC-PVTZ AUX)
    Blend: AUG-CC-PVTZ-JKFIT + DEF2-UNIVERSAL-JKFIT
    Number of shells: 334
    Number of basis functions: 1140
    Number of Cartesian functions: 1408
    Spherical Harmonics?: true
    Max angular momentum: 4

  Minimum eigenvalue in the overlap matrix is 8.1250367790E-05.
  Reciprocal condition number of the overlap matrix is 5.8012581558E-06.
    Using symmetric orthogonalization.

  ==> Pre-Iterations <==

  SCF Guess: Superposition of Atomic Densities via on-the-fly atomic UHF (no occupation information).

   -------------------------
    Irrep   Nso     Nmo    
   -------------------------
     A        519     519 
   -------------------------
    Total     519     519
   -------------------------

  ==> Iterations <==

                           Total Energy        Delta E     RMS |[F,P]|

   @DF-RHF iter SAD:   -75.44307543158018   -7.54431e+01   0.00000e+00 
   @DF-RHF iter   1:   -75.97006358385175   -5.26988e-01   9.00442e-04 DIIS/ADIIS
   @DF-RHF iter   2:   -76.02186569385660   -5.18021e-02   6.32473e-04 DIIS/ADIIS
   @DF-RHF iter   3:   -76.05551710993572   -3.36514e-02   4.32700e-05 DIIS
   @DF-RHF iter   4:   -76.05595360809615   -4.36498e-04   1.10298e-05 DIIS
   @DF-RHF iter   5:   -76.05598513804406   -3.15299e-05   2.59295e-06 DIIS
   @DF-RHF iter   6:   -76.05598788002351   -2.74198e-06   5.75562e-07 DIIS
   @DF-RHF iter   7:   -76.05598802614067   -1.46117e-07   1.02302e-07 DIIS
   @DF-RHF iter   8:   -76.05598803012833   -3.98767e-09   1.79741e-08 DIIS
   @DF-RHF iter   9:   -76.05598803023020   -1.01863e-10   4.79192e-09 DIIS
  Energy and wave function converged.


  ==> Post-Iterations <==

    Orbital Energies [Eh]
    ---------------------

    Doubly Occupied:                                                      

       1A    -20.571539     2A     -1.339380     3A     -0.703906  
       4A     -0.577672     5A     -0.507893  

    Virtual:                                                              

       6A      0.006473     7A      0.009239     8A      0.009505  
       9A      0.010883    10A      0.017845    11A      0.018121  
      12A      0.018400    13A      0.018825    14A      0.019139  
      15A      0.031117    16A      0.032587    17A      0.034580  
      18A      0.038694    19A      0.053786    20A      0.056358  
      21A      0.057582    22A      0.060083    23A      0.062630  
      24A      0.074127    25A      0.075863    26A      0.077211  
      27A      0.079454    28A      0.079894    29A      0.082345  
      30A      0.085923    31A      0.090812    32A      0.096733  
      33A      0.102488    34A      0.106405    35A      0.109841  
      36A      0.125113    37A      0.130361    38A      0.142888  
      39A      0.147253    40A      0.150831    41A      0.159172  
      42A      0.160646    43A      0.164388    44A      0.171563  
      45A      0.172965    46A      0.181444    47A      0.185551  
      48A      0.189660    49A      0.193060    50A      0.201080  
      51A      0.204149    52A      0.213784    53A      0.218586  
      54A      0.228400    55A      0.232908    56A      0.236115  
      57A      0.239754    58A      0.245454    59A      0.248443  
      60A      0.254356    61A      0.263919    62A      0.270061  
      63A      0.273877    64A      0.278410    65A      0.280202  
      66A      0.283482    67A      0.294170    68A      0.304141  
      69A      0.313795    70A      0.325869    71A      0.332964  
      72A      0.334267    73A      0.338228    74A      0.341856  
      75A      0.351335    76A      0.358979    77A      0.363111  
      78A      0.368623    79A      0.371054    80A      0.379196  
      81A      0.384127    82A      0.391254    83A      0.399060  
      84A      0.402292    85A      0.408514    86A      0.416549  
      87A      0.420369    88A      0.428446    89A      0.432281  
      90A      0.435156    91A      0.438471    92A      0.449627  
      93A      0.457301    94A      0.457942    95A      0.464522  
      96A      0.467551    97A      0.474218    98A      0.479841  
      99A      0.482012   100A      0.486782   101A      0.495182  
     102A      0.497441   103A      0.507940   104A      0.510630  
     105A      0.513799   106A      0.517980   107A      0.521737  
     108A      0.529721   109A      0.542279   110A      0.547222  
     111A      0.550137   112A      0.551222   113A      0.580572  
     114A      0.591733   115A      0.612348   116A      0.625192  
     117A      0.626768   118A      0.640447   119A      0.670710  
     120A      0.694604   121A      0.705514   122A      0.724062  
     123A      0.730931   124A      0.741504   125A      0.756091  
     126A      0.762797   127A      0.774499   128A      0.780644  
     129A      0.791010   130A      0.804541   131A      0.809038  
     132A      0.813823   133A      0.818273   134A      0.828075  
     135A      0.832807   136A      0.847752   137A      0.849216  
     138A      0.855776   139A      0.867701   140A      0.872676  
     141A      0.877079   142A      0.884920   143A      0.891198  
     144A      0.896217   145A      0.899189   146A      0.908918  
     147A      0.913611   148A      0.917466   149A      0.933060  
     150A      0.937137   151A      0.944163   152A      0.947214  
     153A      0.952679   154A      0.962801   155A      0.969510  
     156A      0.977049   157A      0.980181   158A      0.988642  
     159A      1.003332   160A      1.004858   161A      1.007102  
     162A      1.018157   163A      1.020631   164A      1.030654  
     165A      1.041026   166A      1.047569   167A      1.057512  
     168A      1.060531   169A      1.064583   170A      1.066808  
     171A      1.075337   172A      1.083970   173A      1.091264  
     174A      1.102065   175A      1.107455   176A      1.114149  
     177A      1.117407   178A      1.134073   179A      1.136089  
     180A      1.143228   181A      1.148159   182A      1.151932  
     183A      1.165330   184A      1.170180   185A      1.177599  
     186A      1.183642   187A      1.187958   188A      1.200060  
     189A      1.206649   190A      1.220026   191A      1.223317  
     192A      1.234873   193A      1.245901   194A      1.250405  
     195A      1.255214   196A      1.270484   197A      1.280977  
     198A      1.282584   199A      1.291493   200A      1.292003  
     201A      1.307411   202A      1.323370   203A      1.331226  
     204A      1.340319   205A      1.350195   206A      1.361390  
     207A      1.365850   208A      1.372197   209A      1.374840  
     210A      1.388584   211A      1.406706   212A      1.419132  
     213A      1.423147   214A      1.457959   215A      1.489041  
     216A      1.516083   217A      1.527382   218A      1.535401  
     219A      1.550652   220A      1.562048   221A      1.582496  
     222A      1.592701   223A      1.607422   224A      1.623680  
     225A      1.641175   226A      1.672766   227A      1.691192  
     228A      1.752575   229A      1.775776   230A      1.790186  
     231A      1.799085   232A      1.808077   233A      1.815615  
     234A      1.829282   235A      1.836626   236A      1.845457  
     237A      1.862959   238A      1.870789   239A      1.874690  
     240A      1.882504   241A      1.905540   242A      1.910428  
     243A      1.921616   244A      1.933797   245A      1.940921  
     246A      1.954909   247A      1.959692   248A      1.977349  
     249A      1.986918   250A      1.999436   251A      2.020114  
     252A      2.035072   253A      2.081504   254A      2.097783  
     255A      2.141729   256A      2.251989   257A      2.298859  
     258A      2.317303   259A      2.332140   260A      2.342694  
     261A      2.378752   262A      2.391478   263A      2.413647  
     264A      2.421175   265A      2.429391   266A      2.450028  
     267A      2.471224   268A      2.477236   269A      2.487971  
     270A      2.506624   271A      2.528216   272A      2.541909  
     273A      2.549061   274A      2.554847   275A      2.562933  
     276A      2.571476   277A      2.584500   278A      2.593397  
     279A      2.604306   280A      2.612123   281A      2.624618  
     282A      2.638851   283A      2.643901   284A      2.664885  
     285A      2.668861   286A      2.681694   287A      2.696779  
     288A      2.711081   289A      2.720261   290A      2.725119  
     291A      2.740554   292A      2.751191   293A      2.769818  
     294A      2.773374   295A      2.783627   296A      2.803868  
     297A      2.828161   298A      2.840744   299A      2.859555  
     300A      2.877256   301A      2.884665   302A      2.909560  
     303A      2.919271   304A      2.928167   305A      2.940276  
     306A      2.950142   307A      2.956590   308A      2.977130  
     309A      2.994988   310A      3.017778   311A      3.085518  
     312A      3.159282   313A      3.185901   314A      3.204679  
     315A      3.211116   316A      3.229604   317A      3.234013  
     318A      3.245659   319A      3.261341   320A      3.268056  
     321A      3.282435   322A      3.290294   323A      3.324191  
     324A      3.338633   325A      3.348422   326A      3.368092  
     327A      3.375430   328A      3.391846   329A      3.404700  
     330A      3.417327   331A      3.449577   332A      3.546820  
     333A      3.605137   334A      3.619487   335A      3.644334  
     336A      3.694601   337A      3.722106   338A      3.739240  
     339A      3.768154   340A      3.796994   341A      3.847102  
     342A      3.861720   343A      4.064507   344A      4.209046  
     345A      4.256368   346A      4.279951   347A      4.359941  
     348A      4.374262   349A      4.398601   350A      4.418815  
     351A      4.437263   352A      4.449106   353A      4.466953  
     354A      4.491786   355A      4.506607   356A      4.521548  
     357A      4.527341   358A      4.537477   359A      4.545940  
     360A      4.548872   361A      4.571045   362A      4.604177  
     363A      4.620797   364A      4.637451   365A      4.651576  
     366A      4.656878   367A      4.665689   368A      4.675021  
     369A      4.684719   370A      4.696733   371A      4.711422  
     372A      4.727329   373A      4.727415   374A      4.741935  
     375A      4.758505   376A      4.771706   377A      4.821347  
     378A      4.932801   379A      4.936093   380A      4.957640  
     381A      4.973955   382A      4.987532   383A      5.010953  
     384A      5.027156   385A      5.057090   386A      5.067481  
     387A      5.078669   388A      5.082029   389A      5.096564  
     390A      5.107055   391A      5.139404   392A      5.153010  
     393A      5.167379   394A      5.189993   395A      5.218077  
     396A      5.256709   397A      5.304312   398A      5.384308  
     399A      5.429896   400A      5.450056   401A      5.479208  
     402A      5.485834   403A      5.522451   404A      5.551059  
     405A      5.574228   406A      5.593279   407A      5.650510  
     408A      5.665733   409A      5.680642   410A      5.698448  
     411A      5.746015   412A      5.760728   413A      5.777621  
     414A      5.856978   415A      5.873955   416A      6.112779  
     417A      6.150161   418A      6.169693   419A      6.203253  
     420A      6.243194   421A      6.272463   422A      6.280685  
     423A      6.381599   424A      6.411560   425A      6.583755  
     426A      6.598420   427A      6.676297   428A      6.696031  
     429A      6.748369   430A      6.792545   431A      6.888722  
     432A      6.981103   433A      7.023888   434A      7.077909  
     435A      7.133675   436A      7.168956   437A      7.286382  
     438A      7.295685   439A      7.355323   440A      7.397698  
     441A      7.403642   442A      7.537137   443A      7.682297  
     444A      7.697951   445A      7.706774   446A      7.735352  
     447A      7.773317   448A      7.789348   449A      7.809500  
     450A      7.820725   451A      7.862101   452A      7.918374  
     453A      8.057999   454A      8.077751   455A      8.090193  
     456A      8.136215   457A      8.164799   458A      8.183754  
     459A      8.223351   460A      8.262755   461A      8.279894  
     462A      8.294159   463A      8.297253   464A      8.319292  
     465A      8.626828   466A      8.650742   467A      8.666354  
     468A      8.685755   469A      8.705303   470A      8.723124  
     471A      8.819859   472A      8.841902   473A      8.918152  
     474A      9.746362   475A      9.790190   476A      9.821963  
     477A      9.850071   478A      9.915887   479A      9.943781  
     480A      9.953430   481A      9.955252   482A     10.038469  
     483A     10.047628   484A     10.050855   485A     10.082936  
     486A     10.178752   487A     10.187703   488A     10.222263  
     489A     10.234068   490A     10.404214   491A     10.886810  
     492A     10.942570   493A     11.170036   494A     11.190233  
     495A     11.682610   496A     11.707091   497A     11.737149  
     498A     11.754436   499A     11.899138   500A     12.001704  
     501A     12.143937   502A     12.358207   503A     13.340974  
     504A     13.375036   505A     13.527222   506A     13.655043  
     507A     13.849587   508A     13.899692   509A     13.923796  
     510A     13.995040   511A     15.351745   512A     30.960664  
     513A     31.220755   514A     31.388267   515A     63.374351  
     516A     63.735971   517A     64.702060   518A     65.900284  
     519A    198.107272  

    Final Occupation by Irrep:
              A 
    DOCC [     5 ]
    NA   [     5 ]
    NB   [     5 ]

  @DF-RHF Final Energy:   -76.05598803023020

   => Energetics <=

    Nuclear Repulsion Energy =              8.9318044972016040
    One-Electron Energy =                -122.5748018410219515
    Two-Electron Energy =                  37.5870093135901655
    Total Energy =                        -76.0559880302301963

Computation Completed


Properties will be evaluated at   0.000000,   0.000000,   0.000000 [a0]

Properties computed using the SCF density matrix


 Multipole Moments:

 ------------------------------------------------------------------------------------
     Multipole            Electronic (a.u.)      Nuclear  (a.u.)        Total (a.u.)
 ------------------------------------------------------------------------------------

 L = 1.  Multiply by 2.5417464519 to convert [e a0] to [Debye]
 Dipole X            :         32.4071186          -32.0618663            0.3452523
 Dipole Y            :         37.5204801          -38.1994833           -0.6790031
 Dipole Z            :        -15.2146507           15.0283909           -0.1862598
 Magnitude           :                                                    0.7841793

 ------------------------------------------------------------------------------------

*** tstop() called on moses-razer at Wed Jan 24 20:07:52 2024
Module time:
	user time   =      42.61 seconds =       0.71 minutes
	system time =       2.38 seconds =       0.04 minutes
	total time  =         13 seconds =       0.22 minutes
Total time:
	user time   =      42.61 seconds =       0.71 minutes
	system time =       2.38 seconds =       0.04 minutes
	total time  =         13 seconds =       0.22 minutes

*** tstart() called on moses-razer
*** at Wed Jan 24 20:07:52 2024


  //>>>>>>>>>>>>>>>>>>>>>>>>>>>>>>>>>>>//
  //               DFMP2               //
  //<<<<<<<<<<<<<<<<<<<<<<<<<<<<<<<<<<<//

   => Loading Basis Set <=

    Name: (AUG-CC-PVTZ AUX)
    Role: RIFIT
    Keyword: DF_BASIS_MP2
    atoms 1                            entry K          line  1282 file /home/kchung25/anaconda3/envs/p415env/share/psi4/basis/def2-qzvpp-ri.gbs 
    atoms 2, 5, 8, 11, 14              entry O          line   264 file /home/kchung25/anaconda3/envs/p415env/share/psi4/basis/aug-cc-pvtz-ri.gbs 
    atoms 3-4, 6-7, 9-10, 12-13, 15-16 entry H          line    30 file /home/kchung25/anaconda3/envs/p415env/share/psi4/basis/aug-cc-pvtz-ri.gbs 

	 --------------------------------------------------------
	                          DF-MP2                         
	      2nd-Order Density-Fitted Moller-Plesset Theory     
	              RMP2 Wavefunction,   6 Threads             
	                                                         
	        Rob Parrish, Justin Turney, Andy Simmonett,      
	           Ed Hohenstein, and C. David Sherrill          
	 --------------------------------------------------------

   => Auxiliary Basis Set <=

  Basis Set: (AUG-CC-PVTZ AUX)
    Blend: AUG-CC-PVTZ-RI + DEF2-QZVPP-RI
    Number of shells: 329
    Number of basis functions: 1189
    Number of Cartesian functions: 1492
    Spherical Harmonics?: true
    Max angular momentum: 4

	 --------------------------------------------------------
	                 NBF =   519, NAUX =  1189
	 --------------------------------------------------------
	   CLASS    FOCC     OCC    AOCC    AVIR     VIR    FVIR
	   PAIRS       0       5       5     514     514       0
	 --------------------------------------------------------

	-----------------------------------------------------------
	 ==================> DF-MP2 Energies <==================== 
	-----------------------------------------------------------
	 Reference Energy          =     -76.0559880302301963 [Eh]
	 Singles Energy            =      -0.0000000000000000 [Eh]
	 Same-Spin Energy          =      -0.0688555753202132 [Eh]
	 Opposite-Spin Energy      =      -0.2170697130929143 [Eh]
	 Correlation Energy        =      -0.2859252884131275 [Eh]
	 Total Energy              =     -76.3419133186433214 [Eh]
	-----------------------------------------------------------
	 ================> DF-SCS-MP2 Energies <================== 
	-----------------------------------------------------------
	 SCS Same-Spin Scale       =       0.3333333333333333 [-]
	 SCS Opposite-Spin Scale   =       1.2000000000000000 [-]
	 SCS Same-Spin Energy      =      -0.0229518584400711 [Eh]
	 SCS Opposite-Spin Energy  =      -0.2604836557114972 [Eh]
	 SCS Correlation Energy    =      -0.2834355141515683 [Eh]
	 SCS Total Energy          =     -76.3394235443817593 [Eh]
	-----------------------------------------------------------


*** tstop() called on moses-razer at Wed Jan 24 20:07:59 2024
Module time:
	user time   =      17.51 seconds =       0.29 minutes
	system time =       1.39 seconds =       0.02 minutes
	total time  =          7 seconds =       0.12 minutes
Total time:
	user time   =      60.13 seconds =       1.00 minutes
	system time =       3.77 seconds =       0.06 minutes
	total time  =         20 seconds =       0.33 minutes

    Psi4 stopped on: Wednesday, 24 January 2024 08:07PM
    Psi4 wall time for execution: 0:00:20.07

*** Psi4 exiting successfully. Buy a developer a beer!
