
    -----------------------------------------------------------------------
          Psi4: An Open-Source Ab Initio Electronic Structure Package
                               Psi4 1.9 release

                         Git: Rev {} zzzzzzz 


    D. G. A. Smith, L. A. Burns, A. C. Simmonett, R. M. Parrish,
    M. C. Schieber, R. Galvelis, P. Kraus, H. Kruse, R. Di Remigio,
    A. Alenaizan, A. M. James, S. Lehtola, J. P. Misiewicz, M. Scheurer,
    R. A. Shaw, J. B. Schriber, Y. Xie, Z. L. Glick, D. A. Sirianni,
    J. S. O'Brien, J. M. Waldrop, A. Kumar, E. G. Hohenstein,
    B. P. Pritchard, B. R. Brooks, H. F. Schaefer III, A. Yu. Sokolov,
    K. Patkowski, A. E. DePrince III, U. Bozkaya, R. A. King,
    F. A. Evangelista, J. M. Turney, T. D. Crawford, C. D. Sherrill,
    J. Chem. Phys. 152(18) 184108 (2020). https://doi.org/10.1063/5.0006002

                            Additional Code Authors
    E. T. Seidl, C. L. Janssen, E. F. Valeev, M. L. Leininger,
    J. F. Gonthier, R. M. Richard, H. R. McAlexander, M. Saitow, X. Wang,
    P. Verma, M. H. Lechner, A. Jiang, S. Behnle, A. G. Heide,
    M. F. Herbst, and D. L. Poole

             Previous Authors, Complete List of Code Contributors,
                       and Citations for Specific Modules
    https://github.com/psi4/psi4/blob/master/codemeta.json
    https://github.com/psi4/psi4/graphs/contributors
    http://psicode.org/psi4manual/master/introduction.html#citing-psifour

    -----------------------------------------------------------------------


    Psi4 started on: Saturday, 06 January 2024 07:46PM

    Process ID: 553675
    Host:       moses-razer
    PSIDATADIR: /home/kchung25/anaconda3/envs/psi4_19/share/psi4
    Memory:     500.0 MiB
    Threads:    6
    
  ==> Input File <==

--------------------------------------------------------------------------
MEMORY 60 GB

molecule dimer {
1 1
K      0.000000     0.000000     0.000000
--
0 1
O     -2.635555    -0.276395     1.367629
H     -2.296026    -0.337391     2.286535
H     -3.490352    -0.708308     1.251761
O      2.756429    -0.515741    -0.495604
H      3.405562    -0.731420     0.158018
H      2.773624     0.411513    -0.812172
O      0.329265     0.299331    -2.532931
H      0.307016    -0.242145    -3.289589
H      0.466834     1.212367    -2.850108
O      0.201952     1.346168     2.493417
H     -0.355586     2.214469     2.733889
H     -0.029793     0.631912     3.061578
O     -1.125899    -2.279212    -1.110246
H     -1.831871    -2.461089    -1.782069
H     -0.507812    -3.042224    -1.253317

units ang
no_reorient
no_com
symmetry c1
}

set {
basis        aug-cc-pVTZ
scf_type     df
}

energy("mp2", bsse_type="cp")
--------------------------------------------------------------------------

  Memory set to  55.879 GiB by Python driver.

Scratch directory: /scratch/

  //>>>>>>>>>>>>>>>>>>>>>>>>>>>>>>>>>>>>>//
  // ManyBody Setup: N-Body Levels [1, 2]//
  //<<<<<<<<<<<<<<<<<<<<<<<<<<<<<<<<<<<<<//

        Number of 1-body computations:     2
        Number of 2-body computations:     1

    -----------------------------------------------------------------------
          Psi4: An Open-Source Ab Initio Electronic Structure Package
                               Psi4 1.9 release

                         Git: Rev {} zzzzzzz 


    D. G. A. Smith, L. A. Burns, A. C. Simmonett, R. M. Parrish,
    M. C. Schieber, R. Galvelis, P. Kraus, H. Kruse, R. Di Remigio,
    A. Alenaizan, A. M. James, S. Lehtola, J. P. Misiewicz, M. Scheurer,
    R. A. Shaw, J. B. Schriber, Y. Xie, Z. L. Glick, D. A. Sirianni,
    J. S. O'Brien, J. M. Waldrop, A. Kumar, E. G. Hohenstein,
    B. P. Pritchard, B. R. Brooks, H. F. Schaefer III, A. Yu. Sokolov,
    K. Patkowski, A. E. DePrince III, U. Bozkaya, R. A. King,
    F. A. Evangelista, J. M. Turney, T. D. Crawford, C. D. Sherrill,
    J. Chem. Phys. 152(18) 184108 (2020). https://doi.org/10.1063/5.0006002

                            Additional Code Authors
    E. T. Seidl, C. L. Janssen, E. F. Valeev, M. L. Leininger,
    J. F. Gonthier, R. M. Richard, H. R. McAlexander, M. Saitow, X. Wang,
    P. Verma, M. H. Lechner, A. Jiang, S. Behnle, A. G. Heide,
    M. F. Herbst, and D. L. Poole

             Previous Authors, Complete List of Code Contributors,
                       and Citations for Specific Modules
    https://github.com/psi4/psi4/blob/master/codemeta.json
    https://github.com/psi4/psi4/graphs/contributors
    http://psicode.org/psi4manual/master/introduction.html#citing-psifour

    -----------------------------------------------------------------------


    Psi4 started on: Saturday, 06 January 2024 07:46PM

    Process ID: 553675
    Host:       moses-razer
    PSIDATADIR: /home/kchung25/anaconda3/envs/psi4_19/share/psi4
    Memory:     55.9 GiB
    Threads:    6
    
  ==> Input QCSchema <==

--------------------------------------------------------------------------
{'driver': 'energy',
 'extras': {'psiapi': True, 'wfn_qcvars_only': True},
 'id': None,
 'keywords': {'SCF_TYPE': 'DF', 'function_kwargs': {}},
 'model': {'basis': 'aug-cc-pvtz', 'method': 'mp2'},
 'molecule': {'atom_labels': ['', '', '', '', '', '', '', '', '', '', '', '', '', '', '', ''],
              'atomic_numbers': [19, 8, 1, 1, 8, 1, 1, 8, 1, 1, 8, 1, 1, 8, 1, 1],
              'extras': {},
              'fix_com': True,
              'fix_orientation': True,
              'fix_symmetry': 'c1',
              'fragment_charges': [0.0, 0.0],
              'fragment_multiplicities': [1, 1],
              'fragments': [[0], [1, 2, 3, 4, 5, 6, 7, 8, 9, 10, 11, 12, 13, 14, 15]],
              'geometry': [0.0, 0.0, 0.0, -4.980477138581007, -0.5223108524459165, 2.584444251233764,
                           -4.338860316930435, -0.6375765871943421, 4.320924926273715, -6.5958093614439814,
                           -1.3385081324707835, 2.365485464529216, 5.208895894269595, -0.9746092416697457,
                           -0.9365558266814015, 6.435579483266412, -1.3821834826823647, 0.2986107428925951,
                           5.241389734996843, 0.7776468670655272, -1.5347826467653352, 0.6222206726988717,
                           0.5656536108594172, -4.786545884682022, 0.5801761561335605, -0.4575877326489858,
                           -6.216422275318691, 0.8821884060519798, 2.2910415935429307, -5.385923547976359,
                           0.3816339704884593, 2.5438888388553136, 4.711875246560681, -0.6719601540470473,
                           4.184739923316471, 5.166301467401777, -0.05630061045576507, 1.1941406153903071,
                           5.785543931726926, -2.1276407549268432, -4.307086461856987, -2.098060871885052,
                           -3.4617344871685574, -4.65078418037688, -3.3676223466685062, -0.9596256032209907,
                           -5.748970172294816, -2.3684258783804286],
              'mass_numbers': [39, 16, 1, 1, 16, 1, 1, 16, 1, 1, 16, 1, 1, 16, 1, 1],
              'masses': [38.9637064864, 15.99491461957, 1.00782503223, 1.00782503223, 15.99491461957, 1.00782503223,
                         1.00782503223, 15.99491461957, 1.00782503223, 1.00782503223, 15.99491461957, 1.00782503223,
                         1.00782503223, 15.99491461957, 1.00782503223, 1.00782503223],
              'molecular_charge': 0.0,
              'molecular_multiplicity': 1,
              'name': 'dimer',
              'provenance': {'creator': 'QCElemental',
                             'routine': 'qcelemental.molparse.from_string',
                             'version': '0.27.1'},
              'real': [False, True, True, True, True, True, True, True, True, True, True, True, True, True, True, True],
              'schema_name': 'qcschema_molecule',
              'schema_version': 2,
              'symbols': ['K', 'O', 'H', 'H', 'O', 'H', 'H', 'O', 'H', 'H', 'O', 'H', 'H', 'O', 'H', 'H'],
              'validated': True},
 'protocols': {'stdout': True},
 'provenance': {'creator': 'QCElemental', 'routine': 'qcelemental.models.results', 'version': '0.27.1'},
 'schema_name': 'qcschema_input',
 'schema_version': 1}
--------------------------------------------------------------------------

Scratch directory: /scratch/
   => Libint2 <=

    Primary   basis highest AM E, G, H:  5, 4, 3
    Auxiliary basis highest AM E, G, H:  6, 5, 4
    Onebody   basis highest AM E, G, H:  6, 5, 4
    Solid Harmonics ordering:            gaussian

*** tstart() called on moses-razer
*** at Sat Jan  6 19:46:51 2024

   => Loading Basis Set <=

    Name: AUG-CC-PVTZ
    Role: ORBITAL
    Keyword: BASIS
    atoms 1                            entry K          line  1152 file /home/kchung25/anaconda3/envs/p415env/share/psi4/basis/aug-cc-pvtz.gbs 
    atoms 2, 5, 8, 11, 14              entry O          line   331 file /home/kchung25/anaconda3/envs/p415env/share/psi4/basis/aug-cc-pvtz.gbs 
    atoms 3-4, 6-7, 9-10, 12-13, 15-16 entry H          line    40 file /home/kchung25/anaconda3/envs/p415env/share/psi4/basis/aug-cc-pvtz.gbs 


         ---------------------------------------------------------
                                   SCF
               by Justin Turney, Rob Parrish, Andy Simmonett
                          and Daniel G. A. Smith
                              RHF Reference
                        6 Threads,  57220 MiB Core
         ---------------------------------------------------------

  ==> Geometry <==

    Molecular point group: c1
    Full point group: C1

    Geometry (in Bohr), charge = 0, multiplicity = 1:

       Center              X                  Y                   Z               Mass       
    ------------   -----------------  -----------------  -----------------  -----------------
      Gh(K)           0.000000000000     0.000000000000     0.000000000000    38.963706486400
         O           -4.980477138581    -0.522310852446     2.584444251234    15.994914619570
         H           -4.338860316930    -0.637576587194     4.320924926274     1.007825032230
         H           -6.595809361444    -1.338508132471     2.365485464529     1.007825032230
         O            5.208895894270    -0.974609241670    -0.936555826681    15.994914619570
         H            6.435579483266    -1.382183482682     0.298610742893     1.007825032230
         H            5.241389734997     0.777646867066    -1.534782646765     1.007825032230
         O            0.622220672699     0.565653610859    -4.786545884682    15.994914619570
         H            0.580176156134    -0.457587732649    -6.216422275319     1.007825032230
         H            0.882188406052     2.291041593543    -5.385923547976     1.007825032230
         O            0.381633970488     2.543888838855     4.711875246561    15.994914619570
         H           -0.671960154047     4.184739923316     5.166301467402     1.007825032230
         H           -0.056300610456     1.194140615390     5.785543931727     1.007825032230
         O           -2.127640754927    -4.307086461857    -2.098060871885    15.994914619570
         H           -3.461734487169    -4.650784180377    -3.367622346669     1.007825032230
         H           -0.959625603221    -5.748970172295    -2.368425878380     1.007825032230

  Running in c1 symmetry.

  Rotational constants: A =      0.04684  B =      0.03661  C =      0.02532 [cm^-1]
  Rotational constants: A =   1404.36320  B =   1097.54072  C =    759.06282 [MHz]
  Nuclear repulsion =  168.384020496920215

  Charge       = 0
  Multiplicity = 1
  Electrons    = 50
  Nalpha       = 25
  Nbeta        = 25

  ==> Algorithm <==

  SCF Algorithm Type is DF.
  DIIS enabled.
  MOM disabled.
  Fractional occupation disabled.
  Guess Type is SAD.
  Energy threshold   = 1.00e-08
  Density threshold  = 1.00e-08
  Integral threshold = 1.00e-12

  ==> Primary Basis <==

  Basis Set: AUG-CC-PVTZ
    Blend: AUG-CC-PVTZ
    Number of shells: 179
    Number of basis functions: 519
    Number of Cartesian functions: 594
    Spherical Harmonics?: true
    Max angular momentum: 3

   => Loading Basis Set <=

    Name: (AUG-CC-PVTZ AUX)
    Role: JKFIT
    Keyword: DF_BASIS_SCF
    atoms 1                            entry K          line  1152 file /home/kchung25/anaconda3/envs/p415env/share/psi4/basis/def2-universal-jkfit.gbs 
    atoms 2, 5, 8, 11, 14              entry O          line   286 file /home/kchung25/anaconda3/envs/p415env/share/psi4/basis/aug-cc-pvtz-jkfit.gbs 
    atoms 3-4, 6-7, 9-10, 12-13, 15-16 entry H          line    70 file /home/kchung25/anaconda3/envs/p415env/share/psi4/basis/aug-cc-pvtz-jkfit.gbs 

  ==> Integral Setup <==

  DFHelper Memory: AOs need 2.055 GiB; user supplied 41.910 GiB. 
  Using in-core AOs.

  ==> MemDFJK: Density-Fitted J/K Matrices <==

    J tasked:                   Yes
    K tasked:                   Yes
    wK tasked:                   No
    OpenMP threads:               6
    Memory [MiB]:             42915
    Algorithm:                 Core
    Schwarz Cutoff:           1E-12
    Mask sparsity (%):      13.4749
    Fitting Condition:        1E-10

   => Auxiliary Basis Set <=

  Basis Set: (AUG-CC-PVTZ AUX)
    Blend: AUG-CC-PVTZ-JKFIT + DEF2-UNIVERSAL-JKFIT
    Number of shells: 334
    Number of basis functions: 1140
    Number of Cartesian functions: 1408
    Spherical Harmonics?: true
    Max angular momentum: 4

  Minimum eigenvalue in the overlap matrix is 5.6970150671E-05.
  Reciprocal condition number of the overlap matrix is 4.4235256585E-06.
    Using symmetric orthogonalization.

  ==> Pre-Iterations <==

  SCF Guess: Superposition of Atomic Densities via on-the-fly atomic UHF (no occupation information).

   -------------------------
    Irrep   Nso     Nmo    
   -------------------------
     A        519     519 
   -------------------------
    Total     519     519
   -------------------------

  ==> Iterations <==

                           Total Energy        Delta E     RMS |[F,P]|

   @DF-RHF iter SAD:  -377.29530550316940   -3.77295e+02   0.00000e+00 
   @DF-RHF iter   1:  -379.82196036979599   -2.52665e+00   2.04168e-03 ADIIS/DIIS
   @DF-RHF iter   2:  -380.08657097548303   -2.64611e-01   1.43722e-03 ADIIS/DIIS
   @DF-RHF iter   3:  -380.26192535701500   -1.75354e-01   9.87413e-05 DIIS
   @DF-RHF iter   4:  -380.26420656153607   -2.28120e-03   2.77414e-05 DIIS
   @DF-RHF iter   5:  -380.26437817193204   -1.71610e-04   9.83577e-06 DIIS
   @DF-RHF iter   6:  -380.26439827843996   -2.01065e-05   3.80180e-06 DIIS
   @DF-RHF iter   7:  -380.26440152855986   -3.25012e-06   7.94042e-07 DIIS
   @DF-RHF iter   8:  -380.26440179950021   -2.70940e-07   1.50926e-07 DIIS
   @DF-RHF iter   9:  -380.26440180804474   -8.54453e-09   3.95125e-08 DIIS
   @DF-RHF iter  10:  -380.26440180835880   -3.14060e-10   1.65022e-08 DIIS
   @DF-RHF iter  11:  -380.26440180840973   -5.09317e-11   4.56648e-09 DIIS
  Energy and wave function converged.


  ==> Post-Iterations <==

    Orbital Energies [Eh]
    ---------------------

    Doubly Occupied:                                                      

       1A    -20.556788     2A    -20.545446     3A    -20.543994  
       4A    -20.539812     5A    -20.532097     6A     -1.329056  
       7A     -1.318519     8A     -1.316716     9A     -1.312498  
      10A     -1.309102    11A     -0.703307    12A     -0.702983  
      13A     -0.698103    14A     -0.692273    15A     -0.665170  
      16A     -0.556565    17A     -0.550011    18A     -0.548836  
      19A     -0.540995    20A     -0.531046    21A     -0.490602  
      22A     -0.485299    23A     -0.483354    24A     -0.476460  
      25A     -0.475111  

    Virtual:                                                              

      26A      0.008623    27A      0.009443    28A      0.010592  
      29A      0.011587    30A      0.017516    31A      0.017551  
      32A      0.018949    33A      0.019164    34A      0.019683  
      35A      0.034626    36A      0.037230    37A      0.040797  
      38A      0.049176    39A      0.057516    40A      0.058186  
      41A      0.064453    42A      0.066491    43A      0.067852  
      44A      0.069978    45A      0.074250    46A      0.077033  
      47A      0.078698    48A      0.079811    49A      0.081506  
      50A      0.091874    51A      0.095794    52A      0.102176  
      53A      0.107677    54A      0.127946    55A      0.131435  
      56A      0.136143    57A      0.139447    58A      0.157522  
      59A      0.162883    60A      0.170782    61A      0.175771  
      62A      0.177137    63A      0.185699    64A      0.193713  
      65A      0.196817    66A      0.204565    67A      0.205464  
      68A      0.207246    69A      0.211580    70A      0.217586  
      71A      0.220575    72A      0.225623    73A      0.227266  
      74A      0.238866    75A      0.241739    76A      0.243910  
      77A      0.249084    78A      0.254479    79A      0.260163  
      80A      0.264419    81A      0.277051    82A      0.279385  
      83A      0.281606    84A      0.291888    85A      0.301153  
      86A      0.302881    87A      0.305913    88A      0.315130  
      89A      0.324164    90A      0.331185    91A      0.337461  
      92A      0.340262    93A      0.354167    94A      0.362080  
      95A      0.366390    96A      0.374965    97A      0.386255  
      98A      0.393115    99A      0.400332   100A      0.402635  
     101A      0.415621   102A      0.418309   103A      0.425982  
     104A      0.429952   105A      0.439040   106A      0.442558  
     107A      0.446649   108A      0.450846   109A      0.451783  
     110A      0.456311   111A      0.460286   112A      0.463063  
     113A      0.469499   114A      0.471534   115A      0.480038  
     116A      0.485120   117A      0.486899   118A      0.489868  
     119A      0.493975   120A      0.500167   121A      0.509393  
     122A      0.509661   123A      0.517475   124A      0.521438  
     125A      0.525813   126A      0.535641   127A      0.538166  
     128A      0.547600   129A      0.550291   130A      0.555654  
     131A      0.570804   132A      0.575771   133A      0.589545  
     134A      0.604625   135A      0.614917   136A      0.631495  
     137A      0.639068   138A      0.673216   139A      0.684449  
     140A      0.694378   141A      0.698221   142A      0.725746  
     143A      0.733602   144A      0.739671   145A      0.746620  
     146A      0.754992   147A      0.768390   148A      0.770259  
     149A      0.784679   150A      0.786661   151A      0.800950  
     152A      0.808240   153A      0.810581   154A      0.821074  
     155A      0.822935   156A      0.842478   157A      0.856547  
     158A      0.859829   159A      0.866151   160A      0.874235  
     161A      0.880296   162A      0.885564   163A      0.895449  
     164A      0.899164   165A      0.904958   166A      0.919268  
     167A      0.922977   168A      0.939044   169A      0.945946  
     170A      0.950543   171A      0.952650   172A      0.956552  
     173A      0.962772   174A      0.978043   175A      0.982138  
     176A      0.989591   177A      0.997116   178A      0.998370  
     179A      1.004763   180A      1.007422   181A      1.022551  
     182A      1.024706   183A      1.027140   184A      1.041850  
     185A      1.044754   186A      1.050333   187A      1.063637  
     188A      1.070183   189A      1.072854   190A      1.080508  
     191A      1.082875   192A      1.092757   193A      1.100818  
     194A      1.104952   195A      1.112361   196A      1.115565  
     197A      1.117120   198A      1.124574   199A      1.130851  
     200A      1.133243   201A      1.141732   202A      1.149897  
     203A      1.153165   204A      1.162819   205A      1.172500  
     206A      1.175901   207A      1.179490   208A      1.196581  
     209A      1.199076   210A      1.201373   211A      1.210218  
     212A      1.213892   213A      1.232296   214A      1.235048  
     215A      1.244986   216A      1.249196   217A      1.252744  
     218A      1.259286   219A      1.279785   220A      1.281781  
     221A      1.286146   222A      1.292028   223A      1.305048  
     224A      1.312301   225A      1.320695   226A      1.328078  
     227A      1.350156   228A      1.358737   229A      1.361679  
     230A      1.382007   231A      1.385259   232A      1.403326  
     233A      1.420777   234A      1.435029   235A      1.438032  
     236A      1.447420   237A      1.493478   238A      1.516427  
     239A      1.536727   240A      1.541716   241A      1.588256  
     242A      1.604103   243A      1.623458   244A      1.643385  
     245A      1.664420   246A      1.671005   247A      1.680357  
     248A      1.687336   249A      1.700003   250A      1.718405  
     251A      1.729684   252A      1.741655   253A      1.756703  
     254A      1.763765   255A      1.785309   256A      1.793106  
     257A      1.800855   258A      1.867568   259A      1.874816  
     260A      1.879757   261A      1.931795   262A      1.950227  
     263A      1.967923   264A      1.979759   265A      1.989188  
     266A      2.007037   267A      2.015913   268A      2.053578  
     269A      2.065118   270A      2.082067   271A      2.148196  
     272A      2.162297   273A      2.179433   274A      2.192191  
     275A      2.195790   276A      2.257176   277A      2.293119  
     278A      2.333315   279A      2.337113   280A      2.347606  
     281A      2.355254   282A      2.362392   283A      2.370753  
     284A      2.379953   285A      2.382463   286A      2.396790  
     287A      2.408637   288A      2.409967   289A      2.416120  
     290A      2.422967   291A      2.428022   292A      2.439210  
     293A      2.461869   294A      2.472065   295A      2.481544  
     296A      2.486005   297A      2.496882   298A      2.503160  
     299A      2.511481   300A      2.522799   301A      2.531163  
     302A      2.546244   303A      2.554860   304A      2.591853  
     305A      2.601405   306A      2.620757   307A      2.626547  
     308A      2.659080   309A      2.668258   310A      2.687401  
     311A      2.702750   312A      2.732778   313A      2.740891  
     314A      2.756573   315A      2.772912   316A      2.778604  
     317A      2.786238   318A      2.796150   319A      2.812122  
     320A      2.822304   321A      2.824733   322A      2.834452  
     323A      2.842252   324A      2.853656   325A      2.859165  
     326A      2.871356   327A      2.879892   328A      2.887359  
     329A      2.897195   330A      2.901204   331A      2.929924  
     332A      2.944739   333A      2.948264   334A      2.959739  
     335A      2.965429   336A      2.973492   337A      2.987216  
     338A      3.031163   339A      3.038846   340A      3.048116  
     341A      3.062855   342A      3.133884   343A      3.392131  
     344A      3.489422   345A      3.627664   346A      3.726326  
     347A      3.737934   348A      3.768933   349A      3.811449  
     350A      3.831213   351A      3.878170   352A      3.900040  
     353A      3.922779   354A      3.954361   355A      4.046941  
     356A      4.057516   357A      4.072365   358A      4.088679  
     359A      4.100070   360A      4.162201   361A      4.198894  
     362A      4.211241   363A      4.226450   364A      4.243620  
     365A      4.260602   366A      4.266561   367A      4.279457  
     368A      4.290406   369A      4.295286   370A      4.302542  
     371A      4.307920   372A      4.329706   373A      4.332722  
     374A      4.346545   375A      4.375707   376A      4.388392  
     377A      4.400257   378A      4.410681   379A      4.423777  
     380A      4.428701   381A      4.440384   382A      4.457389  
     383A      4.467641   384A      4.478768   385A      4.485788  
     386A      4.487622   387A      4.504939   388A      4.507296  
     389A      4.515647   390A      4.525700   391A      4.529497  
     392A      4.543541   393A      4.565687   394A      4.567469  
     395A      4.568161   396A      4.616378   397A      4.627656  
     398A      4.634997   399A      4.659102   400A      4.665382  
     401A      4.758988   402A      4.767916   403A      4.772435  
     404A      4.786787   405A      4.799561   406A      4.808017  
     407A      4.835773   408A      4.860573   409A      4.908778  
     410A      4.997900   411A      5.044026   412A      5.106805  
     413A      5.127157   414A      5.133048   415A      5.163471  
     416A      5.180635   417A      5.184794   418A      5.216500  
     419A      5.229086   420A      5.255651   421A      5.265663  
     422A      5.277569   423A      5.313843   424A      5.336167  
     425A      5.354390   426A      5.366677   427A      5.400813  
     428A      5.453460   429A      5.464833   430A      5.480573  
     431A      5.496457   432A      5.500336   433A      5.526232  
     434A      5.591104   435A      5.709545   436A      5.749016  
     437A      5.875219   438A      5.904295   439A      5.932844  
     440A      6.128459   441A      6.162451   442A      6.191092  
     443A      6.342013   444A      6.369021   445A      6.618399  
     446A      6.643486   447A      6.650846   448A      6.672345  
     449A      6.680745   450A      6.747444   451A      6.762214  
     452A      6.764717   453A      6.780056   454A      6.789410  
     455A      6.861070   456A      6.870360   457A      6.871057  
     458A      6.933353   459A      6.962523   460A      7.081781  
     461A      7.159153   462A      7.214704   463A      7.219477  
     464A      7.240424   465A      7.247972   466A      7.286878  
     467A      7.294078   468A      7.306850   469A      7.309866  
     470A      7.340024   471A      7.350847   472A      7.351723  
     473A      7.360369   474A      7.375461   475A      7.380364  
     476A      7.390612   477A      7.396193   478A      7.409013  
     479A      7.419655   480A      7.424671   481A      7.428102  
     482A      7.435844   483A      7.449578   484A      7.453009  
     485A      7.456734   486A      7.459597   487A      7.480870  
     488A      7.487413   489A      7.551423   490A      7.557993  
     491A      7.566823   492A      7.641469   493A      7.670267  
     494A      7.688921   495A      7.825649   496A      7.845968  
     497A      7.862996   498A      7.877869   499A      7.913349  
     500A      7.955650   501A      7.962611   502A      8.035571  
     503A      8.039471   504A      8.088019   505A      8.536493  
     506A      8.709992   507A      8.727617   508A      8.777844  
     509A      8.890676   510A     10.541855   511A     15.058084  
     512A     15.266746   513A     15.732383   514A     16.119032  
     515A     16.252794   516A     30.837585   517A     31.302633  
     518A     31.466776   519A    198.262984  

    Final Occupation by Irrep:
              A 
    DOCC [    25 ]
    NA   [    25 ]
    NB   [    25 ]

  @DF-RHF Final Energy:  -380.26440180840973

   => Energetics <=

    Nuclear Repulsion Energy =            168.3840204969202148
    One-Electron Energy =                -861.4885491587904198
    Two-Electron Energy =                 312.8401268534604469
    Total Energy =                       -380.2644018084097297

Computation Completed


Properties will be evaluated at   0.000000,   0.000000,   0.000000 [a0]

Properties computed using the SCF density matrix


 Multipole Moments:

 ------------------------------------------------------------------------------------
     Multipole            Electronic (a.u.)      Nuclear  (a.u.)        Total (a.u.)
 ------------------------------------------------------------------------------------

 L = 1.  Multiply by 2.5417464519 to convert [e a0] to [Debye]
 Dipole X            :          9.7086260          -10.1078956           -0.3992696
 Dipole Y            :         27.2162305          -27.3237541           -0.1075237
 Dipole Z            :          5.1773847           -5.1350548            0.0423298
 Magnitude           :                                                    0.4156554

 ------------------------------------------------------------------------------------

*** tstop() called on moses-razer at Sat Jan  6 19:47:05 2024
Module time:
	user time   =      54.35 seconds =       0.91 minutes
	system time =       3.06 seconds =       0.05 minutes
	total time  =         14 seconds =       0.23 minutes
Total time:
	user time   =      54.35 seconds =       0.91 minutes
	system time =       3.06 seconds =       0.05 minutes
	total time  =         14 seconds =       0.23 minutes

*** tstart() called on moses-razer
*** at Sat Jan  6 19:47:05 2024


  //>>>>>>>>>>>>>>>>>>>>>>>>>>>>>>>>>>>//
  //               DFMP2               //
  //<<<<<<<<<<<<<<<<<<<<<<<<<<<<<<<<<<<//

   => Loading Basis Set <=

    Name: (AUG-CC-PVTZ AUX)
    Role: RIFIT
    Keyword: DF_BASIS_MP2
    atoms 1                            entry K          line  1282 file /home/kchung25/anaconda3/envs/p415env/share/psi4/basis/def2-qzvpp-ri.gbs 
    atoms 2, 5, 8, 11, 14              entry O          line   264 file /home/kchung25/anaconda3/envs/p415env/share/psi4/basis/aug-cc-pvtz-ri.gbs 
    atoms 3-4, 6-7, 9-10, 12-13, 15-16 entry H          line    30 file /home/kchung25/anaconda3/envs/p415env/share/psi4/basis/aug-cc-pvtz-ri.gbs 

	 --------------------------------------------------------
	                          DF-MP2                         
	      2nd-Order Density-Fitted Moller-Plesset Theory     
	              RMP2 Wavefunction,   6 Threads             
	                                                         
	        Rob Parrish, Justin Turney, Andy Simmonett,      
	           Ed Hohenstein, and C. David Sherrill          
	 --------------------------------------------------------

   => Auxiliary Basis Set <=

  Basis Set: (AUG-CC-PVTZ AUX)
    Blend: AUG-CC-PVTZ-RI + DEF2-QZVPP-RI
    Number of shells: 329
    Number of basis functions: 1189
    Number of Cartesian functions: 1492
    Spherical Harmonics?: true
    Max angular momentum: 4

	 --------------------------------------------------------
	                 NBF =   519, NAUX =  1189
	 --------------------------------------------------------
	   CLASS    FOCC     OCC    AOCC    AVIR     VIR    FVIR
	   PAIRS       0      25      25     494     494       0
	 --------------------------------------------------------

	-----------------------------------------------------------
	 ==================> DF-MP2 Energies <==================== 
	-----------------------------------------------------------
	 Reference Energy          =    -380.2644018084097297 [Eh]
	 Singles Energy            =      -0.0000000000000000 [Eh]
	 Same-Spin Energy          =      -0.3451948817316066 [Eh]
	 Opposite-Spin Energy      =      -1.0847315834275986 [Eh]
	 Correlation Energy        =      -1.4299264651592052 [Eh]
	 Total Energy              =    -381.6943282735689422 [Eh]
	-----------------------------------------------------------
	 ================> DF-SCS-MP2 Energies <================== 
	-----------------------------------------------------------
	 SCS Same-Spin Scale       =       0.3333333333333333 [-]
	 SCS Opposite-Spin Scale   =       1.2000000000000000 [-]
	 SCS Same-Spin Energy      =      -0.1150649605772022 [Eh]
	 SCS Opposite-Spin Energy  =      -1.3016779001131182 [Eh]
	 SCS Correlation Energy    =      -1.4167428606903205 [Eh]
	 SCS Total Energy          =    -381.6811446691000356 [Eh]
	-----------------------------------------------------------


*** tstop() called on moses-razer at Sat Jan  6 19:47:15 2024
Module time:
	user time   =      25.82 seconds =       0.43 minutes
	system time =       1.69 seconds =       0.03 minutes
	total time  =         10 seconds =       0.17 minutes
Total time:
	user time   =      80.17 seconds =       1.34 minutes
	system time =       4.75 seconds =       0.08 minutes
	total time  =         24 seconds =       0.40 minutes

    Psi4 stopped on: Saturday, 06 January 2024 07:47PM
    Psi4 wall time for execution: 0:00:23.55


    -----------------------------------------------------------------------
          Psi4: An Open-Source Ab Initio Electronic Structure Package
                               Psi4 1.9 release

                         Git: Rev {} zzzzzzz 


    D. G. A. Smith, L. A. Burns, A. C. Simmonett, R. M. Parrish,
    M. C. Schieber, R. Galvelis, P. Kraus, H. Kruse, R. Di Remigio,
    A. Alenaizan, A. M. James, S. Lehtola, J. P. Misiewicz, M. Scheurer,
    R. A. Shaw, J. B. Schriber, Y. Xie, Z. L. Glick, D. A. Sirianni,
    J. S. O'Brien, J. M. Waldrop, A. Kumar, E. G. Hohenstein,
    B. P. Pritchard, B. R. Brooks, H. F. Schaefer III, A. Yu. Sokolov,
    K. Patkowski, A. E. DePrince III, U. Bozkaya, R. A. King,
    F. A. Evangelista, J. M. Turney, T. D. Crawford, C. D. Sherrill,
    J. Chem. Phys. 152(18) 184108 (2020). https://doi.org/10.1063/5.0006002

                            Additional Code Authors
    E. T. Seidl, C. L. Janssen, E. F. Valeev, M. L. Leininger,
    J. F. Gonthier, R. M. Richard, H. R. McAlexander, M. Saitow, X. Wang,
    P. Verma, M. H. Lechner, A. Jiang, S. Behnle, A. G. Heide,
    M. F. Herbst, and D. L. Poole

             Previous Authors, Complete List of Code Contributors,
                       and Citations for Specific Modules
    https://github.com/psi4/psi4/blob/master/codemeta.json
    https://github.com/psi4/psi4/graphs/contributors
    http://psicode.org/psi4manual/master/introduction.html#citing-psifour

    -----------------------------------------------------------------------


    Psi4 started on: Saturday, 06 January 2024 07:46PM

    Process ID: 553675
    Host:       moses-razer
    PSIDATADIR: /home/kchung25/anaconda3/envs/psi4_19/share/psi4
    Memory:     55.9 GiB
    Threads:    6
    
  ==> Input QCSchema <==

--------------------------------------------------------------------------
{'driver': 'energy',
 'extras': {'psiapi': True, 'wfn_qcvars_only': True},
 'id': None,
 'keywords': {'SCF_TYPE': 'DF', 'function_kwargs': {}},
 'model': {'basis': 'aug-cc-pvtz', 'method': 'mp2'},
 'molecule': {'atom_labels': ['', '', '', '', '', '', '', '', '', '', '', '', '', '', '', ''],
              'atomic_numbers': [19, 8, 1, 1, 8, 1, 1, 8, 1, 1, 8, 1, 1, 8, 1, 1],
              'extras': {},
              'fix_com': True,
              'fix_orientation': True,
              'fix_symmetry': 'c1',
              'fragment_charges': [1.0, 0.0],
              'fragment_multiplicities': [1, 1],
              'fragments': [[0], [1, 2, 3, 4, 5, 6, 7, 8, 9, 10, 11, 12, 13, 14, 15]],
              'geometry': [0.0, 0.0, 0.0, -4.980477138581007, -0.5223108524459165, 2.584444251233764,
                           -4.338860316930435, -0.6375765871943421, 4.320924926273715, -6.5958093614439814,
                           -1.3385081324707835, 2.365485464529216, 5.208895894269595, -0.9746092416697457,
                           -0.9365558266814015, 6.435579483266412, -1.3821834826823647, 0.2986107428925951,
                           5.241389734996843, 0.7776468670655272, -1.5347826467653352, 0.6222206726988717,
                           0.5656536108594172, -4.786545884682022, 0.5801761561335605, -0.4575877326489858,
                           -6.216422275318691, 0.8821884060519798, 2.2910415935429307, -5.385923547976359,
                           0.3816339704884593, 2.5438888388553136, 4.711875246560681, -0.6719601540470473,
                           4.184739923316471, 5.166301467401777, -0.05630061045576507, 1.1941406153903071,
                           5.785543931726926, -2.1276407549268432, -4.307086461856987, -2.098060871885052,
                           -3.4617344871685574, -4.65078418037688, -3.3676223466685062, -0.9596256032209907,
                           -5.748970172294816, -2.3684258783804286],
              'mass_numbers': [39, 16, 1, 1, 16, 1, 1, 16, 1, 1, 16, 1, 1, 16, 1, 1],
              'masses': [38.9637064864, 15.99491461957, 1.00782503223, 1.00782503223, 15.99491461957, 1.00782503223,
                         1.00782503223, 15.99491461957, 1.00782503223, 1.00782503223, 15.99491461957, 1.00782503223,
                         1.00782503223, 15.99491461957, 1.00782503223, 1.00782503223],
              'molecular_charge': 1.0,
              'molecular_multiplicity': 1,
              'name': 'dimer',
              'provenance': {'creator': 'QCElemental',
                             'routine': 'qcelemental.molparse.from_string',
                             'version': '0.27.1'},
              'real': [True, False, False, False, False, False, False, False, False, False, False, False, False, False,
                       False, False],
              'schema_name': 'qcschema_molecule',
              'schema_version': 2,
              'symbols': ['K', 'O', 'H', 'H', 'O', 'H', 'H', 'O', 'H', 'H', 'O', 'H', 'H', 'O', 'H', 'H'],
              'validated': True},
 'protocols': {'stdout': True},
 'provenance': {'creator': 'QCElemental', 'routine': 'qcelemental.models.results', 'version': '0.27.1'},
 'schema_name': 'qcschema_input',
 'schema_version': 1}
--------------------------------------------------------------------------

Scratch directory: /scratch/
   => Libint2 <=

    Primary   basis highest AM E, G, H:  5, 4, 3
    Auxiliary basis highest AM E, G, H:  6, 5, 4
    Onebody   basis highest AM E, G, H:  6, 5, 4
    Solid Harmonics ordering:            gaussian

*** tstart() called on moses-razer
*** at Sat Jan  6 19:47:15 2024

   => Loading Basis Set <=

    Name: AUG-CC-PVTZ
    Role: ORBITAL
    Keyword: BASIS
    atoms 1                            entry K          line  1152 file /home/kchung25/anaconda3/envs/p415env/share/psi4/basis/aug-cc-pvtz.gbs 
    atoms 2, 5, 8, 11, 14              entry O          line   331 file /home/kchung25/anaconda3/envs/p415env/share/psi4/basis/aug-cc-pvtz.gbs 
    atoms 3-4, 6-7, 9-10, 12-13, 15-16 entry H          line    40 file /home/kchung25/anaconda3/envs/p415env/share/psi4/basis/aug-cc-pvtz.gbs 


         ---------------------------------------------------------
                                   SCF
               by Justin Turney, Rob Parrish, Andy Simmonett
                          and Daniel G. A. Smith
                              RHF Reference
                        6 Threads,  57220 MiB Core
         ---------------------------------------------------------

  ==> Geometry <==

    Molecular point group: c1
    Full point group: C1

    Geometry (in Bohr), charge = 1, multiplicity = 1:

       Center              X                  Y                   Z               Mass       
    ------------   -----------------  -----------------  -----------------  -----------------
         K            0.000000000000     0.000000000000     0.000000000000    38.963706486400
      Gh(O)          -4.980477138581    -0.522310852446     2.584444251234    15.994914619570
      Gh(H)          -4.338860316930    -0.637576587194     4.320924926274     1.007825032230
      Gh(H)          -6.595809361444    -1.338508132471     2.365485464529     1.007825032230
      Gh(O)           5.208895894270    -0.974609241670    -0.936555826681    15.994914619570
      Gh(H)           6.435579483266    -1.382183482682     0.298610742893     1.007825032230
      Gh(H)           5.241389734997     0.777646867066    -1.534782646765     1.007825032230
      Gh(O)           0.622220672699     0.565653610859    -4.786545884682    15.994914619570
      Gh(H)           0.580176156134    -0.457587732649    -6.216422275319     1.007825032230
      Gh(H)           0.882188406052     2.291041593543    -5.385923547976     1.007825032230
      Gh(O)           0.381633970488     2.543888838855     4.711875246561    15.994914619570
      Gh(H)          -0.671960154047     4.184739923316     5.166301467402     1.007825032230
      Gh(H)          -0.056300610456     1.194140615390     5.785543931727     1.007825032230
      Gh(O)          -2.127640754927    -4.307086461857    -2.098060871885    15.994914619570
      Gh(H)          -3.461734487169    -4.650784180377    -3.367622346669     1.007825032230
      Gh(H)          -0.959625603221    -5.748970172295    -2.368425878380     1.007825032230

  Running in c1 symmetry.

  Rotational constants: A =      0.04684  B =      0.03661  C =      0.02532 [cm^-1]
  Rotational constants: A =   1404.36320  B =   1097.54072  C =    759.06282 [MHz]
  Nuclear repulsion =    0.000000000000000

  Charge       = 1
  Multiplicity = 1
  Electrons    = 18
  Nalpha       = 9
  Nbeta        = 9

  ==> Algorithm <==

  SCF Algorithm Type is DF.
  DIIS enabled.
  MOM disabled.
  Fractional occupation disabled.
  Guess Type is SAD.
  Energy threshold   = 1.00e-08
  Density threshold  = 1.00e-08
  Integral threshold = 1.00e-12

  ==> Primary Basis <==

  Basis Set: AUG-CC-PVTZ
    Blend: AUG-CC-PVTZ
    Number of shells: 179
    Number of basis functions: 519
    Number of Cartesian functions: 594
    Spherical Harmonics?: true
    Max angular momentum: 3

   => Loading Basis Set <=

    Name: (AUG-CC-PVTZ AUX)
    Role: JKFIT
    Keyword: DF_BASIS_SCF
    atoms 1                            entry K          line  1152 file /home/kchung25/anaconda3/envs/p415env/share/psi4/basis/def2-universal-jkfit.gbs 
    atoms 2, 5, 8, 11, 14              entry O          line   286 file /home/kchung25/anaconda3/envs/p415env/share/psi4/basis/aug-cc-pvtz-jkfit.gbs 
    atoms 3-4, 6-7, 9-10, 12-13, 15-16 entry H          line    70 file /home/kchung25/anaconda3/envs/p415env/share/psi4/basis/aug-cc-pvtz-jkfit.gbs 

  ==> Integral Setup <==

  DFHelper Memory: AOs need 2.055 GiB; user supplied 41.910 GiB. 
  Using in-core AOs.

  ==> MemDFJK: Density-Fitted J/K Matrices <==

    J tasked:                   Yes
    K tasked:                   Yes
    wK tasked:                   No
    OpenMP threads:               6
    Memory [MiB]:             42915
    Algorithm:                 Core
    Schwarz Cutoff:           1E-12
    Mask sparsity (%):      13.4749
    Fitting Condition:        1E-10

   => Auxiliary Basis Set <=

  Basis Set: (AUG-CC-PVTZ AUX)
    Blend: AUG-CC-PVTZ-JKFIT + DEF2-UNIVERSAL-JKFIT
    Number of shells: 334
    Number of basis functions: 1140
    Number of Cartesian functions: 1408
    Spherical Harmonics?: true
    Max angular momentum: 4

  Minimum eigenvalue in the overlap matrix is 5.6970150671E-05.
  Reciprocal condition number of the overlap matrix is 4.4235256585E-06.
    Using symmetric orthogonalization.

  ==> Pre-Iterations <==

  SCF Guess: Superposition of Atomic Densities via on-the-fly atomic UHF (no occupation information).

   -------------------------
    Irrep   Nso     Nmo    
   -------------------------
     A        519     519 
   -------------------------
    Total     519     519
   -------------------------

  ==> Iterations <==

                           Total Energy        Delta E     RMS |[F,P]|

   @DF-RHF iter SAD:  -599.05179105547734   -5.99052e+02   0.00000e+00 
   @DF-RHF iter   1:  -599.01746025568423    3.43308e-02   2.10166e-05 DIIS
   @DF-RHF iter   2:  -599.01751460467585   -5.43490e-05   2.37992e-06 DIIS
   @DF-RHF iter   3:  -599.01751584052636   -1.23585e-06   4.05929e-07 DIIS
   @DF-RHF iter   4:  -599.01751586755086   -2.70245e-08   2.21335e-08 DIIS
   @DF-RHF iter   5:  -599.01751586764067   -8.98126e-11   3.21472e-09 DIIS
  Energy and wave function converged.


  ==> Post-Iterations <==

    Orbital Energies [Eh]
    ---------------------

    Doubly Occupied:                                                      

       1A   -133.752599     2A    -14.708279     3A    -11.738341  
       4A    -11.738340     5A    -11.738338     6A     -1.963924  
       7A     -1.170641     8A     -1.170623     9A     -1.170590  

    Virtual:                                                              

      10A     -0.146959    11A     -0.095557    12A     -0.095554  
      13A     -0.095548    14A     -0.060666    15A     -0.057982  
      16A     -0.057971    17A     -0.057909    18A     -0.057891  
      19A     -0.057875    20A     -0.045542    21A     -0.045540  
      22A     -0.045536    23A     -0.031381    24A     -0.031361  
      25A     -0.031292    26A     -0.031272    27A     -0.031264  
      28A     -0.019211    29A     -0.018898    30A     -0.018202  
      31A     -0.017139    32A     -0.015636    33A     -0.013589  
      34A     -0.011845    35A     -0.011204    36A     -0.009465  
      37A     -0.003675    38A      0.002404    39A      0.004066  
      40A      0.005318    41A      0.007800    42A      0.010729  
      43A      0.012614    44A      0.024820    45A      0.027426  
      46A      0.036343    47A      0.038174    48A      0.044804  
      49A      0.050151    50A      0.053751    51A      0.055494  
      52A      0.057608    53A      0.059116    54A      0.073323  
      55A      0.079828    56A      0.085782    57A      0.086615  
      58A      0.091912    59A      0.093546    60A      0.094619  
      61A      0.098756    62A      0.100084    63A      0.105048  
      64A      0.113577    65A      0.114478    66A      0.121530  
      67A      0.132356    68A      0.133706    69A      0.139211  
      70A      0.141163    71A      0.149201    72A      0.151516  
      73A      0.169970    74A      0.174568    75A      0.181198  
      76A      0.188999    77A      0.191717    78A      0.195693  
      79A      0.202490    80A      0.208356    81A      0.215265  
      82A      0.217997    83A      0.221640    84A      0.227250  
      85A      0.232852    86A      0.238195    87A      0.241402  
      88A      0.247011    89A      0.253426    90A      0.256500  
      91A      0.268411    92A      0.270252    93A      0.277351  
      94A      0.281605    95A      0.286294    96A      0.291401  
      97A      0.292774    98A      0.299511    99A      0.304318  
     100A      0.305659   101A      0.310048   102A      0.314328  
     103A      0.317662   104A      0.318426   105A      0.325197  
     106A      0.329390   107A      0.336148   108A      0.342324  
     109A      0.344235   110A      0.346106   111A      0.350359  
     112A      0.356958   113A      0.362894   114A      0.367061  
     115A      0.375765   116A      0.380278   117A      0.386404  
     118A      0.394152   119A      0.398502   120A      0.401127  
     121A      0.417861   122A      0.423105   123A      0.433585  
     124A      0.437969   125A      0.443051   126A      0.460165  
     127A      0.472282   128A      0.500770   129A      0.543568  
     130A      0.553785   131A      0.567129   132A      0.590566  
     133A      0.600487   134A      0.608890   135A      0.615111  
     136A      0.622557   137A      0.638571   138A      0.643847  
     139A      0.654685   140A      0.663202   141A      0.665629  
     142A      0.672448   143A      0.685603   144A      0.688575  
     145A      0.692288   146A      0.697544   147A      0.701292  
     148A      0.715312   149A      0.716487   150A      0.726516  
     151A      0.730266   152A      0.745125   153A      0.747781  
     154A      0.752214   155A      0.757307   156A      0.758252  
     157A      0.767112   158A      0.776994   159A      0.781580  
     160A      0.785870   161A      0.793155   162A      0.796144  
     163A      0.805562   164A      0.817733   165A      0.820331  
     166A      0.823321   167A      0.824837   168A      0.833461  
     169A      0.837644   170A      0.854677   171A      0.856484  
     172A      0.864528   173A      0.870007   174A      0.887261  
     175A      0.894216   176A      0.898689   177A      0.904260  
     178A      0.913325   179A      0.920321   180A      0.926106  
     181A      0.934853   182A      0.937155   183A      0.941478  
     184A      0.955568   185A      0.956549   186A      0.963516  
     187A      0.970722   188A      0.974710   189A      0.979211  
     190A      0.985881   191A      0.991052   192A      1.004221  
     193A      1.007130   194A      1.020266   195A      1.027049  
     196A      1.030826   197A      1.040205   198A      1.050511  
     199A      1.056161   200A      1.059748   201A      1.075975  
     202A      1.079387   203A      1.085144   204A      1.088994  
     205A      1.096583   206A      1.104623   207A      1.117196  
     208A      1.121223   209A      1.132400   210A      1.138211  
     211A      1.144720   212A      1.153540   213A      1.163507  
     214A      1.165656   215A      1.174054   216A      1.186122  
     217A      1.205780   218A      1.229334   219A      1.248524  
     220A      1.250921   221A      1.259286   222A      1.265152  
     223A      1.317450   224A      1.334111   225A      1.344270  
     226A      1.358692   227A      1.365590   228A      1.401511  
     229A      1.421474   230A      1.443007   231A      1.449090  
     232A      1.462237   233A      1.503406   234A      1.547347  
     235A      1.588020   236A      1.605397   237A      1.612284  
     238A      1.616844   239A      1.630254   240A      1.644879  
     241A      1.661544   242A      1.666498   243A      1.674877  
     244A      1.679627   245A      1.690845   246A      1.697969  
     247A      1.708608   248A      1.716589   249A      1.721197  
     250A      1.730151   251A      1.734891   252A      1.747710  
     253A      1.771721   254A      1.788261   255A      1.793449  
     256A      1.800129   257A      1.819762   258A      1.823526  
     259A      1.839400   260A      1.844932   261A      1.904021  
     262A      1.927868   263A      1.928719   264A      1.952801  
     265A      2.196397   266A      2.219939   267A      2.223713  
     268A      2.238314   269A      2.253298   270A      2.278043  
     271A      2.288941   272A      2.291517   273A      2.311290  
     274A      2.336845   275A      2.348094   276A      2.350279  
     277A      2.357524   278A      2.365901   279A      2.370562  
     280A      2.378203   281A      2.386727   282A      2.392952  
     283A      2.396659   284A      2.402348   285A      2.404925  
     286A      2.410431   287A      2.418081   288A      2.431977  
     289A      2.441768   290A      2.451010   291A      2.462522  
     292A      2.478358   293A      2.485667   294A      2.526090  
     295A      2.551235   296A      2.557097   297A      2.584565  
     298A      2.603222   299A      2.607722   300A      2.626634  
     301A      2.647827   302A      2.671117   303A      2.679193  
     304A      2.704098   305A      2.722102   306A      2.741455  
     307A      2.760412   308A      2.811881   309A      2.821275  
     310A      2.976561   311A      2.995294   312A      3.003122  
     313A      3.014006   314A      3.021925   315A      3.035652  
     316A      3.050274   317A      3.059090   318A      3.072564  
     319A      3.089121   320A      3.098740   321A      3.105628  
     322A      3.116674   323A      3.127881   324A      3.145742  
     325A      3.152152   326A      3.162681   327A      3.169775  
     328A      3.173587   329A      3.183246   330A      3.191490  
     331A      3.203175   332A      3.217801   333A      3.218355  
     334A      3.232241   335A      3.408975   336A      3.429159  
     337A      3.441635   338A      3.469077   339A      3.477285  
     340A      3.540898   341A      3.543257   342A      3.563232  
     343A      3.576321   344A      3.612662   345A      4.179603  
     346A      4.194762   347A      4.200928   348A      4.215759  
     349A      4.228646   350A      4.280182   351A      4.314664  
     352A      4.331877   353A      4.341259   354A      4.357342  
     355A      4.365377   356A      4.391388   357A      4.397465  
     358A      4.416669   359A      4.437152   360A      4.441430  
     361A      4.452888   362A      4.475736   363A      4.481723  
     364A      4.495526   365A      4.500079   366A      4.516184  
     367A      4.526060   368A      4.541202   369A      4.545103  
     370A      4.570343   371A      4.571807   372A      4.606006  
     373A      4.615470   374A      4.623524   375A      4.759686  
     376A      4.767156   377A      4.778871   378A      4.784360  
     379A      4.790071   380A      4.803042   381A      4.823567  
     382A      4.835525   383A      4.839041   384A      4.865436  
     385A      4.876487   386A      4.896616   387A      4.926410  
     388A      4.927423   389A      4.970456   390A      4.985243  
     391A      5.017429   392A      5.019393   393A      5.044046  
     394A      5.069640   395A      5.164840   396A      5.220631  
     397A      5.298410   398A      5.343383   399A      5.356371  
     400A      5.363120   401A      5.366225   402A      5.377391  
     403A      5.384219   404A      5.398019   405A      5.430933  
     406A      5.508096   407A      5.528289   408A      5.553638  
     409A      5.555506   410A      5.565154   411A      5.582136  
     412A      5.586479   413A      5.654681   414A      5.708515  
     415A      5.921590   416A      5.946489   417A      5.986335  
     418A      5.992762   419A      6.006797   420A      6.076786  
     421A      6.086118   422A      6.097088   423A      6.119210  
     424A      6.276051   425A      6.357316   426A      6.389537  
     427A      6.586917   428A      6.659849   429A      6.705928  
     430A      6.764882   431A      6.873562   432A      6.909664  
     433A      6.964499   434A      6.990687   435A      7.470884  
     436A      7.474665   437A      7.481208   438A      7.495029  
     439A      7.503404   440A      7.556305   441A      7.573776  
     442A      7.575528   443A      7.621286   444A      7.641033  
     445A      7.827357   446A      7.852555   447A      7.891235  
     448A      7.915987   449A      7.953217   450A      7.972996  
     451A      7.990524   452A      8.039144   453A      8.048840  
     454A      8.050748   455A      8.063608   456A      8.093068  
     457A      8.106516   458A      8.109278   459A      8.150900  
     460A      8.355025   461A      8.430410   462A      8.527496  
     463A      8.531042   464A      8.556266   465A      8.576461  
     466A      8.635257   467A      8.646049   468A      8.703831  
     469A      8.712817   470A      9.550799   471A      9.586086  
     472A      9.590102   473A      9.616768   474A      9.637190  
     475A      9.715145   476A      9.725238   477A      9.738228  
     478A      9.763049   479A      9.790355   480A      9.816418  
     481A      9.836195   482A      9.846427   483A      9.855849  
     484A      9.862813   485A      9.946785   486A      9.963017  
     487A     10.013549   488A     10.026171   489A     10.051943  
     490A     10.566805   491A     10.874325   492A     10.884381  
     493A     10.892794   494A     11.026898   495A     11.437651  
     496A     11.473161   497A     11.486585   498A     11.515341  
     499A     11.537455   500A     11.628446   501A     11.900894  
     502A     11.933577   503A     12.019894   504A     12.149783  
     505A     13.128921   506A     13.233768   507A     13.289444  
     508A     13.365293   509A     13.457708   510A     13.669457  
     511A     13.698089   512A     13.720872   513A     13.740371  
     514A     13.754680   515A     63.134613   516A     63.436888  
     517A     64.332724   518A     65.002717   519A     65.260317  

    Final Occupation by Irrep:
              A 
    DOCC [     9 ]
    NA   [     9 ]
    NB   [     9 ]

  @DF-RHF Final Energy:  -599.01751586764067

   => Energetics <=

    Nuclear Repulsion Energy =              0.0000000000000000
    One-Electron Energy =                -819.7316841862294723
    Two-Electron Energy =                 220.7141683185887473
    Total Energy =                       -599.0175158676406681

Computation Completed


Properties will be evaluated at   0.000000,   0.000000,   0.000000 [a0]

Properties computed using the SCF density matrix


 Multipole Moments:

 ------------------------------------------------------------------------------------
     Multipole            Electronic (a.u.)      Nuclear  (a.u.)        Total (a.u.)
 ------------------------------------------------------------------------------------

 L = 1.  Multiply by 2.5417464519 to convert [e a0] to [Debye]
 Dipole X            :          0.0000262            0.0000000            0.0000262
 Dipole Y            :         -0.0000246            0.0000000           -0.0000246
 Dipole Z            :         -0.0000798            0.0000000           -0.0000798
 Magnitude           :                                                    0.0000875

 ------------------------------------------------------------------------------------

*** tstop() called on moses-razer at Sat Jan  6 19:47:28 2024
Module time:
	user time   =      41.43 seconds =       0.69 minutes
	system time =       3.40 seconds =       0.06 minutes
	total time  =         13 seconds =       0.22 minutes
Total time:
	user time   =     121.95 seconds =       2.03 minutes
	system time =       8.16 seconds =       0.14 minutes
	total time  =         37 seconds =       0.62 minutes

*** tstart() called on moses-razer
*** at Sat Jan  6 19:47:28 2024


  //>>>>>>>>>>>>>>>>>>>>>>>>>>>>>>>>>>>//
  //               DFMP2               //
  //<<<<<<<<<<<<<<<<<<<<<<<<<<<<<<<<<<<//

   => Loading Basis Set <=

    Name: (AUG-CC-PVTZ AUX)
    Role: RIFIT
    Keyword: DF_BASIS_MP2
    atoms 1                            entry K          line  1282 file /home/kchung25/anaconda3/envs/p415env/share/psi4/basis/def2-qzvpp-ri.gbs 
    atoms 2, 5, 8, 11, 14              entry O          line   264 file /home/kchung25/anaconda3/envs/p415env/share/psi4/basis/aug-cc-pvtz-ri.gbs 
    atoms 3-4, 6-7, 9-10, 12-13, 15-16 entry H          line    30 file /home/kchung25/anaconda3/envs/p415env/share/psi4/basis/aug-cc-pvtz-ri.gbs 

	 --------------------------------------------------------
	                          DF-MP2                         
	      2nd-Order Density-Fitted Moller-Plesset Theory     
	              RMP2 Wavefunction,   6 Threads             
	                                                         
	        Rob Parrish, Justin Turney, Andy Simmonett,      
	           Ed Hohenstein, and C. David Sherrill          
	 --------------------------------------------------------

   => Auxiliary Basis Set <=

  Basis Set: (AUG-CC-PVTZ AUX)
    Blend: AUG-CC-PVTZ-RI + DEF2-QZVPP-RI
    Number of shells: 329
    Number of basis functions: 1189
    Number of Cartesian functions: 1492
    Spherical Harmonics?: true
    Max angular momentum: 4

	 --------------------------------------------------------
	                 NBF =   519, NAUX =  1189
	 --------------------------------------------------------
	   CLASS    FOCC     OCC    AOCC    AVIR     VIR    FVIR
	   PAIRS       0       9       9     510     510       0
	 --------------------------------------------------------

	-----------------------------------------------------------
	 ==================> DF-MP2 Energies <==================== 
	-----------------------------------------------------------
	 Reference Energy          =    -599.0175158676406681 [Eh]
	 Singles Energy            =      -0.0000000000000000 [Eh]
	 Same-Spin Energy          =      -0.0368307135224332 [Eh]
	 Opposite-Spin Energy      =      -0.0897251150617521 [Eh]
	 Correlation Energy        =      -0.1265558285841853 [Eh]
	 Total Energy              =    -599.1440716962248416 [Eh]
	-----------------------------------------------------------
	 ================> DF-SCS-MP2 Energies <================== 
	-----------------------------------------------------------
	 SCS Same-Spin Scale       =       0.3333333333333333 [-]
	 SCS Opposite-Spin Scale   =       1.2000000000000000 [-]
	 SCS Same-Spin Energy      =      -0.0122769045074777 [Eh]
	 SCS Opposite-Spin Energy  =      -0.1076701380741025 [Eh]
	 SCS Correlation Energy    =      -0.1199470425815802 [Eh]
	 SCS Total Energy          =    -599.1374629102222116 [Eh]
	-----------------------------------------------------------


*** tstop() called on moses-razer at Sat Jan  6 19:47:36 2024
Module time:
	user time   =      18.78 seconds =       0.31 minutes
	system time =       1.49 seconds =       0.02 minutes
	total time  =          8 seconds =       0.13 minutes
Total time:
	user time   =     140.74 seconds =       2.35 minutes
	system time =       9.65 seconds =       0.16 minutes
	total time  =         45 seconds =       0.75 minutes

    Psi4 stopped on: Saturday, 06 January 2024 07:47PM
    Psi4 wall time for execution: 0:00:21.65


    -----------------------------------------------------------------------
          Psi4: An Open-Source Ab Initio Electronic Structure Package
                               Psi4 1.9 release

                         Git: Rev {} zzzzzzz 


    D. G. A. Smith, L. A. Burns, A. C. Simmonett, R. M. Parrish,
    M. C. Schieber, R. Galvelis, P. Kraus, H. Kruse, R. Di Remigio,
    A. Alenaizan, A. M. James, S. Lehtola, J. P. Misiewicz, M. Scheurer,
    R. A. Shaw, J. B. Schriber, Y. Xie, Z. L. Glick, D. A. Sirianni,
    J. S. O'Brien, J. M. Waldrop, A. Kumar, E. G. Hohenstein,
    B. P. Pritchard, B. R. Brooks, H. F. Schaefer III, A. Yu. Sokolov,
    K. Patkowski, A. E. DePrince III, U. Bozkaya, R. A. King,
    F. A. Evangelista, J. M. Turney, T. D. Crawford, C. D. Sherrill,
    J. Chem. Phys. 152(18) 184108 (2020). https://doi.org/10.1063/5.0006002

                            Additional Code Authors
    E. T. Seidl, C. L. Janssen, E. F. Valeev, M. L. Leininger,
    J. F. Gonthier, R. M. Richard, H. R. McAlexander, M. Saitow, X. Wang,
    P. Verma, M. H. Lechner, A. Jiang, S. Behnle, A. G. Heide,
    M. F. Herbst, and D. L. Poole

             Previous Authors, Complete List of Code Contributors,
                       and Citations for Specific Modules
    https://github.com/psi4/psi4/blob/master/codemeta.json
    https://github.com/psi4/psi4/graphs/contributors
    http://psicode.org/psi4manual/master/introduction.html#citing-psifour

    -----------------------------------------------------------------------


    Psi4 started on: Saturday, 06 January 2024 07:46PM

    Process ID: 553675
    Host:       moses-razer
    PSIDATADIR: /home/kchung25/anaconda3/envs/psi4_19/share/psi4
    Memory:     55.9 GiB
    Threads:    6
    
  ==> Input QCSchema <==

--------------------------------------------------------------------------
{'driver': 'energy',
 'extras': {'psiapi': True, 'wfn_qcvars_only': True},
 'id': None,
 'keywords': {'SCF_TYPE': 'DF', 'function_kwargs': {}},
 'model': {'basis': 'aug-cc-pvtz', 'method': 'mp2'},
 'molecule': {'atom_labels': ['', '', '', '', '', '', '', '', '', '', '', '', '', '', '', ''],
              'atomic_numbers': [19, 8, 1, 1, 8, 1, 1, 8, 1, 1, 8, 1, 1, 8, 1, 1],
              'extras': {},
              'fix_com': True,
              'fix_orientation': True,
              'fix_symmetry': 'c1',
              'fragment_charges': [1.0, 0.0],
              'fragment_multiplicities': [1, 1],
              'fragments': [[0], [1, 2, 3, 4, 5, 6, 7, 8, 9, 10, 11, 12, 13, 14, 15]],
              'geometry': [0.0, 0.0, 0.0, -4.980477138581007, -0.5223108524459165, 2.584444251233764,
                           -4.338860316930435, -0.6375765871943421, 4.320924926273715, -6.5958093614439814,
                           -1.3385081324707835, 2.365485464529216, 5.208895894269595, -0.9746092416697457,
                           -0.9365558266814015, 6.435579483266412, -1.3821834826823647, 0.2986107428925951,
                           5.241389734996843, 0.7776468670655272, -1.5347826467653352, 0.6222206726988717,
                           0.5656536108594172, -4.786545884682022, 0.5801761561335605, -0.4575877326489858,
                           -6.216422275318691, 0.8821884060519798, 2.2910415935429307, -5.385923547976359,
                           0.3816339704884593, 2.5438888388553136, 4.711875246560681, -0.6719601540470473,
                           4.184739923316471, 5.166301467401777, -0.05630061045576507, 1.1941406153903071,
                           5.785543931726926, -2.1276407549268432, -4.307086461856987, -2.098060871885052,
                           -3.4617344871685574, -4.65078418037688, -3.3676223466685062, -0.9596256032209907,
                           -5.748970172294816, -2.3684258783804286],
              'mass_numbers': [39, 16, 1, 1, 16, 1, 1, 16, 1, 1, 16, 1, 1, 16, 1, 1],
              'masses': [38.9637064864, 15.99491461957, 1.00782503223, 1.00782503223, 15.99491461957, 1.00782503223,
                         1.00782503223, 15.99491461957, 1.00782503223, 1.00782503223, 15.99491461957, 1.00782503223,
                         1.00782503223, 15.99491461957, 1.00782503223, 1.00782503223],
              'molecular_charge': 1.0,
              'molecular_multiplicity': 1,
              'name': 'dimer',
              'provenance': {'creator': 'QCElemental',
                             'routine': 'qcelemental.molparse.from_string',
                             'version': '0.27.1'},
              'real': [True, True, True, True, True, True, True, True, True, True, True, True, True, True, True, True],
              'schema_name': 'qcschema_molecule',
              'schema_version': 2,
              'symbols': ['K', 'O', 'H', 'H', 'O', 'H', 'H', 'O', 'H', 'H', 'O', 'H', 'H', 'O', 'H', 'H'],
              'validated': True},
 'protocols': {'stdout': True},
 'provenance': {'creator': 'QCElemental', 'routine': 'qcelemental.models.results', 'version': '0.27.1'},
 'schema_name': 'qcschema_input',
 'schema_version': 1}
--------------------------------------------------------------------------

Scratch directory: /scratch/
   => Libint2 <=

    Primary   basis highest AM E, G, H:  5, 4, 3
    Auxiliary basis highest AM E, G, H:  6, 5, 4
    Onebody   basis highest AM E, G, H:  6, 5, 4
    Solid Harmonics ordering:            gaussian

*** tstart() called on moses-razer
*** at Sat Jan  6 19:47:36 2024

   => Loading Basis Set <=

    Name: AUG-CC-PVTZ
    Role: ORBITAL
    Keyword: BASIS
    atoms 1                            entry K          line  1152 file /home/kchung25/anaconda3/envs/p415env/share/psi4/basis/aug-cc-pvtz.gbs 
    atoms 2, 5, 8, 11, 14              entry O          line   331 file /home/kchung25/anaconda3/envs/p415env/share/psi4/basis/aug-cc-pvtz.gbs 
    atoms 3-4, 6-7, 9-10, 12-13, 15-16 entry H          line    40 file /home/kchung25/anaconda3/envs/p415env/share/psi4/basis/aug-cc-pvtz.gbs 


         ---------------------------------------------------------
                                   SCF
               by Justin Turney, Rob Parrish, Andy Simmonett
                          and Daniel G. A. Smith
                              RHF Reference
                        6 Threads,  57220 MiB Core
         ---------------------------------------------------------

  ==> Geometry <==

    Molecular point group: c1
    Full point group: C1

    Geometry (in Bohr), charge = 1, multiplicity = 1:

       Center              X                  Y                   Z               Mass       
    ------------   -----------------  -----------------  -----------------  -----------------
         K            0.000000000000     0.000000000000     0.000000000000    38.963706486400
         O           -4.980477138581    -0.522310852446     2.584444251234    15.994914619570
         H           -4.338860316930    -0.637576587194     4.320924926274     1.007825032230
         H           -6.595809361444    -1.338508132471     2.365485464529     1.007825032230
         O            5.208895894270    -0.974609241670    -0.936555826681    15.994914619570
         H            6.435579483266    -1.382183482682     0.298610742893     1.007825032230
         H            5.241389734997     0.777646867066    -1.534782646765     1.007825032230
         O            0.622220672699     0.565653610859    -4.786545884682    15.994914619570
         H            0.580176156134    -0.457587732649    -6.216422275319     1.007825032230
         H            0.882188406052     2.291041593543    -5.385923547976     1.007825032230
         O            0.381633970488     2.543888838855     4.711875246561    15.994914619570
         H           -0.671960154047     4.184739923316     5.166301467402     1.007825032230
         H           -0.056300610456     1.194140615390     5.785543931727     1.007825032230
         O           -2.127640754927    -4.307086461857    -2.098060871885    15.994914619570
         H           -3.461734487169    -4.650784180377    -3.367622346669     1.007825032230
         H           -0.959625603221    -5.748970172295    -2.368425878380     1.007825032230

  Running in c1 symmetry.

  Rotational constants: A =      0.04684  B =      0.03661  C =      0.02532 [cm^-1]
  Rotational constants: A =   1404.36320  B =   1097.54072  C =    759.06282 [MHz]
  Nuclear repulsion =  342.424357622533819

  Charge       = 1
  Multiplicity = 1
  Electrons    = 68
  Nalpha       = 34
  Nbeta        = 34

  ==> Algorithm <==

  SCF Algorithm Type is DF.
  DIIS enabled.
  MOM disabled.
  Fractional occupation disabled.
  Guess Type is SAD.
  Energy threshold   = 1.00e-08
  Density threshold  = 1.00e-08
  Integral threshold = 1.00e-12

  ==> Primary Basis <==

  Basis Set: AUG-CC-PVTZ
    Blend: AUG-CC-PVTZ
    Number of shells: 179
    Number of basis functions: 519
    Number of Cartesian functions: 594
    Spherical Harmonics?: true
    Max angular momentum: 3

   => Loading Basis Set <=

    Name: (AUG-CC-PVTZ AUX)
    Role: JKFIT
    Keyword: DF_BASIS_SCF
    atoms 1                            entry K          line  1152 file /home/kchung25/anaconda3/envs/p415env/share/psi4/basis/def2-universal-jkfit.gbs 
    atoms 2, 5, 8, 11, 14              entry O          line   286 file /home/kchung25/anaconda3/envs/p415env/share/psi4/basis/aug-cc-pvtz-jkfit.gbs 
    atoms 3-4, 6-7, 9-10, 12-13, 15-16 entry H          line    70 file /home/kchung25/anaconda3/envs/p415env/share/psi4/basis/aug-cc-pvtz-jkfit.gbs 

  ==> Integral Setup <==

  DFHelper Memory: AOs need 2.055 GiB; user supplied 41.910 GiB. 
  Using in-core AOs.

  ==> MemDFJK: Density-Fitted J/K Matrices <==

    J tasked:                   Yes
    K tasked:                   Yes
    wK tasked:                   No
    OpenMP threads:               6
    Memory [MiB]:             42915
    Algorithm:                 Core
    Schwarz Cutoff:           1E-12
    Mask sparsity (%):      13.4749
    Fitting Condition:        1E-10

   => Auxiliary Basis Set <=

  Basis Set: (AUG-CC-PVTZ AUX)
    Blend: AUG-CC-PVTZ-JKFIT + DEF2-UNIVERSAL-JKFIT
    Number of shells: 334
    Number of basis functions: 1140
    Number of Cartesian functions: 1408
    Spherical Harmonics?: true
    Max angular momentum: 4

  Minimum eigenvalue in the overlap matrix is 5.6970150671E-05.
  Reciprocal condition number of the overlap matrix is 4.4235256585E-06.
    Using symmetric orthogonalization.

  ==> Pre-Iterations <==

  SCF Guess: Superposition of Atomic Densities via on-the-fly atomic UHF (no occupation information).

   -------------------------
    Irrep   Nso     Nmo    
   -------------------------
     A        519     519 
   -------------------------
    Total     519     519
   -------------------------

  ==> Iterations <==

                           Total Energy        Delta E     RMS |[F,P]|

   @DF-RHF iter SAD:  -976.51308720269583   -9.76513e+02   0.00000e+00 
   @DF-RHF iter   1:  -978.93450728534992   -2.42142e+00   2.06939e-03 ADIIS/DIIS
   @DF-RHF iter   2:  -979.21157346173277   -2.77066e-01   1.40390e-03 ADIIS/DIIS
   @DF-RHF iter   3:  -979.37650072079100   -1.64927e-01   9.81121e-05 DIIS
   @DF-RHF iter   4:  -979.37863900937725   -2.13829e-03   2.68450e-05 DIIS
   @DF-RHF iter   5:  -979.37879457762483   -1.55568e-04   8.62510e-06 DIIS
   @DF-RHF iter   6:  -979.37881012262699   -1.55450e-05   3.54429e-06 DIIS
   @DF-RHF iter   7:  -979.37881252246632   -2.39984e-06   6.92527e-07 DIIS
   @DF-RHF iter   8:  -979.37881270857974   -1.86113e-07   1.40093e-07 DIIS
   @DF-RHF iter   9:  -979.37881271482058   -6.24084e-09   4.41858e-08 DIIS
   @DF-RHF iter  10:  -979.37881271519564   -3.75053e-10   1.50622e-08 DIIS
   @DF-RHF iter  11:  -979.37881271523622   -4.05862e-11   4.50615e-09 DIIS
  Energy and wave function converged.


  ==> Post-Iterations <==

    Orbital Energies [Eh]
    ---------------------

    Doubly Occupied:                                                      

       1A   -133.603078     2A    -20.716370     3A    -20.711930  
       4A    -20.707379     5A    -20.698601     6A    -20.697074  
       7A    -14.560756     8A    -11.590739     9A    -11.590565  
      10A    -11.590498    11A     -1.823155    12A     -1.505836  
      13A     -1.480593    14A     -1.479698    15A     -1.474989  
      16A     -1.473929    17A     -1.035788    18A     -1.031669  
      19A     -1.031481    20A     -0.873907    21A     -0.868660  
      22A     -0.859645    23A     -0.853015    24A     -0.829803  
      25A     -0.741192    26A     -0.726768    27A     -0.716017  
      28A     -0.704833    29A     -0.701434    30A     -0.662563  
      31A     -0.655390    32A     -0.646747    33A     -0.644502  
      34A     -0.639953  

    Virtual:                                                              

      35A     -0.087691    36A     -0.072438    37A     -0.068030  
      38A     -0.063180    39A     -0.050407    40A     -0.049744  
      41A     -0.046913    42A     -0.046101    43A     -0.043838  
      44A     -0.040023    45A     -0.036700    46A     -0.034226  
      47A     -0.033043    48A     -0.022715    49A     -0.021481  
      50A     -0.020037    51A     -0.018828    52A     -0.017134  
      53A     -0.015655    54A     -0.013085    55A     -0.010321  
      56A     -0.009596    57A     -0.006134    58A     -0.005020  
      59A     -0.000088    60A      0.005484    61A      0.012213  
      62A      0.013991    63A      0.018035    64A      0.018770  
      65A      0.022460    66A      0.033055    67A      0.049637  
      68A      0.050777    69A      0.058032    70A      0.061426  
      71A      0.064065    72A      0.073796    73A      0.077551  
      74A      0.080140    75A      0.082755    76A      0.088204  
      77A      0.093260    78A      0.094243    79A      0.104004  
      80A      0.105369    81A      0.107111    82A      0.110826  
      83A      0.118592    84A      0.122320    85A      0.125876  
      86A      0.129682    87A      0.133597    88A      0.135717  
      89A      0.143144    90A      0.149016    91A      0.152486  
      92A      0.154941    93A      0.160753    94A      0.165565  
      95A      0.167894    96A      0.176887    97A      0.179261  
      98A      0.186595    99A      0.189501   100A      0.198825  
     101A      0.208781   102A      0.214562   103A      0.222789  
     104A      0.229885   105A      0.237740   106A      0.239745  
     107A      0.251362   108A      0.252802   109A      0.257427  
     110A      0.264819   111A      0.266776   112A      0.276892  
     113A      0.284878   114A      0.294386   115A      0.296658  
     116A      0.301496   117A      0.306112   118A      0.309755  
     119A      0.315184   120A      0.318787   121A      0.327020  
     122A      0.329965   123A      0.332494   124A      0.337651  
     125A      0.342367   126A      0.344107   127A      0.356951  
     128A      0.359322   129A      0.361619   130A      0.364005  
     131A      0.369615   132A      0.374639   133A      0.377168  
     134A      0.383324   135A      0.386232   136A      0.389918  
     137A      0.398559   138A      0.402707   139A      0.405606  
     140A      0.407424   141A      0.415320   142A      0.418508  
     143A      0.422327   144A      0.428226   145A      0.443915  
     146A      0.452654   147A      0.456734   148A      0.465499  
     149A      0.472519   150A      0.487067   151A      0.490727  
     152A      0.520852   153A      0.535696   154A      0.550573  
     155A      0.562582   156A      0.584655   157A      0.593438  
     158A      0.594553   159A      0.604267   160A      0.612233  
     161A      0.626926   162A      0.637506   163A      0.642105  
     164A      0.645604   165A      0.661478   166A      0.669928  
     167A      0.678981   168A      0.692925   169A      0.699805  
     170A      0.714517   171A      0.715716   172A      0.725895  
     173A      0.730126   174A      0.737562   175A      0.743912  
     176A      0.755501   177A      0.755687   178A      0.763490  
     179A      0.776444   180A      0.785048   181A      0.796740  
     182A      0.800101   183A      0.808454   184A      0.814151  
     185A      0.823233   186A      0.823787   187A      0.834137  
     188A      0.843890   189A      0.845945   190A      0.857096  
     191A      0.860465   192A      0.865425   193A      0.870915  
     194A      0.880204   195A      0.885936   196A      0.895072  
     197A      0.907823   198A      0.912243   199A      0.917533  
     200A      0.918472   201A      0.933163   202A      0.936269  
     203A      0.939655   204A      0.948069   205A      0.948858  
     206A      0.959626   207A      0.967623   208A      0.972239  
     209A      0.975273   210A      0.978690   211A      0.983850  
     212A      0.987635   213A      0.997661   214A      1.008295  
     215A      1.010470   216A      1.013702   217A      1.017655  
     218A      1.027481   219A      1.034746   220A      1.040316  
     221A      1.049334   222A      1.052066   223A      1.059109  
     224A      1.074701   225A      1.078131   226A      1.081134  
     227A      1.085243   228A      1.103295   229A      1.107347  
     230A      1.115813   231A      1.121107   232A      1.126180  
     233A      1.131077   234A      1.137657   235A      1.149077  
     236A      1.151698   237A      1.159349   238A      1.169272  
     239A      1.191500   240A      1.202590   241A      1.213833  
     242A      1.224161   243A      1.236405   244A      1.243047  
     245A      1.265032   246A      1.267843   247A      1.274639  
     248A      1.286127   249A      1.302457   250A      1.338211  
     251A      1.372352   252A      1.392348   253A      1.401058  
     254A      1.433552   255A      1.447565   256A      1.465810  
     257A      1.490619   258A      1.505712   259A      1.525861  
     260A      1.533996   261A      1.543221   262A      1.556279  
     263A      1.564406   264A      1.579593   265A      1.604806  
     266A      1.609631   267A      1.612473   268A      1.629169  
     269A      1.642813   270A      1.654864   271A      1.716125  
     272A      1.728316   273A      1.734398   274A      1.742870  
     275A      1.785409   276A      1.803827   277A      1.821627  
     278A      1.832069   279A      1.855227   280A      1.869938  
     281A      1.886027   282A      1.912997   283A      1.922224  
     284A      1.950068   285A      1.991236   286A      2.016435  
     287A      2.033302   288A      2.036324   289A      2.038731  
     290A      2.182446   291A      2.185355   292A      2.195329  
     293A      2.199542   294A      2.211934   295A      2.212851  
     296A      2.220826   297A      2.223743   298A      2.229340  
     299A      2.239640   300A      2.248750   301A      2.265401  
     302A      2.278402   303A      2.288021   304A      2.296255  
     305A      2.311828   306A      2.312940   307A      2.320628  
     308A      2.334386   309A      2.337186   310A      2.349185  
     311A      2.368286   312A      2.377688   313A      2.388172  
     314A      2.402896   315A      2.418272   316A      2.434365  
     317A      2.455219   318A      2.483449   319A      2.489669  
     320A      2.521666   321A      2.554536   322A      2.584841  
     323A      2.591739   324A      2.606094   325A      2.619183  
     326A      2.624628   327A      2.639889   328A      2.642112  
     329A      2.657983   330A      2.663558   331A      2.666889  
     332A      2.679704   333A      2.685717   334A      2.697805  
     335A      2.707595   336A      2.716081   337A      2.725181  
     338A      2.734959   339A      2.745357   340A      2.764960  
     341A      2.773970   342A      2.786799   343A      2.795310  
     344A      2.804297   345A      2.807847   346A      2.828137  
     347A      2.847791   348A      2.868507   349A      2.876153  
     350A      3.466008   351A      3.555928   352A      3.575439  
     353A      3.599430   354A      3.645621   355A      3.654359  
     356A      3.719797   357A      3.736868   358A      3.749515  
     359A      3.770882   360A      3.889159   361A      3.896814  
     362A      3.915441   363A      3.929330   364A      3.933716  
     365A      4.006588   366A      4.037110   367A      4.047062  
     368A      4.058359   369A      4.080383   370A      4.095005  
     371A      4.098945   372A      4.113878   373A      4.117467  
     374A      4.125861   375A      4.137792   376A      4.145855  
     377A      4.164341   378A      4.166060   379A      4.180688  
     380A      4.204665   381A      4.221063   382A      4.237664  
     383A      4.246169   384A      4.258698   385A      4.269235  
     386A      4.281294   387A      4.296835   388A      4.307044  
     389A      4.311777   390A      4.318942   391A      4.322639  
     392A      4.342657   393A      4.345729   394A      4.349409  
     395A      4.356157   396A      4.361085   397A      4.379993  
     398A      4.399621   399A      4.401608   400A      4.405614  
     401A      4.450587   402A      4.469523   403A      4.472818  
     404A      4.502607   405A      4.508176   406A      4.592496  
     407A      4.610111   408A      4.615501   409A      4.624797  
     410A      4.640318   411A      4.650976   412A      4.676666  
     413A      4.685207   414A      4.741772   415A      4.842520  
     416A      4.885562   417A      4.944364   418A      4.972932  
     419A      4.975737   420A      4.997626   421A      5.013444  
     422A      5.030594   423A      5.044349   424A      5.061283  
     425A      5.090737   426A      5.101810   427A      5.116787  
     428A      5.161312   429A      5.175039   430A      5.176956  
     431A      5.201743   432A      5.240021   433A      5.278805  
     434A      5.296641   435A      5.327342   436A      5.334053  
     437A      5.337999   438A      5.360963   439A      5.420377  
     440A      5.540068   441A      5.584406   442A      5.714181  
     443A      5.725814   444A      5.761997   445A      5.960851  
     446A      6.002461   447A      6.022814   448A      6.157730  
     449A      6.192296   450A      6.449911   451A      6.468804  
     452A      6.485981   453A      6.503269   454A      6.516906  
     455A      6.583212   456A      6.588394   457A      6.593974  
     458A      6.608766   459A      6.617815   460A      6.694276  
     461A      6.701878   462A      6.709492   463A      6.761144  
     464A      6.779164   465A      6.917815   466A      6.991548  
     467A      7.041356   468A      7.056572   469A      7.071381  
     470A      7.080660   471A      7.126340   472A      7.128205  
     473A      7.137570   474A      7.142243   475A      7.171197  
     476A      7.177681   477A      7.186274   478A      7.193210  
     479A      7.204344   480A      7.214716   481A      7.221226  
     482A      7.231089   483A      7.232978   484A      7.247594  
     485A      7.257713   486A      7.264641   487A      7.274038  
     488A      7.279591   489A      7.286437   490A      7.289200  
     491A      7.291929   492A      7.296837   493A      7.326348  
     494A      7.385049   495A      7.390105   496A      7.403025  
     497A      7.483408   498A      7.499892   499A      7.515173  
     500A      7.662133   501A      7.686454   502A      7.695040  
     503A      7.711413   504A      7.744316   505A      7.783714  
     506A      7.793642   507A      7.856462   508A      7.882101  
     509A      7.921020   510A      8.376849   511A      8.546900  
     512A      8.572478   513A      8.611741   514A      8.716395  
     515A     14.895382   516A     15.105142   517A     15.578736  
     518A     15.954786   519A     16.079863  

    Final Occupation by Irrep:
              A 
    DOCC [    34 ]
    NA   [    34 ]
    NB   [    34 ]

  @DF-RHF Final Energy:  -979.37881271523622

   => Energetics <=

    Nuclear Repulsion Energy =            342.4243576225338188
    One-Electron Energy =               -2023.7492190294378815
    Two-Electron Energy =                 701.9460486916678974
    Total Energy =                       -979.3788127152362222

Computation Completed


Properties will be evaluated at   0.000000,   0.000000,   0.000000 [a0]

Properties computed using the SCF density matrix


 Multipole Moments:

 ------------------------------------------------------------------------------------
     Multipole            Electronic (a.u.)      Nuclear  (a.u.)        Total (a.u.)
 ------------------------------------------------------------------------------------

 L = 1.  Multiply by 2.5417464519 to convert [e a0] to [Debye]
 Dipole X            :          9.6599422          -10.1078956           -0.4479534
 Dipole Y            :         27.0783849          -27.3237541           -0.2453693
 Dipole Z            :          5.0468789           -5.1350548           -0.0881759
 Magnitude           :                                                    0.5183081

 ------------------------------------------------------------------------------------

*** tstop() called on moses-razer at Sat Jan  6 19:47:53 2024
Module time:
	user time   =      60.79 seconds =       1.01 minutes
	system time =       3.64 seconds =       0.06 minutes
	total time  =         17 seconds =       0.28 minutes
Total time:
	user time   =     201.88 seconds =       3.36 minutes
	system time =      13.30 seconds =       0.22 minutes
	total time  =         62 seconds =       1.03 minutes

*** tstart() called on moses-razer
*** at Sat Jan  6 19:47:53 2024


  //>>>>>>>>>>>>>>>>>>>>>>>>>>>>>>>>>>>//
  //               DFMP2               //
  //<<<<<<<<<<<<<<<<<<<<<<<<<<<<<<<<<<<//

   => Loading Basis Set <=

    Name: (AUG-CC-PVTZ AUX)
    Role: RIFIT
    Keyword: DF_BASIS_MP2
    atoms 1                            entry K          line  1282 file /home/kchung25/anaconda3/envs/p415env/share/psi4/basis/def2-qzvpp-ri.gbs 
    atoms 2, 5, 8, 11, 14              entry O          line   264 file /home/kchung25/anaconda3/envs/p415env/share/psi4/basis/aug-cc-pvtz-ri.gbs 
    atoms 3-4, 6-7, 9-10, 12-13, 15-16 entry H          line    30 file /home/kchung25/anaconda3/envs/p415env/share/psi4/basis/aug-cc-pvtz-ri.gbs 

	 --------------------------------------------------------
	                          DF-MP2                         
	      2nd-Order Density-Fitted Moller-Plesset Theory     
	              RMP2 Wavefunction,   6 Threads             
	                                                         
	        Rob Parrish, Justin Turney, Andy Simmonett,      
	           Ed Hohenstein, and C. David Sherrill          
	 --------------------------------------------------------

   => Auxiliary Basis Set <=

  Basis Set: (AUG-CC-PVTZ AUX)
    Blend: AUG-CC-PVTZ-RI + DEF2-QZVPP-RI
    Number of shells: 329
    Number of basis functions: 1189
    Number of Cartesian functions: 1492
    Spherical Harmonics?: true
    Max angular momentum: 4

	 --------------------------------------------------------
	                 NBF =   519, NAUX =  1189
	 --------------------------------------------------------
	   CLASS    FOCC     OCC    AOCC    AVIR     VIR    FVIR
	   PAIRS       0      34      34     485     485       0
	 --------------------------------------------------------

	-----------------------------------------------------------
	 ==================> DF-MP2 Energies <==================== 
	-----------------------------------------------------------
	 Reference Energy          =    -979.3788127152362222 [Eh]
	 Singles Energy            =      -0.0000000000000000 [Eh]
	 Same-Spin Energy          =      -0.3849922640497812 [Eh]
	 Opposite-Spin Energy      =      -1.1736628383015111 [Eh]
	 Correlation Energy        =      -1.5586551023512922 [Eh]
	 Total Energy              =    -980.9374678175875033 [Eh]
	-----------------------------------------------------------
	 ================> DF-SCS-MP2 Energies <================== 
	-----------------------------------------------------------
	 SCS Same-Spin Scale       =       0.3333333333333333 [-]
	 SCS Opposite-Spin Scale   =       1.2000000000000000 [-]
	 SCS Same-Spin Energy      =      -0.1283307546832604 [Eh]
	 SCS Opposite-Spin Energy  =      -1.4083954059618133 [Eh]
	 SCS Correlation Energy    =      -1.5367261606450737 [Eh]
	 SCS Total Energy          =    -980.9155388758813388 [Eh]
	-----------------------------------------------------------


*** tstop() called on moses-razer at Sat Jan  6 19:48:03 2024
Module time:
	user time   =      31.27 seconds =       0.52 minutes
	system time =       1.78 seconds =       0.03 minutes
	total time  =         10 seconds =       0.17 minutes
Total time:
	user time   =     233.16 seconds =       3.89 minutes
	system time =      15.08 seconds =       0.25 minutes
	total time  =         72 seconds =       1.20 minutes

    Psi4 stopped on: Saturday, 06 January 2024 07:48PM
    Psi4 wall time for execution: 0:00:26.94


  //>>>>>>>>>>>>>>>>>>>>>>>>>>>>>>>>>>>//
  //          ManyBody Results         //
  //<<<<<<<<<<<<<<<<<<<<<<<<<<<<<<<<<<<//


   ==> N-Body: Counterpoise Corrected (CP) energies <==

        n-Body     Total Energy            Interaction Energy                          N-body Contribution to Interaction Energy
                   [Eh]                    [Eh]                  [kcal/mol]            [Eh]                  [kcal/mol]
             1  N/A                         0.000000000000        0.000000000000        0.000000000000        0.000000000000
  FULL/RTN   2  N/A                        -0.099067847794      -62.166013037346       -0.099067847794      -62.166013037346


    Psi4 stopped on: Saturday, 06 January 2024 07:48PM
    Psi4 wall time for execution: 0:01:13.79

*** Psi4 exiting successfully. Buy a developer a beer!
