
    -----------------------------------------------------------------------
          Psi4: An Open-Source Ab Initio Electronic Structure Package
                               Psi4 1.9 release

                         Git: Rev {} zzzzzzz 


    D. G. A. Smith, L. A. Burns, A. C. Simmonett, R. M. Parrish,
    M. C. Schieber, R. Galvelis, P. Kraus, H. Kruse, R. Di Remigio,
    A. Alenaizan, A. M. James, S. Lehtola, J. P. Misiewicz, M. Scheurer,
    R. A. Shaw, J. B. Schriber, Y. Xie, Z. L. Glick, D. A. Sirianni,
    J. S. O'Brien, J. M. Waldrop, A. Kumar, E. G. Hohenstein,
    B. P. Pritchard, B. R. Brooks, H. F. Schaefer III, A. Yu. Sokolov,
    K. Patkowski, A. E. DePrince III, U. Bozkaya, R. A. King,
    F. A. Evangelista, J. M. Turney, T. D. Crawford, C. D. Sherrill,
    J. Chem. Phys. 152(18) 184108 (2020). https://doi.org/10.1063/5.0006002

                            Additional Code Authors
    E. T. Seidl, C. L. Janssen, E. F. Valeev, M. L. Leininger,
    J. F. Gonthier, R. M. Richard, H. R. McAlexander, M. Saitow, X. Wang,
    P. Verma, M. H. Lechner, A. Jiang, S. Behnle, A. G. Heide,
    M. F. Herbst, and D. L. Poole

             Previous Authors, Complete List of Code Contributors,
                       and Citations for Specific Modules
    https://github.com/psi4/psi4/blob/master/codemeta.json
    https://github.com/psi4/psi4/graphs/contributors
    http://psicode.org/psi4manual/master/introduction.html#citing-psifour

    -----------------------------------------------------------------------


    Psi4 started on: Wednesday, 24 January 2024 03:31PM

    Process ID: 1224860
    Host:       moses-razer
    PSIDATADIR: /home/kchung25/anaconda3/envs/psi4_19/share/psi4
    Memory:     500.0 MiB
    Threads:    6
    
  ==> Input File <==

--------------------------------------------------------------------------
MEMORY 60 GB

molecule dimer {
0 1
Gh(K)      0.000000     0.000000     0.000000
O          2.076023    -1.563908     0.741741
H          2.860617    -0.996316     0.828705
H          1.615351    -1.618906     1.563939
Gh(O)     -1.095486     0.399597     2.643072
Gh(H)     -0.801901     1.238172     2.228137
Gh(H)     -2.076198     0.356254     2.753986
Gh(O)     -2.028741     1.602653    -1.083314
Gh(H)     -2.848075     1.047294    -0.966116
Gh(H)     -1.766923     1.523944    -2.040760
Gh(O)      0.327369     2.348814     1.409380
Gh(H)      0.118789     3.251871     1.602415
Gh(H)      1.209539     2.243806     1.770572
Gh(O)      2.277164     1.411722    -0.881632
Gh(H)      2.742637     1.640937    -0.087027
Gh(H)      2.895810     0.946922    -1.465846
Gh(O)      0.049667    -1.666994    -2.004447
Gh(H)     -0.029129    -1.163117    -2.830753
Gh(H)      0.898871    -2.063134    -2.055004

units ang
no_reorient
no_com
symmetry c1
}

set {
basis        aug-cc-pVTZ
scf_type     df
}

energy("mp2")
--------------------------------------------------------------------------

  Memory set to  55.879 GiB by Python driver.

Scratch directory: /scratch/
   => Libint2 <=

    Primary   basis highest AM E, G, H:  5, 4, 3
    Auxiliary basis highest AM E, G, H:  6, 5, 4
    Onebody   basis highest AM E, G, H:  6, 5, 4
    Solid Harmonics ordering:            gaussian

*** tstart() called on moses-razer
*** at Wed Jan 24 15:31:36 2024

   => Loading Basis Set <=

    Name: AUG-CC-PVTZ
    Role: ORBITAL
    Keyword: BASIS
    atoms 1                                   entry K          line  1152 file /home/kchung25/anaconda3/envs/p415env/share/psi4/basis/aug-cc-pvtz.gbs 
    atoms 2, 5, 8, 11, 14, 17                 entry O          line   331 file /home/kchung25/anaconda3/envs/p415env/share/psi4/basis/aug-cc-pvtz.gbs 
    atoms 3-4, 6-7, 9-10, 12-13, 15-16, 18-19 entry H          line    40 file /home/kchung25/anaconda3/envs/p415env/share/psi4/basis/aug-cc-pvtz.gbs 


         ---------------------------------------------------------
                                   SCF
               by Justin Turney, Rob Parrish, Andy Simmonett
                          and Daniel G. A. Smith
                              RHF Reference
                        6 Threads,  57220 MiB Core
         ---------------------------------------------------------

  ==> Geometry <==

    Molecular point group: c1
    Full point group: C1

    Geometry (in Angstrom), charge = 0, multiplicity = 1:

       Center              X                  Y                   Z               Mass       
    ------------   -----------------  -----------------  -----------------  -----------------
      Gh(K)           0.000000000000     0.000000000000     0.000000000000    38.963706486400
         O            2.076023000000    -1.563908000000     0.741741000000    15.994914619570
         H            2.860617000000    -0.996316000000     0.828705000000     1.007825032230
         H            1.615351000000    -1.618906000000     1.563939000000     1.007825032230
      Gh(O)          -1.095486000000     0.399597000000     2.643072000000    15.994914619570
      Gh(H)          -0.801901000000     1.238172000000     2.228137000000     1.007825032230
      Gh(H)          -2.076198000000     0.356254000000     2.753986000000     1.007825032230
      Gh(O)          -2.028741000000     1.602653000000    -1.083314000000    15.994914619570
      Gh(H)          -2.848075000000     1.047294000000    -0.966116000000     1.007825032230
      Gh(H)          -1.766923000000     1.523944000000    -2.040760000000     1.007825032230
      Gh(O)           0.327369000000     2.348814000000     1.409380000000    15.994914619570
      Gh(H)           0.118789000000     3.251871000000     1.602415000000     1.007825032230
      Gh(H)           1.209539000000     2.243806000000     1.770572000000     1.007825032230
      Gh(O)           2.277164000000     1.411722000000    -0.881632000000    15.994914619570
      Gh(H)           2.742637000000     1.640937000000    -0.087027000000     1.007825032230
      Gh(H)           2.895810000000     0.946922000000    -1.465846000000     1.007825032230
      Gh(O)           0.049667000000    -1.666994000000    -2.004447000000    15.994914619570
      Gh(H)          -0.029129000000    -1.163117000000    -2.830753000000     1.007825032230
      Gh(H)           0.898871000000    -2.063134000000    -2.055004000000     1.007825032230

  Running in c1 symmetry.

  Rotational constants: A =      0.03537  B =      0.02902  C =      0.02590 [cm^-1]
  Rotational constants: A =   1060.24156  B =    870.04062  C =    776.36217 [MHz]
  Nuclear repulsion =    9.174515748690393

  Charge       = 0
  Multiplicity = 1
  Electrons    = 10
  Nalpha       = 5
  Nbeta        = 5

  ==> Algorithm <==

  SCF Algorithm Type is DF.
  DIIS enabled.
  MOM disabled.
  Fractional occupation disabled.
  Guess Type is SAD.
  Energy threshold   = 1.00e-08
  Density threshold  = 1.00e-08
  Integral threshold = 1.00e-12

  ==> Primary Basis <==

  Basis Set: AUG-CC-PVTZ
    Blend: AUG-CC-PVTZ
    Number of shells: 211
    Number of basis functions: 611
    Number of Cartesian functions: 699
    Spherical Harmonics?: true
    Max angular momentum: 3

   => Loading Basis Set <=

    Name: (AUG-CC-PVTZ AUX)
    Role: JKFIT
    Keyword: DF_BASIS_SCF
    atoms 1                                   entry K          line  1152 file /home/kchung25/anaconda3/envs/p415env/share/psi4/basis/def2-universal-jkfit.gbs 
    atoms 2, 5, 8, 11, 14, 17                 entry O          line   286 file /home/kchung25/anaconda3/envs/p415env/share/psi4/basis/aug-cc-pvtz-jkfit.gbs 
    atoms 3-4, 6-7, 9-10, 12-13, 15-16, 18-19 entry H          line    70 file /home/kchung25/anaconda3/envs/p415env/share/psi4/basis/aug-cc-pvtz-jkfit.gbs 

  ==> Integral Setup <==

  DFHelper Memory: AOs need 3.390 GiB; user supplied 41.910 GiB. 
  Using in-core AOs.

  ==> MemDFJK: Density-Fitted J/K Matrices <==

    J tasked:                   Yes
    K tasked:                   Yes
    wK tasked:                   No
    OpenMP threads:               6
    Memory [MiB]:             42915
    Algorithm:                 Core
    Schwarz Cutoff:           1E-12
    Mask sparsity (%):      11.5943
    Fitting Condition:        1E-10

   => Auxiliary Basis Set <=

  Basis Set: (AUG-CC-PVTZ AUX)
    Blend: AUG-CC-PVTZ-JKFIT + DEF2-UNIVERSAL-JKFIT
    Number of shells: 392
    Number of basis functions: 1336
    Number of Cartesian functions: 1649
    Spherical Harmonics?: true
    Max angular momentum: 4

  Minimum eigenvalue in the overlap matrix is 4.1251142264E-05.
  Reciprocal condition number of the overlap matrix is 2.6589432489E-06.
    Using symmetric orthogonalization.

  ==> Pre-Iterations <==

  SCF Guess: Superposition of Atomic Densities via on-the-fly atomic UHF (no occupation information).

   -------------------------
    Irrep   Nso     Nmo    
   -------------------------
     A        611     611 
   -------------------------
    Total     611     611
   -------------------------

  ==> Iterations <==

                           Total Energy        Delta E     RMS |[F,P]|

   @DF-RHF iter SAD:   -75.47104916883598   -7.54710e+01   0.00000e+00 
   @DF-RHF iter   1:   -75.97590295633492   -5.04854e-01   7.67476e-04 ADIIS/DIIS
   @DF-RHF iter   2:   -76.02828064248223   -5.23777e-02   5.19708e-04 ADIIS/DIIS
   @DF-RHF iter   3:   -76.05927985244816   -3.09992e-02   3.53094e-05 DIIS
   @DF-RHF iter   4:   -76.05967431330370   -3.94461e-04   8.47872e-06 DIIS
   @DF-RHF iter   5:   -76.05969885227697   -2.45390e-05   1.92080e-06 DIIS
   @DF-RHF iter   6:   -76.05970089260553   -2.04033e-06   4.33409e-07 DIIS
   @DF-RHF iter   7:   -76.05970100839914   -1.15794e-07   8.31799e-08 DIIS
   @DF-RHF iter   8:   -76.05970101218051   -3.78137e-09   1.36728e-08 DIIS
   @DF-RHF iter   9:   -76.05970101226133   -8.08171e-11   3.42360e-09 DIIS
  Energy and wave function converged.


  ==> Post-Iterations <==

    Orbital Energies [Eh]
    ---------------------

    Doubly Occupied:                                                      

       1A    -20.564424     2A     -1.349032     3A     -0.728388  
       4A     -0.573038     5A     -0.508476  

    Virtual:                                                              

       6A      0.006542     7A      0.009052     8A      0.009569  
       9A      0.010753    10A      0.017567    11A      0.017802  
      12A      0.018369    13A      0.018562    14A      0.019007  
      15A      0.030280    16A      0.032355    17A      0.034562  
      18A      0.038061    19A      0.052061    20A      0.054617  
      21A      0.058263    22A      0.059029    23A      0.060596  
      24A      0.073028    25A      0.073138    26A      0.075105  
      27A      0.076088    28A      0.077518    29A      0.078034  
      30A      0.079825    31A      0.090665    32A      0.096142  
      33A      0.098887    34A      0.100472    35A      0.103312  
      36A      0.108707    37A      0.111455    38A      0.117579  
      39A      0.135524    40A      0.146925    41A      0.150430  
      42A      0.156215    43A      0.160759    44A      0.163122  
      45A      0.167168    46A      0.169603    47A      0.175099  
      48A      0.179449    49A      0.179568    50A      0.186347  
      51A      0.193189    52A      0.196837    53A      0.205345  
      54A      0.210454    55A      0.214655    56A      0.218536  
      57A      0.224259    58A      0.228261    59A      0.235768  
      60A      0.237840    61A      0.239992    62A      0.243123  
      63A      0.248825    64A      0.249566    65A      0.253834  
      66A      0.261210    67A      0.265417    68A      0.273439  
      69A      0.283183    70A      0.293475    71A      0.304293  
      72A      0.306338    73A      0.312637    74A      0.319501  
      75A      0.328483    76A      0.331322    77A      0.335805  
      78A      0.341209    79A      0.344065    80A      0.347124  
      81A      0.352859    82A      0.357886    83A      0.368597  
      84A      0.369906    85A      0.378454    86A      0.382160  
      87A      0.385509    88A      0.392226    89A      0.396880  
      90A      0.402373    91A      0.413575    92A      0.414148  
      93A      0.421873    94A      0.423742    95A      0.429170  
      96A      0.430928    97A      0.441757    98A      0.445577  
      99A      0.448501   100A      0.454150   101A      0.456522  
     102A      0.460402   103A      0.465518   104A      0.469587  
     105A      0.473056   106A      0.483090   107A      0.487282  
     108A      0.488068   109A      0.498763   110A      0.500023  
     111A      0.504741   112A      0.506558   113A      0.512493  
     114A      0.514136   115A      0.521127   116A      0.523710  
     117A      0.526582   118A      0.532848   119A      0.542719  
     120A      0.547316   121A      0.563069   122A      0.567129  
     123A      0.573658   124A      0.582293   125A      0.598723  
     126A      0.599987   127A      0.611828   128A      0.627776  
     129A      0.640131   130A      0.650777   131A      0.657946  
     132A      0.675763   133A      0.680863   134A      0.700781  
     135A      0.717066   136A      0.733859   137A      0.740979  
     138A      0.756679   139A      0.761214   140A      0.774683  
     141A      0.775797   142A      0.784444   143A      0.789450  
     144A      0.799047   145A      0.804625   146A      0.817371  
     147A      0.821494   148A      0.828267   149A      0.836137  
     150A      0.845139   151A      0.854027   152A      0.862800  
     153A      0.864973   154A      0.873160   155A      0.877465  
     156A      0.882449   157A      0.888301   158A      0.890111  
     159A      0.895649   160A      0.902637   161A      0.908339  
     162A      0.915093   163A      0.922849   164A      0.928723  
     165A      0.932532   166A      0.935787   167A      0.940365  
     168A      0.944988   169A      0.953566   170A      0.960748  
     171A      0.963569   172A      0.971248   173A      0.977515  
     174A      0.981793   175A      0.987769   176A      0.994576  
     177A      1.000176   178A      1.004229   179A      1.009577  
     180A      1.017884   181A      1.023839   182A      1.026903  
     183A      1.039277   184A      1.042034   185A      1.044578  
     186A      1.048292   187A      1.059586   188A      1.064535  
     189A      1.066674   190A      1.070172   191A      1.079656  
     192A      1.087171   193A      1.093246   194A      1.096149  
     195A      1.108672   196A      1.112477   197A      1.118441  
     198A      1.123862   199A      1.130188   200A      1.136481  
     201A      1.141202   202A      1.153641   203A      1.162257  
     204A      1.166839   205A      1.170083   206A      1.178970  
     207A      1.181021   208A      1.189820   209A      1.198798  
     210A      1.204996   211A      1.210442   212A      1.224371  
     213A      1.226573   214A      1.234796   215A      1.240434  
     216A      1.250715   217A      1.253905   218A      1.265189  
     219A      1.270673   220A      1.274597   221A      1.283526  
     222A      1.287008   223A      1.296269   224A      1.302809  
     225A      1.309133   226A      1.318313   227A      1.322451  
     228A      1.335048   229A      1.337791   230A      1.361235  
     231A      1.363665   232A      1.372922   233A      1.386083  
     234A      1.389996   235A      1.401352   236A      1.415093  
     237A      1.419735   238A      1.434391   239A      1.442910  
     240A      1.450476   241A      1.458047   242A      1.463354  
     243A      1.468441   244A      1.485172   245A      1.507343  
     246A      1.513630   247A      1.531434   248A      1.546230  
     249A      1.555338   250A      1.571969   251A      1.582794  
     252A      1.592602   253A      1.612829   254A      1.646953  
     255A      1.650039   256A      1.671414   257A      1.683592  
     258A      1.707584   259A      1.724157   260A      1.727925  
     261A      1.756012   262A      1.770742   263A      1.792253  
     264A      1.801066   265A      1.809524   266A      1.812436  
     267A      1.820999   268A      1.835701   269A      1.844593  
     270A      1.853957   271A      1.855363   272A      1.878532  
     273A      1.886231   274A      1.888607   275A      1.900528  
     276A      1.913011   277A      1.914077   278A      1.928864  
     279A      1.942875   280A      1.947358   281A      1.954724  
     282A      1.973155   283A      1.979551   284A      1.981988  
     285A      2.007966   286A      2.029631   287A      2.038550  
     288A      2.051803   289A      2.060698   290A      2.100734  
     291A      2.111893   292A      2.123928   293A      2.156066  
     294A      2.193554   295A      2.201777   296A      2.275595  
     297A      2.311939   298A      2.353475   299A      2.374865  
     300A      2.399440   301A      2.411181   302A      2.426639  
     303A      2.439953   304A      2.446550   305A      2.450963  
     306A      2.485778   307A      2.504179   308A      2.506126  
     309A      2.518128   310A      2.532071   311A      2.547010  
     312A      2.549985   313A      2.559273   314A      2.572879  
     315A      2.583861   316A      2.592970   317A      2.594582  
     318A      2.600624   319A      2.608053   320A      2.619664  
     321A      2.621813   322A      2.629235   323A      2.633684  
     324A      2.654158   325A      2.657533   326A      2.660530  
     327A      2.677338   328A      2.694155   329A      2.701149  
     330A      2.712310   331A      2.718011   332A      2.729559  
     333A      2.743691   334A      2.752948   335A      2.769213  
     336A      2.782685   337A      2.808506   338A      2.814778  
     339A      2.837603   340A      2.851595   341A      2.858967  
     342A      2.865128   343A      2.885635   344A      2.887962  
     345A      2.893098   346A      2.919558   347A      2.926385  
     348A      2.932659   349A      2.949437   350A      2.956320  
     351A      2.971315   352A      2.975587   353A      2.993704  
     354A      3.021580   355A      3.036051   356A      3.059227  
     357A      3.096425   358A      3.118204   359A      3.153214  
     360A      3.191477   361A      3.209332   362A      3.215085  
     363A      3.225061   364A      3.247662   365A      3.250680  
     366A      3.258079   367A      3.262109   368A      3.286336  
     369A      3.287075   370A      3.292819   371A      3.306585  
     372A      3.326552   373A      3.337654   374A      3.345597  
     375A      3.369648   376A      3.384097   377A      3.393981  
     378A      3.397050   379A      3.415124   380A      3.427562  
     381A      3.436031   382A      3.454241   383A      3.501876  
     384A      3.513652   385A      3.531464   386A      3.600570  
     387A      3.631267   388A      3.639962   389A      3.655874  
     390A      3.703657   391A      3.724502   392A      3.751216  
     393A      3.763421   394A      3.778463   395A      3.805322  
     396A      3.807291   397A      3.932725   398A      3.951905  
     399A      4.019655   400A      4.108064   401A      4.293055  
     402A      4.303097   403A      4.372038   404A      4.375948  
     405A      4.396338   406A      4.423946   407A      4.430003  
     408A      4.463555   409A      4.483221   410A      4.493758  
     411A      4.503371   412A      4.513026   413A      4.525717  
     414A      4.545231   415A      4.552802   416A      4.561529  
     417A      4.574856   418A      4.591521   419A      4.601058  
     420A      4.609960   421A      4.620169   422A      4.633179  
     423A      4.643027   424A      4.651044   425A      4.687260  
     426A      4.694966   427A      4.704024   428A      4.708672  
     429A      4.724277   430A      4.731544   431A      4.751949  
     432A      4.758467   433A      4.777983   434A      4.796497  
     435A      4.802212   436A      4.815409   437A      4.831002  
     438A      4.854642   439A      4.884534   440A      4.939682  
     441A      4.956160   442A      4.977699   443A      4.981204  
     444A      5.002619   445A      5.007835   446A      5.039607  
     447A      5.056166   448A      5.063440   449A      5.071643  
     450A      5.077362   451A      5.104755   452A      5.133961  
     453A      5.164948   454A      5.181007   455A      5.191658  
     456A      5.200269   457A      5.215061   458A      5.231056  
     459A      5.239609   460A      5.259832   461A      5.375821  
     462A      5.390977   463A      5.393983   464A      5.402549  
     465A      5.410637   466A      5.482415   467A      5.505413  
     468A      5.530887   469A      5.542134   470A      5.565643  
     471A      5.571711   472A      5.593193   473A      5.611118  
     474A      5.633532   475A      5.645678   476A      5.655235  
     477A      5.704452   478A      5.741513   479A      5.752570  
     480A      5.778461   481A      5.807388   482A      5.850737  
     483A      5.863186   484A      5.899649   485A      5.941602  
     486A      6.011955   487A      6.154073   488A      6.171961  
     489A      6.207886   490A      6.231297   491A      6.244892  
     492A      6.258051   493A      6.357013   494A      6.404453  
     495A      6.419903   496A      6.457844   497A      6.598504  
     498A      6.645309   499A      6.669480   500A      6.729835  
     501A      6.779586   502A      6.792096   503A      6.835469  
     504A      6.865801   505A      6.902117   506A      6.921696  
     507A      7.043161   508A      7.122894   509A      7.153356  
     510A      7.218205   511A      7.232471   512A      7.348213  
     513A      7.375483   514A      7.412244   515A      7.436702  
     516A      7.472080   517A      7.656366   518A      7.687530  
     519A      7.718120   520A      7.724166   521A      7.737187  
     522A      7.777139   523A      7.797032   524A      7.835391  
     525A      7.850968   526A      7.876896   527A      7.917873  
     528A      7.976129   529A      8.021905   530A      8.064707  
     531A      8.115938   532A      8.134067   533A      8.143175  
     534A      8.149373   535A      8.186900   536A      8.215316  
     537A      8.232313   538A      8.248020   539A      8.259417  
     540A      8.279800   541A      8.306965   542A      8.320534  
     543A      8.356381   544A      8.404356   545A      8.554056  
     546A      8.671841   547A      8.712217   548A      8.811504  
     549A      8.826096   550A      8.839781   551A      8.862735  
     552A      8.905129   553A      8.917794   554A      8.932245  
     555A      9.017521   556A      9.782838   557A      9.799480  
     558A      9.837846   559A      9.882987   560A      9.925572  
     561A      9.942178   562A      9.958030   563A      9.974668  
     564A      9.989407   565A     10.027333   566A     10.050396  
     567A     10.070859   568A     10.090669   569A     10.121836  
     570A     10.155265   571A     10.202957   572A     10.240748  
     573A     10.257761   574A     10.283250   575A     10.452812  
     576A     10.510193   577A     10.992367   578A     11.072688  
     579A     11.214954   580A     11.269125   581A     11.332574  
     582A     11.697341   583A     11.761313   584A     11.771679  
     585A     11.794248   586A     11.802832   587A     11.991664  
     588A     12.152654   589A     12.242369   590A     12.332100  
     591A     12.674212   592A     13.390745   593A     13.538084  
     594A     13.659852   595A     13.673428   596A     13.728930  
     597A     13.874994   598A     13.920214   599A     13.943261  
     600A     13.998224   601A     14.087358   602A     16.410676  
     603A     31.043799   604A     31.617087   605A     31.711508  
     606A     63.198734   607A     65.641301   608A     65.686196  
     609A     65.809837   610A     67.420177   611A    198.319139  

    Final Occupation by Irrep:
              A 
    DOCC [     5 ]
    NA   [     5 ]
    NB   [     5 ]

  @DF-RHF Final Energy:   -76.05970101226133

   => Energetics <=

    Nuclear Repulsion Energy =              9.1745157486903928
    One-Electron Energy =                -123.0217144153945554
    Two-Electron Energy =                  37.7874976544428378
    Total Energy =                        -76.0597010122613142

Computation Completed


Properties will be evaluated at   0.000000,   0.000000,   0.000000 [a0]

Properties computed using the SCF density matrix


 Multipole Moments:

 ------------------------------------------------------------------------------------
     Multipole            Electronic (a.u.)      Nuclear  (a.u.)        Total (a.u.)
 ------------------------------------------------------------------------------------

 L = 1.  Multiply by 2.5417464519 to convert [e a0] to [Debye]
 Dipole X            :        -39.6268882           39.8432729            0.2163847
 Dipole Y            :         28.9302220          -28.5849158            0.3453062
 Dipole Z            :        -15.1173218           15.7349406            0.6176188
 Magnitude           :                                                    0.7399403

 ------------------------------------------------------------------------------------

*** tstop() called on moses-razer at Wed Jan 24 15:31:55 2024
Module time:
	user time   =      71.01 seconds =       1.18 minutes
	system time =       3.27 seconds =       0.05 minutes
	total time  =         19 seconds =       0.32 minutes
Total time:
	user time   =      71.01 seconds =       1.18 minutes
	system time =       3.27 seconds =       0.05 minutes
	total time  =         19 seconds =       0.32 minutes

*** tstart() called on moses-razer
*** at Wed Jan 24 15:31:55 2024


  //>>>>>>>>>>>>>>>>>>>>>>>>>>>>>>>>>>>//
  //               DFMP2               //
  //<<<<<<<<<<<<<<<<<<<<<<<<<<<<<<<<<<<//

   => Loading Basis Set <=

    Name: (AUG-CC-PVTZ AUX)
    Role: RIFIT
    Keyword: DF_BASIS_MP2
    atoms 1                                   entry K          line  1282 file /home/kchung25/anaconda3/envs/p415env/share/psi4/basis/def2-qzvpp-ri.gbs 
    atoms 2, 5, 8, 11, 14, 17                 entry O          line   264 file /home/kchung25/anaconda3/envs/p415env/share/psi4/basis/aug-cc-pvtz-ri.gbs 
    atoms 3-4, 6-7, 9-10, 12-13, 15-16, 18-19 entry H          line    30 file /home/kchung25/anaconda3/envs/p415env/share/psi4/basis/aug-cc-pvtz-ri.gbs 

	 --------------------------------------------------------
	                          DF-MP2                         
	      2nd-Order Density-Fitted Moller-Plesset Theory     
	              RMP2 Wavefunction,   6 Threads             
	                                                         
	        Rob Parrish, Justin Turney, Andy Simmonett,      
	           Ed Hohenstein, and C. David Sherrill          
	 --------------------------------------------------------

   => Auxiliary Basis Set <=

  Basis Set: (AUG-CC-PVTZ AUX)
    Blend: AUG-CC-PVTZ-RI + DEF2-QZVPP-RI
    Number of shells: 385
    Number of basis functions: 1387
    Number of Cartesian functions: 1738
    Spherical Harmonics?: true
    Max angular momentum: 4

	 --------------------------------------------------------
	                 NBF =   611, NAUX =  1387
	 --------------------------------------------------------
	   CLASS    FOCC     OCC    AOCC    AVIR     VIR    FVIR
	   PAIRS       0       5       5     606     606       0
	 --------------------------------------------------------

	-----------------------------------------------------------
	 ==================> DF-MP2 Energies <==================== 
	-----------------------------------------------------------
	 Reference Energy          =     -76.0597010122613284 [Eh]
	 Singles Energy            =      -0.0000000000000000 [Eh]
	 Same-Spin Energy          =      -0.0683389791335911 [Eh]
	 Opposite-Spin Energy      =      -0.2155280998972254 [Eh]
	 Correlation Energy        =      -0.2838670790308165 [Eh]
	 Total Energy              =     -76.3435680912921413 [Eh]
	-----------------------------------------------------------
	 ================> DF-SCS-MP2 Energies <================== 
	-----------------------------------------------------------
	 SCS Same-Spin Scale       =       0.3333333333333333 [-]
	 SCS Opposite-Spin Scale   =       1.2000000000000000 [-]
	 SCS Same-Spin Energy      =      -0.0227796597111970 [Eh]
	 SCS Opposite-Spin Energy  =      -0.2586337198766704 [Eh]
	 SCS Correlation Energy    =      -0.2814133795878675 [Eh]
	 SCS Total Energy          =     -76.3411143918492030 [Eh]
	-----------------------------------------------------------


*** tstop() called on moses-razer at Wed Jan 24 15:32:05 2024
Module time:
	user time   =      24.67 seconds =       0.41 minutes
	system time =       1.77 seconds =       0.03 minutes
	total time  =         10 seconds =       0.17 minutes
Total time:
	user time   =      95.69 seconds =       1.59 minutes
	system time =       5.04 seconds =       0.08 minutes
	total time  =         29 seconds =       0.48 minutes

    Psi4 stopped on: Wednesday, 24 January 2024 03:32PM
    Psi4 wall time for execution: 0:00:28.50

*** Psi4 exiting successfully. Buy a developer a beer!
