
    -----------------------------------------------------------------------
          Psi4: An Open-Source Ab Initio Electronic Structure Package
                               Psi4 1.8.2 release

                         Git: Rev {} zzzzzzz 


    D. G. A. Smith, L. A. Burns, A. C. Simmonett, R. M. Parrish,
    M. C. Schieber, R. Galvelis, P. Kraus, H. Kruse, R. Di Remigio,
    A. Alenaizan, A. M. James, S. Lehtola, J. P. Misiewicz, M. Scheurer,
    R. A. Shaw, J. B. Schriber, Y. Xie, Z. L. Glick, D. A. Sirianni,
    J. S. O'Brien, J. M. Waldrop, A. Kumar, E. G. Hohenstein,
    B. P. Pritchard, B. R. Brooks, H. F. Schaefer III, A. Yu. Sokolov,
    K. Patkowski, A. E. DePrince III, U. Bozkaya, R. A. King,
    F. A. Evangelista, J. M. Turney, T. D. Crawford, C. D. Sherrill,
    J. Chem. Phys. 152(18) 184108 (2020). https://doi.org/10.1063/5.0006002

                            Additional Code Authors
    E. T. Seidl, C. L. Janssen, E. F. Valeev, M. L. Leininger,
    J. F. Gonthier, R. M. Richard, H. R. McAlexander, M. Saitow, X. Wang,
    P. Verma, M. H. Lechner, A. Jiang, S. Behnle, A. G. Heide,
    M. F. Herbst, and D. L. Poole

             Previous Authors, Complete List of Code Contributors,
                       and Citations for Specific Modules
    https://github.com/psi4/psi4/blob/master/codemeta.json
    https://github.com/psi4/psi4/graphs/contributors
    http://psicode.org/psi4manual/master/introduction.html#citing-psifour

    -----------------------------------------------------------------------


    Psi4 started on: Monday, 22 January 2024 05:08PM

    Process ID: 82203
    Host:       ddmfs1
    PSIDATADIR: /ddmfs1b/softs/psi4conda/share/psi4
    Memory:     500.0 MiB
    Threads:    20
    
  ==> Input File <==

--------------------------------------------------------------------------
MEMORY 60 GB

molecule dimer {
-1 1
F          0.000000     0.000000     0.000000
O          2.779088    -0.118830    -0.906542
H          2.861577    -0.902793    -1.461637
H          1.786663    -0.046131    -0.692626
O         -1.341633     2.261718    -1.186341
H         -1.115566     2.466266    -2.140941
H         -0.840947     1.535422    -0.871680
O          1.697414    -0.600219     2.291858
H          2.307780    -1.309760     2.178210
H          0.932232    -0.756904     1.737642
O         -1.062014    -1.090209    -2.427699
H         -1.550385    -0.449677    -2.957604
H         -0.707907    -0.582861    -1.692225
O         -2.678698    -0.614221     0.746640
H         -3.546811    -0.478083     0.421902
H         -2.030516    -0.148316     0.196031
O         -0.115018     2.307183     1.459312
H          0.071014     1.562964     0.988675
H         -1.079045     2.401109     1.137642

units ang
no_reorient
no_com
symmetry c1
}

set {
basis        aug-cc-pVTZ
scf_type     df
}

energy("mp2")
--------------------------------------------------------------------------

  Memory set to  55.879 GiB by Python driver.

Scratch directory: /ddmfs1a/scratch/
   => Libint2 <=

    Primary   basis highest AM E, G, H:  5, 4, 3
    Auxiliary basis highest AM E, G, H:  6, 5, 4
    Onebody   basis highest AM E, G, H:  6, 5, 4
    Solid Harmonics ordering:            gaussian

*** tstart() called on ddmfs1
*** at Mon Jan 22 17:08:04 2024

   => Loading Basis Set <=

    Name: AUG-CC-PVTZ
    Role: ORBITAL
    Keyword: BASIS
    atoms 1                                   entry F          line   377 file /ddmfs1b/softs/psi4conda/share/psi4/basis/aug-cc-pvtz.gbs 
    atoms 2, 5, 8, 11, 14, 17                 entry O          line   331 file /ddmfs1b/softs/psi4conda/share/psi4/basis/aug-cc-pvtz.gbs 
    atoms 3-4, 6-7, 9-10, 12-13, 15-16, 18-19 entry H          line    40 file /ddmfs1b/softs/psi4conda/share/psi4/basis/aug-cc-pvtz.gbs 


         ---------------------------------------------------------
                                   SCF
               by Justin Turney, Rob Parrish, Andy Simmonett
                          and Daniel G. A. Smith
                              RHF Reference
                       20 Threads,  57220 MiB Core
         ---------------------------------------------------------

  ==> Geometry <==

    Molecular point group: c1
    Full point group: C1

    Geometry (in Angstrom), charge = -1, multiplicity = 1:

       Center              X                  Y                   Z               Mass       
    ------------   -----------------  -----------------  -----------------  -----------------
         F            0.000000000000     0.000000000000     0.000000000000    18.998403162730
         O            2.779088000000    -0.118830000000    -0.906542000000    15.994914619570
         H            2.861577000000    -0.902793000000    -1.461637000000     1.007825032230
         H            1.786663000000    -0.046131000000    -0.692626000000     1.007825032230
         O           -1.341633000000     2.261718000000    -1.186341000000    15.994914619570
         H           -1.115566000000     2.466266000000    -2.140941000000     1.007825032230
         H           -0.840947000000     1.535422000000    -0.871680000000     1.007825032230
         O            1.697414000000    -0.600219000000     2.291858000000    15.994914619570
         H            2.307780000000    -1.309760000000     2.178210000000     1.007825032230
         H            0.932232000000    -0.756904000000     1.737642000000     1.007825032230
         O           -1.062014000000    -1.090209000000    -2.427699000000    15.994914619570
         H           -1.550385000000    -0.449677000000    -2.957604000000     1.007825032230
         H           -0.707907000000    -0.582861000000    -1.692225000000     1.007825032230
         O           -2.678698000000    -0.614221000000     0.746640000000    15.994914619570
         H           -3.546811000000    -0.478083000000     0.421902000000     1.007825032230
         H           -2.030516000000    -0.148316000000     0.196031000000     1.007825032230
         O           -0.115018000000     2.307183000000     1.459312000000    15.994914619570
         H            0.071014000000     1.562964000000     0.988675000000     1.007825032230
         H           -1.079045000000     2.401109000000     1.137642000000     1.007825032230

  Running in c1 symmetry.

  Rotational constants: A =      0.03583  B =      0.02811  C =      0.02460 [cm^-1]
  Rotational constants: A =   1074.29187  B =    842.57685  C =    737.53290 [MHz]
  Nuclear repulsion =  353.363989045610708

  Charge       = -1
  Multiplicity = 1
  Electrons    = 70
  Nalpha       = 35
  Nbeta        = 35

  ==> Algorithm <==

  SCF Algorithm Type is DF.
  DIIS enabled.
  MOM disabled.
  Fractional occupation disabled.
  Guess Type is SAD.
  Energy threshold   = 1.00e-08
  Density threshold  = 1.00e-08
  Integral threshold = 1.00e-12

  ==> Primary Basis <==

  Basis Set: AUG-CC-PVTZ
    Blend: AUG-CC-PVTZ
    Number of shells: 206
    Number of basis functions: 598
    Number of Cartesian functions: 685
    Spherical Harmonics?: true
    Max angular momentum: 3

   => Loading Basis Set <=

    Name: (AUG-CC-PVTZ AUX)
    Role: JKFIT
    Keyword: DF_BASIS_SCF
    atoms 1                                   entry F          line   348 file /ddmfs1b/softs/psi4conda/share/psi4/basis/aug-cc-pvtz-jkfit.gbs 
    atoms 2, 5, 8, 11, 14, 17                 entry O          line   286 file /ddmfs1b/softs/psi4conda/share/psi4/basis/aug-cc-pvtz-jkfit.gbs 
    atoms 3-4, 6-7, 9-10, 12-13, 15-16, 18-19 entry H          line    70 file /ddmfs1b/softs/psi4conda/share/psi4/basis/aug-cc-pvtz-jkfit.gbs 

  ==> Integral Setup <==

  DFHelper Memory: AOs need 3.162 GiB; user supplied 41.910 GiB. 
  Using in-core AOs.

  ==> MemDFJK: Density-Fitted J/K Matrices <==

    J tasked:                   Yes
    K tasked:                   Yes
    wK tasked:                   No
    OpenMP threads:              20
    Memory [MiB]:             42915
    Algorithm:                 Core
    Schwarz Cutoff:           1E-12
    Mask sparsity (%):      11.3052
    Fitting Condition:        1E-10

   => Auxiliary Basis Set <=

  Basis Set: (AUG-CC-PVTZ AUX)
    Blend: AUG-CC-PVTZ-JKFIT
    Number of shells: 378
    Number of basis functions: 1280
    Number of Cartesian functions: 1577
    Spherical Harmonics?: true
    Max angular momentum: 4

  Minimum eigenvalue in the overlap matrix is 3.5822543672E-05.
  Reciprocal condition number of the overlap matrix is 2.3102340079E-06.
    Using symmetric orthogonalization.

  ==> Pre-Iterations <==

  SCF Guess: Superposition of Atomic Densities via on-the-fly atomic UHF (no occupation information).

   -------------------------
    Irrep   Nso     Nmo    
   -------------------------
     A        598     598 
   -------------------------
    Total     598     598
   -------------------------

  ==> Iterations <==

                           Total Energy        Delta E     RMS |[F,P]|

   @DF-RHF iter SAD:  -552.17354255189548   -5.52174e+02   0.00000e+00 
   @DF-RHF iter   1:  -555.37189378787411   -3.19835e+00   1.99038e-03 ADIIS/DIIS
   @DF-RHF iter   2:  -555.71066633320993   -3.38773e-01   1.34021e-03 ADIIS/DIIS
   @DF-RHF iter   3:  -555.90315540179188   -1.92489e-01   8.99307e-05 DIIS
   @DF-RHF iter   4:  -555.90564064658906   -2.48524e-03   2.17644e-05 DIIS
   @DF-RHF iter   5:  -555.90578003159180   -1.39385e-04   8.11784e-06 DIIS
   @DF-RHF iter   6:  -555.90579656517446   -1.65336e-05   3.03942e-06 DIIS
   @DF-RHF iter   7:  -555.90579926057831   -2.69540e-06   6.85122e-07 DIIS
   @DF-RHF iter   8:  -555.90579949311154   -2.32533e-07   1.83084e-07 DIIS
   @DF-RHF iter   9:  -555.90579950138658   -8.27504e-09   8.07002e-08 DIIS
   @DF-RHF iter  10:  -555.90579950287770   -1.49112e-09   1.31618e-08 DIIS
   @DF-RHF iter  11:  -555.90579950294398   -6.62794e-11   4.46886e-09 DIIS
  Energy and wave function converged.


  ==> Post-Iterations <==

    Orbital Energies [Eh]
    ---------------------

    Doubly Occupied:                                                      

       1A    -25.998590     2A    -20.436362     3A    -20.425018  
       4A    -20.413437     5A    -20.409825     6A    -20.398179  
       7A    -20.382148     8A     -1.264481     9A     -1.218430  
      10A     -1.210361    11A     -1.202937    12A     -1.190134  
      13A     -1.178512    14A     -1.176899    15A     -0.602891  
      16A     -0.584320    17A     -0.577103    18A     -0.567111  
      19A     -0.544818    20A     -0.523365    21A     -0.457545  
      22A     -0.443592    23A     -0.429545    24A     -0.426207  
      25A     -0.423084    26A     -0.417163    27A     -0.383297  
      28A     -0.373185    29A     -0.363121    30A     -0.359836  
      31A     -0.355394    32A     -0.351148    33A     -0.348317  
      34A     -0.339598    35A     -0.327363  

    Virtual:                                                              

      36A      0.107021    37A      0.120822    38A      0.123220  
      39A      0.131616    40A      0.139449    41A      0.154980  
      42A      0.173473    43A      0.181307    44A      0.189143  
      45A      0.192575    46A      0.202923    47A      0.209103  
      48A      0.239760    49A      0.256884    50A      0.259261  
      51A      0.269626    52A      0.272605    53A      0.278962  
      54A      0.282172    55A      0.285250    56A      0.290366  
      57A      0.293418    58A      0.305267    59A      0.310902  
      60A      0.319832    61A      0.328816    62A      0.332282  
      63A      0.337259    64A      0.347075    65A      0.352637  
      66A      0.353741    67A      0.362127    68A      0.362484  
      69A      0.366807    70A      0.378294    71A      0.385484  
      72A      0.390843    73A      0.398687    74A      0.403440  
      75A      0.410532    76A      0.412502    77A      0.428965  
      78A      0.432404    79A      0.452806    80A      0.458859  
      81A      0.463888    82A      0.466911    83A      0.473378  
      84A      0.480517    85A      0.492109    86A      0.498977  
      87A      0.502118    88A      0.506872    89A      0.519947  
      90A      0.521467    91A      0.528490    92A      0.532177  
      93A      0.537357    94A      0.548264    95A      0.558729  
      96A      0.562019    97A      0.563905    98A      0.574244  
      99A      0.582212   100A      0.582486   101A      0.592467  
     102A      0.594183   103A      0.600724   104A      0.617382  
     105A      0.618977   106A      0.630092   107A      0.647776  
     108A      0.654487   109A      0.659150   110A      0.668150  
     111A      0.681092   112A      0.687860   113A      0.696365  
     114A      0.706283   115A      0.717060   116A      0.722410  
     117A      0.736449   118A      0.749672   119A      0.772022  
     120A      0.782236   121A      0.794451   122A      0.798770  
     123A      0.808848   124A      0.825894   125A      0.834605  
     126A      0.840248   127A      0.846825   128A      0.855709  
     129A      0.859596   130A      0.868170   131A      0.876379  
     132A      0.882697   133A      0.885618   134A      0.889230  
     135A      0.896119   136A      0.901919   137A      0.906915  
     138A      0.908098   139A      0.917255   140A      0.924520  
     141A      0.933940   142A      0.941403   143A      0.952990  
     144A      0.961614   145A      0.967023   146A      0.973537  
     147A      0.982601   148A      0.988823   149A      0.989961  
     150A      0.997723   151A      1.004440   152A      1.011979  
     153A      1.020317   154A      1.029934   155A      1.037417  
     156A      1.039929   157A      1.044686   158A      1.064638  
     159A      1.070906   160A      1.073833   161A      1.079596  
     162A      1.087028   163A      1.092335   164A      1.098986  
     165A      1.107387   166A      1.109283   167A      1.118950  
     168A      1.120571   169A      1.123901   170A      1.126875  
     171A      1.136143   172A      1.139041   173A      1.145864  
     174A      1.156812   175A      1.167163   176A      1.173784  
     177A      1.180534   178A      1.183539   179A      1.184807  
     180A      1.197543   181A      1.202767   182A      1.212789  
     183A      1.216746   184A      1.222993   185A      1.230682  
     186A      1.239279   187A      1.240688   188A      1.251698  
     189A      1.265974   190A      1.278874   191A      1.285616  
     192A      1.297976   193A      1.301163   194A      1.308079  
     195A      1.311189   196A      1.328509   197A      1.333620  
     198A      1.341397   199A      1.346536   200A      1.358362  
     201A      1.363670   202A      1.370348   203A      1.380119  
     204A      1.392395   205A      1.403323   206A      1.406814  
     207A      1.411038   208A      1.419089   209A      1.430264  
     210A      1.433457   211A      1.449719   212A      1.450716  
     213A      1.455872   214A      1.482924   215A      1.483388  
     216A      1.498160   217A      1.509034   218A      1.514303  
     219A      1.527048   220A      1.539789   221A      1.560849  
     222A      1.567811   223A      1.569168   224A      1.578979  
     225A      1.581649   226A      1.591154   227A      1.594529  
     228A      1.605033   229A      1.620943   230A      1.627358  
     231A      1.649747   232A      1.666889   233A      1.668334  
     234A      1.674043   235A      1.698897   236A      1.704521  
     237A      1.709448   238A      1.723904   239A      1.726277  
     240A      1.733522   241A      1.736658   242A      1.753555  
     243A      1.766782   244A      1.767822   245A      1.782193  
     246A      1.796335   247A      1.805181   248A      1.818858  
     249A      1.832944   250A      1.843976   251A      1.854417  
     252A      1.867943   253A      1.870004   254A      1.894047  
     255A      1.900262   256A      1.906322   257A      1.915302  
     258A      1.923433   259A      1.942741   260A      1.960766  
     261A      1.970764   262A      1.977614   263A      2.004489  
     264A      2.008555   265A      2.027798   266A      2.033160  
     267A      2.056333   268A      2.069879   269A      2.092669  
     270A      2.097413   271A      2.124904   272A      2.125702  
     273A      2.151860   274A      2.161216   275A      2.171141  
     276A      2.186484   277A      2.191783   278A      2.210214  
     279A      2.230734   280A      2.247982   281A      2.260875  
     282A      2.273295   283A      2.310421   284A      2.357265  
     285A      2.402407   286A      2.426071   287A      2.453828  
     288A      2.459313   289A      2.486137   290A      2.496846  
     291A      2.504135   292A      2.520046   293A      2.534190  
     294A      2.553872   295A      2.559929   296A      2.572213  
     297A      2.577605   298A      2.585576   299A      2.586320  
     300A      2.601819   301A      2.604065   302A      2.615598  
     303A      2.622269   304A      2.628589   305A      2.634286  
     306A      2.643982   307A      2.652460   308A      2.671059  
     309A      2.680919   310A      2.684979   311A      2.691796  
     312A      2.701622   313A      2.710633   314A      2.718380  
     315A      2.724275   316A      2.738397   317A      2.751344  
     318A      2.754398   319A      2.762731   320A      2.778994  
     321A      2.787603   322A      2.810425   323A      2.821166  
     324A      2.830592   325A      2.849598   326A      2.849824  
     327A      2.868471   328A      2.874697   329A      2.889515  
     330A      2.911611   331A      2.912234   332A      2.933532  
     333A      2.941932   334A      2.946778   335A      2.961316  
     336A      2.973572   337A      2.977769   338A      2.988384  
     339A      2.994535   340A      3.000358   341A      3.013114  
     342A      3.028759   343A      3.035448   344A      3.045573  
     345A      3.052430   346A      3.067268   347A      3.080641  
     348A      3.091123   349A      3.102869   350A      3.134642  
     351A      3.152766   352A      3.156193   353A      3.159818  
     354A      3.182520   355A      3.201599   356A      3.211182  
     357A      3.221412   358A      3.244437   359A      3.259241  
     360A      3.292555   361A      3.300926   362A      3.331893  
     363A      3.349047   364A      3.392064   365A      3.424826  
     366A      3.542714   367A      3.586427   368A      3.603586  
     369A      3.652984   370A      3.689751   371A      3.714317  
     372A      3.750752   373A      3.783072   374A      3.834061  
     375A      3.858514   376A      3.869337   377A      3.931289  
     378A      3.940827   379A      3.961408   380A      3.966788  
     381A      4.001395   382A      4.030277   383A      4.082136  
     384A      4.135679   385A      4.199005   386A      4.222156  
     387A      4.223201   388A      4.244910   389A      4.263888  
     390A      4.268212   391A      4.279296   392A      4.309270  
     393A      4.328359   394A      4.350218   395A      4.372485  
     396A      4.386264   397A      4.396744   398A      4.409878  
     399A      4.417818   400A      4.423971   401A      4.435600  
     402A      4.448699   403A      4.455319   404A      4.470321  
     405A      4.474021   406A      4.477716   407A      4.484633  
     408A      4.493476   409A      4.507380   410A      4.514474  
     411A      4.530231   412A      4.549098   413A      4.550736  
     414A      4.567052   415A      4.572791   416A      4.574610  
     417A      4.586077   418A      4.594459   419A      4.602569  
     420A      4.605281   421A      4.621347   422A      4.628617  
     423A      4.637796   424A      4.654963   425A      4.665483  
     426A      4.679617   427A      4.689713   428A      4.695545  
     429A      4.703419   430A      4.707076   431A      4.740320  
     432A      4.744342   433A      4.757461   434A      4.766662  
     435A      4.770670   436A      4.792604   437A      4.797557  
     438A      4.816575   439A      4.833816   440A      4.845194  
     441A      4.884547   442A      4.916337   443A      4.944246  
     444A      4.955438   445A      4.963181   446A      4.982397  
     447A      5.004420   448A      5.033962   449A      5.046340  
     450A      5.106366   451A      5.125560   452A      5.146483  
     453A      5.162332   454A      5.208441   455A      5.218479  
     456A      5.270859   457A      5.288108   458A      5.303514  
     459A      5.316148   460A      5.324373   461A      5.338093  
     462A      5.375913   463A      5.376658   464A      5.384774  
     465A      5.397714   466A      5.415064   467A      5.428617  
     468A      5.469326   469A      5.484417   470A      5.508155  
     471A      5.545559   472A      5.552144   473A      5.570475  
     474A      5.585415   475A      5.598566   476A      5.615228  
     477A      5.644113   478A      5.655380   479A      5.672187  
     480A      5.693599   481A      5.701076   482A      5.713753  
     483A      5.731880   484A      5.773481   485A      5.823078  
     486A      5.872467   487A      5.884021   488A      5.949200  
     489A      5.984784   490A      6.035558   491A      6.060053  
     492A      6.094143   493A      6.306373   494A      6.381848  
     495A      6.393900   496A      6.402528   497A      6.418784  
     498A      6.439001   499A      6.645149   500A      6.676964  
     501A      6.709339   502A      6.728421   503A      6.762142  
     504A      6.769068   505A      6.779895   506A      6.792754  
     507A      6.802051   508A      6.931297   509A      6.975069  
     510A      6.981411   511A      6.991859   512A      7.038355  
     513A      7.060999   514A      7.078886   515A      7.099778  
     516A      7.111907   517A      7.137377   518A      7.147303  
     519A      7.291489   520A      7.312003   521A      7.323919  
     522A      7.330010   523A      7.350346   524A      7.362200  
     525A      7.369912   526A      7.440857   527A      7.454638  
     528A      7.456904   529A      7.463400   530A      7.477279  
     531A      7.486651   532A      7.492211   533A      7.509124  
     534A      7.518508   535A      7.521747   536A      7.528436  
     537A      7.534534   538A      7.542642   539A      7.558641  
     540A      7.563611   541A      7.590631   542A      7.598709  
     543A      7.612297   544A      7.626979   545A      7.629547  
     546A      7.637291   547A      7.648337   548A      7.672205  
     549A      7.683512   550A      7.696096   551A      7.727191  
     552A      7.734485   553A      7.755927   554A      7.790420  
     555A      7.814218   556A      7.885225   557A      7.919039  
     558A      7.962767   559A      8.027874   560A      8.055309  
     561A      8.080790   562A      8.102962   563A      8.107660  
     564A      8.130893   565A      8.145826   566A      8.163004  
     567A      8.174161   568A      8.208215   569A      8.216051  
     570A      8.251575   571A      8.283955   572A      8.334582  
     573A      8.420944   574A      8.844279   575A      8.908005  
     576A      8.976463   577A      9.002892   578A      9.027981  
     579A      9.041013   580A      9.347399   581A      9.405121  
     582A      9.495827   583A      9.563033   584A      9.705586  
     585A      9.769540   586A      9.786421   587A     10.003231  
     588A     10.025737   589A     10.128027   590A     10.245386  
     591A     10.366661   592A     14.655731   593A     16.313975  
     594A     16.864279   595A     17.066484   596A     17.304351  
     597A     17.568735   598A     18.249834  

    Final Occupation by Irrep:
              A 
    DOCC [    35 ]
    NA   [    35 ]
    NB   [    35 ]

  @DF-RHF Final Energy:  -555.90579950294398

   => Energetics <=

    Nuclear Repulsion Energy =            353.3639890456107082
    One-Electron Energy =               -1486.3329380346240214
    Two-Electron Energy =                 577.0631494860693920
    Total Energy =                       -555.9057995029439780

Computation Completed


Properties will be evaluated at   0.000000,   0.000000,   0.000000 [a0]

Properties computed using the SCF density matrix


 Multipole Moments:

 ------------------------------------------------------------------------------------
     Multipole            Electronic (a.u.)      Nuclear  (a.u.)        Total (a.u.)
 ------------------------------------------------------------------------------------

 L = 1.  Multiply by 2.5417464519 to convert [e a0] to [Debye]
 Dipole X            :         15.5666923          -16.4005532           -0.8338609
 Dipole Y            :        -39.5186587           38.6536147           -0.8650440
 Dipole Z            :          4.4252340           -6.3093930           -1.8841591
 Magnitude           :                                                    2.2346545

 ------------------------------------------------------------------------------------

*** tstop() called on ddmfs1 at Mon Jan 22 17:08:15 2024
Module time:
	user time   =     194.66 seconds =       3.24 minutes
	system time =       9.33 seconds =       0.16 minutes
	total time  =         11 seconds =       0.18 minutes
Total time:
	user time   =     194.66 seconds =       3.24 minutes
	system time =       9.33 seconds =       0.16 minutes
	total time  =         11 seconds =       0.18 minutes

*** tstart() called on ddmfs1
*** at Mon Jan 22 17:08:15 2024


  //>>>>>>>>>>>>>>>>>>>>>>>>>>>>>>>>>>>//
  //               DFMP2               //
  //<<<<<<<<<<<<<<<<<<<<<<<<<<<<<<<<<<<//

   => Loading Basis Set <=

    Name: (AUG-CC-PVTZ AUX)
    Role: RIFIT
    Keyword: DF_BASIS_MP2
    atoms 1                                   entry F          line   322 file /ddmfs1b/softs/psi4conda/share/psi4/basis/aug-cc-pvtz-ri.gbs 
    atoms 2, 5, 8, 11, 14, 17                 entry O          line   264 file /ddmfs1b/softs/psi4conda/share/psi4/basis/aug-cc-pvtz-ri.gbs 
    atoms 3-4, 6-7, 9-10, 12-13, 15-16, 18-19 entry H          line    30 file /ddmfs1b/softs/psi4conda/share/psi4/basis/aug-cc-pvtz-ri.gbs 

	 --------------------------------------------------------
	                          DF-MP2                         
	      2nd-Order Density-Fitted Moller-Plesset Theory     
	              RMP2 Wavefunction,  20 Threads             
	                                                         
	        Rob Parrish, Justin Turney, Andy Simmonett,      
	           Ed Hohenstein, and C. David Sherrill          
	 --------------------------------------------------------

   => Auxiliary Basis Set <=

  Basis Set: (AUG-CC-PVTZ AUX)
    Blend: AUG-CC-PVTZ-RI
    Number of shells: 364
    Number of basis functions: 1294
    Number of Cartesian functions: 1612
    Spherical Harmonics?: true
    Max angular momentum: 4

	 --------------------------------------------------------
	                 NBF =   598, NAUX =  1294
	 --------------------------------------------------------
	   CLASS    FOCC     OCC    AOCC    AVIR     VIR    FVIR
	   PAIRS       0      35      35     563     563       0
	 --------------------------------------------------------

	-----------------------------------------------------------
	 ==================> DF-MP2 Energies <==================== 
	-----------------------------------------------------------
	 Reference Energy          =    -555.9057995029439780 [Eh]
	 Singles Energy            =      -0.0000000000000000 [Eh]
	 Same-Spin Energy          =      -0.5025019258609182 [Eh]
	 Opposite-Spin Energy      =      -1.5334220396019043 [Eh]
	 Correlation Energy        =      -2.0359239654628225 [Eh]
	 Total Energy              =    -557.9417234684068490 [Eh]
	-----------------------------------------------------------
	 ================> DF-SCS-MP2 Energies <================== 
	-----------------------------------------------------------
	 SCS Same-Spin Scale       =       0.3333333333333333 [-]
	 SCS Opposite-Spin Scale   =       1.2000000000000000 [-]
	 SCS Same-Spin Energy      =      -0.1675006419536394 [Eh]
	 SCS Opposite-Spin Energy  =      -1.8401064475222850 [Eh]
	 SCS Correlation Energy    =      -2.0076070894759246 [Eh]
	 SCS Total Energy          =    -557.9134065924198467 [Eh]
	-----------------------------------------------------------


*** tstop() called on ddmfs1 at Mon Jan 22 17:08:23 2024
Module time:
	user time   =      65.03 seconds =       1.08 minutes
	system time =       2.55 seconds =       0.04 minutes
	total time  =          8 seconds =       0.13 minutes
Total time:
	user time   =     259.71 seconds =       4.33 minutes
	system time =      11.88 seconds =       0.20 minutes
	total time  =         19 seconds =       0.32 minutes

    Psi4 stopped on: Monday, 22 January 2024 05:08PM
    Psi4 wall time for execution: 0:00:18.88

*** Psi4 exiting successfully. Buy a developer a beer!
