
    -----------------------------------------------------------------------
          Psi4: An Open-Source Ab Initio Electronic Structure Package
                               Psi4 1.8.2 release

                         Git: Rev {} zzzzzzz 


    D. G. A. Smith, L. A. Burns, A. C. Simmonett, R. M. Parrish,
    M. C. Schieber, R. Galvelis, P. Kraus, H. Kruse, R. Di Remigio,
    A. Alenaizan, A. M. James, S. Lehtola, J. P. Misiewicz, M. Scheurer,
    R. A. Shaw, J. B. Schriber, Y. Xie, Z. L. Glick, D. A. Sirianni,
    J. S. O'Brien, J. M. Waldrop, A. Kumar, E. G. Hohenstein,
    B. P. Pritchard, B. R. Brooks, H. F. Schaefer III, A. Yu. Sokolov,
    K. Patkowski, A. E. DePrince III, U. Bozkaya, R. A. King,
    F. A. Evangelista, J. M. Turney, T. D. Crawford, C. D. Sherrill,
    J. Chem. Phys. 152(18) 184108 (2020). https://doi.org/10.1063/5.0006002

                            Additional Code Authors
    E. T. Seidl, C. L. Janssen, E. F. Valeev, M. L. Leininger,
    J. F. Gonthier, R. M. Richard, H. R. McAlexander, M. Saitow, X. Wang,
    P. Verma, M. H. Lechner, A. Jiang, S. Behnle, A. G. Heide,
    M. F. Herbst, and D. L. Poole

             Previous Authors, Complete List of Code Contributors,
                       and Citations for Specific Modules
    https://github.com/psi4/psi4/blob/master/codemeta.json
    https://github.com/psi4/psi4/graphs/contributors
    http://psicode.org/psi4manual/master/introduction.html#citing-psifour

    -----------------------------------------------------------------------


    Psi4 started on: Monday, 22 January 2024 06:04PM

    Process ID: 88180
    Host:       ddmfs1
    PSIDATADIR: /ddmfs1b/softs/psi4conda/share/psi4
    Memory:     500.0 MiB
    Threads:    20
    
  ==> Input File <==

--------------------------------------------------------------------------
MEMORY 60 GB

molecule dimer {
-1 1
F          0.000000     0.000000     0.000000
O         -0.594284    -0.634372    -2.562911
H         -0.497083    -0.431183    -1.650200
H         -1.006656    -1.548570    -2.604579
O         -1.938246     2.105808    -0.043070
H         -1.889287     2.428560    -0.934253
H         -1.298126     1.315153    -0.005089
O          2.410889    -1.157179    -0.315817
H          2.529967    -1.073339    -1.271904
H          1.596731    -0.690599    -0.141440
O         -2.082039    -1.493757     1.208536
H         -1.903126    -2.455205     1.406995
H         -1.292528    -1.067209     0.789863

units ang
no_reorient
no_com
symmetry c1
}

set {
basis        aug-cc-pVTZ
scf_type     df
}

energy("mp2")
--------------------------------------------------------------------------

  Memory set to  55.879 GiB by Python driver.

Scratch directory: /ddmfs1a/scratch/
   => Libint2 <=

    Primary   basis highest AM E, G, H:  5, 4, 3
    Auxiliary basis highest AM E, G, H:  6, 5, 4
    Onebody   basis highest AM E, G, H:  6, 5, 4
    Solid Harmonics ordering:            gaussian

*** tstart() called on ddmfs1
*** at Mon Jan 22 18:04:58 2024

   => Loading Basis Set <=

    Name: AUG-CC-PVTZ
    Role: ORBITAL
    Keyword: BASIS
    atoms 1                     entry F          line   377 file /ddmfs1b/softs/psi4conda/share/psi4/basis/aug-cc-pvtz.gbs 
    atoms 2, 5, 8, 11           entry O          line   331 file /ddmfs1b/softs/psi4conda/share/psi4/basis/aug-cc-pvtz.gbs 
    atoms 3-4, 6-7, 9-10, 12-13 entry H          line    40 file /ddmfs1b/softs/psi4conda/share/psi4/basis/aug-cc-pvtz.gbs 


         ---------------------------------------------------------
                                   SCF
               by Justin Turney, Rob Parrish, Andy Simmonett
                          and Daniel G. A. Smith
                              RHF Reference
                       20 Threads,  57220 MiB Core
         ---------------------------------------------------------

  ==> Geometry <==

    Molecular point group: c1
    Full point group: C1

    Geometry (in Angstrom), charge = -1, multiplicity = 1:

       Center              X                  Y                   Z               Mass       
    ------------   -----------------  -----------------  -----------------  -----------------
         F            0.000000000000     0.000000000000     0.000000000000    18.998403162730
         O           -0.594284000000    -0.634372000000    -2.562911000000    15.994914619570
         H           -0.497083000000    -0.431183000000    -1.650200000000     1.007825032230
         H           -1.006656000000    -1.548570000000    -2.604579000000     1.007825032230
         O           -1.938246000000     2.105808000000    -0.043070000000    15.994914619570
         H           -1.889287000000     2.428560000000    -0.934253000000     1.007825032230
         H           -1.298126000000     1.315153000000    -0.005089000000     1.007825032230
         O            2.410889000000    -1.157179000000    -0.315817000000    15.994914619570
         H            2.529967000000    -1.073339000000    -1.271904000000     1.007825032230
         H            1.596731000000    -0.690599000000    -0.141440000000     1.007825032230
         O           -2.082039000000    -1.493757000000     1.208536000000    15.994914619570
         H           -1.903126000000    -2.455205000000     1.406995000000     1.007825032230
         H           -1.292528000000    -1.067209000000     0.789863000000     1.007825032230

  Running in c1 symmetry.

  Rotational constants: A =      0.06314  B =      0.04199  C =      0.03954 [cm^-1]
  Rotational constants: A =   1892.80673  B =   1258.87644  C =   1185.49280 [MHz]
  Nuclear repulsion =  184.457588172458088

  Charge       = -1
  Multiplicity = 1
  Electrons    = 50
  Nalpha       = 25
  Nbeta        = 25

  ==> Algorithm <==

  SCF Algorithm Type is DF.
  DIIS enabled.
  MOM disabled.
  Fractional occupation disabled.
  Guess Type is SAD.
  Energy threshold   = 1.00e-08
  Density threshold  = 1.00e-08
  Integral threshold = 1.00e-12

  ==> Primary Basis <==

  Basis Set: AUG-CC-PVTZ
    Blend: AUG-CC-PVTZ
    Number of shells: 142
    Number of basis functions: 414
    Number of Cartesian functions: 475
    Spherical Harmonics?: true
    Max angular momentum: 3

   => Loading Basis Set <=

    Name: (AUG-CC-PVTZ AUX)
    Role: JKFIT
    Keyword: DF_BASIS_SCF
    atoms 1                     entry F          line   348 file /ddmfs1b/softs/psi4conda/share/psi4/basis/aug-cc-pvtz-jkfit.gbs 
    atoms 2, 5, 8, 11           entry O          line   286 file /ddmfs1b/softs/psi4conda/share/psi4/basis/aug-cc-pvtz-jkfit.gbs 
    atoms 3-4, 6-7, 9-10, 12-13 entry H          line    70 file /ddmfs1b/softs/psi4conda/share/psi4/basis/aug-cc-pvtz-jkfit.gbs 

  ==> Integral Setup <==

  DFHelper Memory: AOs need 1.100 GiB; user supplied 41.910 GiB. 
  Using in-core AOs.

  ==> MemDFJK: Density-Fitted J/K Matrices <==

    J tasked:                   Yes
    K tasked:                   Yes
    wK tasked:                   No
    OpenMP threads:              20
    Memory [MiB]:             42915
    Algorithm:                 Core
    Schwarz Cutoff:           1E-12
    Mask sparsity (%):       8.7715
    Fitting Condition:        1E-10

   => Auxiliary Basis Set <=

  Basis Set: (AUG-CC-PVTZ AUX)
    Blend: AUG-CC-PVTZ-JKFIT
    Number of shells: 262
    Number of basis functions: 888
    Number of Cartesian functions: 1095
    Spherical Harmonics?: true
    Max angular momentum: 4

  Minimum eigenvalue in the overlap matrix is 1.3363144224E-04.
  Reciprocal condition number of the overlap matrix is 1.1033197728E-05.
    Using symmetric orthogonalization.

  ==> Pre-Iterations <==

  SCF Guess: Superposition of Atomic Densities via on-the-fly atomic UHF (no occupation information).

   -------------------------
    Irrep   Nso     Nmo    
   -------------------------
     A        414     414 
   -------------------------
    Total     414     414
   -------------------------

  ==> Iterations <==

                           Total Energy        Delta E     RMS |[F,P]|

   @DF-RHF iter SAD:  -400.97900948431908   -4.00979e+02   0.00000e+00 
   @DF-RHF iter   1:  -403.41032820665953   -2.43132e+00   2.42634e-03 DIIS/ADIIS
   @DF-RHF iter   2:  -403.64457220234988   -2.34244e-01   1.66848e-03 DIIS/ADIIS
   @DF-RHF iter   3:  -403.78603626559845   -1.41464e-01   1.04285e-04 DIIS/ADIIS
   @DF-RHF iter   4:  -403.78764426071564   -1.60800e-03   2.63541e-05 DIIS
   @DF-RHF iter   5:  -403.78773969861351   -9.54379e-05   1.03468e-05 DIIS
   @DF-RHF iter   6:  -403.78775168845772   -1.19898e-05   3.59041e-06 DIIS
   @DF-RHF iter   7:  -403.78775363835342   -1.94990e-06   8.47240e-07 DIIS
   @DF-RHF iter   8:  -403.78775381046665   -1.72113e-07   2.75834e-07 DIIS
   @DF-RHF iter   9:  -403.78775381826279   -7.79613e-09   9.93364e-08 DIIS
   @DF-RHF iter  10:  -403.78775381965431   -1.39153e-09   1.63337e-08 DIIS
   @DF-RHF iter  11:  -403.78775381971002   -5.57066e-11   5.17608e-09 DIIS
  Energy and wave function converged.


  ==> Post-Iterations <==

    Orbital Energies [Eh]
    ---------------------

    Doubly Occupied:                                                      

       1A    -25.979235     2A    -20.402749     3A    -20.401037  
       4A    -20.390035     5A    -20.386690     6A     -1.245844  
       7A     -1.180690     8A     -1.174462     9A     -1.166693  
      10A     -1.164539    11A     -0.554010    12A     -0.549929  
      13A     -0.542807    14A     -0.531099    15A     -0.423666  
      16A     -0.422660    17A     -0.410518    18A     -0.406967  
      19A     -0.348436    20A     -0.344842    21A     -0.340983  
      22A     -0.334004    23A     -0.333045    24A     -0.329327  
      25A     -0.326009  

    Virtual:                                                              

      26A      0.119944    27A      0.131743    28A      0.138506  
      29A      0.142395    30A      0.173995    31A      0.184374  
      32A      0.192104    33A      0.201378    34A      0.256733  
      35A      0.264589    36A      0.271971    37A      0.278508  
      38A      0.285787    39A      0.288394    40A      0.292980  
      41A      0.296447    42A      0.301127    43A      0.319201  
      44A      0.330605    45A      0.340078    46A      0.341570  
      47A      0.356385    48A      0.363366    49A      0.372887  
      50A      0.380861    51A      0.386412    52A      0.389953  
      53A      0.404644    54A      0.416461    55A      0.424605  
      56A      0.436635    57A      0.443365    58A      0.454932  
      59A      0.455608    60A      0.474577    61A      0.483008  
      62A      0.485046    63A      0.511673    64A      0.521846  
      65A      0.537640    66A      0.545983    67A      0.549364  
      68A      0.557047    69A      0.565884    70A      0.575771  
      71A      0.593278    72A      0.603646    73A      0.614889  
      74A      0.620676    75A      0.630396    76A      0.655721  
      77A      0.668438    78A      0.685957    79A      0.708922  
      80A      0.710847    81A      0.732033    82A      0.737416  
      83A      0.744057    84A      0.749499    85A      0.804656  
      86A      0.819572    87A      0.834640    88A      0.842378  
      89A      0.850034    90A      0.862626    91A      0.872226  
      92A      0.880025    93A      0.889783    94A      0.896952  
      95A      0.899937    96A      0.906139    97A      0.909094  
      98A      0.911092    99A      0.923544   100A      0.927883  
     101A      0.929758   102A      0.941029   103A      0.954762  
     104A      0.965791   105A      0.983764   106A      1.000480  
     107A      1.016481   108A      1.018288   109A      1.039723  
     110A      1.049371   111A      1.057452   112A      1.063776  
     113A      1.072016   114A      1.081554   115A      1.090577  
     116A      1.100044   117A      1.106705   118A      1.113173  
     119A      1.119786   120A      1.129583   121A      1.139264  
     122A      1.143110   123A      1.150063   124A      1.156134  
     125A      1.165428   126A      1.171184   127A      1.178558  
     128A      1.184431   129A      1.195487   130A      1.201297  
     131A      1.207775   132A      1.219013   133A      1.233846  
     134A      1.239627   135A      1.246556   136A      1.261918  
     137A      1.280842   138A      1.297972   139A      1.314333  
     140A      1.325838   141A      1.340072   142A      1.345760  
     143A      1.361548   144A      1.383081   145A      1.395157  
     146A      1.404751   147A      1.409574   148A      1.427661  
     149A      1.441061   150A      1.447537   151A      1.470874  
     152A      1.478177   153A      1.496354   154A      1.513553  
     155A      1.522796   156A      1.535750   157A      1.559452  
     158A      1.588488   159A      1.608278   160A      1.623944  
     161A      1.657107   162A      1.662263   163A      1.672782  
     164A      1.679877   165A      1.697450   166A      1.704361  
     167A      1.717329   168A      1.720273   169A      1.734031  
     170A      1.750811   171A      1.765464   172A      1.776743  
     173A      1.814059   174A      1.845751   175A      1.852898  
     176A      1.854178   177A      1.858182   178A      1.876148  
     179A      1.901665   180A      1.921440   181A      1.969715  
     182A      1.991484   183A      1.999939   184A      2.025463  
     185A      2.040841   186A      2.067518   187A      2.107727  
     188A      2.110712   189A      2.116153   190A      2.131128  
     191A      2.158620   192A      2.184775   193A      2.193499  
     194A      2.244004   195A      2.380986   196A      2.390471  
     197A      2.424526   198A      2.456931   199A      2.464860  
     200A      2.484124   201A      2.487296   202A      2.519097  
     203A      2.536645   204A      2.558779   205A      2.576433  
     206A      2.584799   207A      2.597595   208A      2.602588  
     209A      2.611117   210A      2.619164   211A      2.633301  
     212A      2.638689   213A      2.641745   214A      2.654437  
     215A      2.667999   216A      2.681476   217A      2.694400  
     218A      2.695454   219A      2.724470   220A      2.732757  
     221A      2.745746   222A      2.773743   223A      2.795642  
     224A      2.831128   225A      2.833840   226A      2.871995  
     227A      2.883654   228A      2.894306   229A      2.903825  
     230A      2.916791   231A      2.922618   232A      2.938574  
     233A      2.962984   234A      2.968084   235A      2.979466  
     236A      2.997813   237A      3.021785   238A      3.039459  
     239A      3.048742   240A      3.053334   241A      3.080749  
     242A      3.125640   243A      3.162183   244A      3.172307  
     245A      3.214345   246A      3.240129   247A      3.249653  
     248A      3.255400   249A      3.283279   250A      3.399048  
     251A      3.461505   252A      3.464227   253A      3.507061  
     254A      3.689706   255A      3.710607   256A      3.736217  
     257A      3.759082   258A      3.796314   259A      3.817300  
     260A      3.875241   261A      3.895123   262A      3.905156  
     263A      3.935082   264A      3.948426   265A      3.995471  
     266A      4.084971   267A      4.166863   268A      4.191206  
     269A      4.229286   270A      4.245742   271A      4.259229  
     272A      4.262178   273A      4.284210   274A      4.323757  
     275A      4.385299   276A      4.389089   277A      4.411192  
     278A      4.415067   279A      4.443404   280A      4.451417  
     281A      4.452617   282A      4.461670   283A      4.474184  
     284A      4.482380   285A      4.492601   286A      4.505545  
     287A      4.518036   288A      4.541721   289A      4.547180  
     290A      4.563814   291A      4.567840   292A      4.578980  
     293A      4.585065   294A      4.615094   295A      4.633920  
     296A      4.644728   297A      4.657495   298A      4.677444  
     299A      4.683539   300A      4.694160   301A      4.727531  
     302A      4.751418   303A      4.791272   304A      4.809906  
     305A      4.828066   306A      4.834086   307A      4.876453  
     308A      4.942935   309A      4.978472   310A      5.000614  
     311A      5.058023   312A      5.136551   313A      5.178585  
     314A      5.238836   315A      5.266121   316A      5.280983  
     317A      5.300596   318A      5.309849   319A      5.326189  
     320A      5.350102   321A      5.385485   322A      5.431282  
     323A      5.472569   324A      5.487276   325A      5.500540  
     326A      5.517577   327A      5.548452   328A      5.577959  
     329A      5.594766   330A      5.671129   331A      5.703156  
     332A      5.743466   333A      5.772554   334A      5.785129  
     335A      5.890787   336A      5.934691   337A      5.960934  
     338A      6.002219   339A      6.287677   340A      6.344409  
     341A      6.366870   342A      6.411599   343A      6.442777  
     344A      6.512582   345A      6.624558   346A      6.725913  
     347A      6.742478   348A      6.771033   349A      6.775814  
     350A      6.907688   351A      6.956924   352A      6.978407  
     353A      6.991662   354A      7.050792   355A      7.073767  
     356A      7.111232   357A      7.147435   358A      7.288874  
     359A      7.297633   360A      7.316672   361A      7.353435  
     362A      7.396606   363A      7.425526   364A      7.450988  
     365A      7.462645   366A      7.471721   367A      7.493615  
     368A      7.500910   369A      7.512910   370A      7.518529  
     371A      7.530222   372A      7.548717   373A      7.564539  
     374A      7.582153   375A      7.589748   376A      7.598253  
     377A      7.620128   378A      7.677614   379A      7.686154  
     380A      7.710232   381A      7.746398   382A      7.868677  
     383A      7.891481   384A      7.926143   385A      7.950925  
     386A      8.014672   387A      8.086364   388A      8.141675  
     389A      8.179247   390A      8.190620   391A      8.196128  
     392A      8.215965   393A      8.233200   394A      8.792087  
     395A      8.894220   396A      8.924740   397A      9.031858  
     398A      9.291216   399A      9.461102   400A      9.474745  
     401A      9.596420   402A      9.626059   403A      9.826313  
     404A      9.916191   405A      9.929409   406A     10.022553  
     407A     10.081601   408A     10.117135   409A     10.166527  
     410A     14.679687   411A     16.163682   412A     16.543953  
     413A     17.238280   414A     17.587731  

    Final Occupation by Irrep:
              A 
    DOCC [    25 ]
    NA   [    25 ]
    NB   [    25 ]

  @DF-RHF Final Energy:  -403.78775381971002

   => Energetics <=

    Nuclear Repulsion Energy =            184.4575881724580881
    One-Electron Energy =                -937.1101273908665235
    Two-Electron Energy =                 348.8647853986984728
    Total Energy =                       -403.7877538197100193

Computation Completed


Properties will be evaluated at   0.000000,   0.000000,   0.000000 [a0]

Properties computed using the SCF density matrix


 Multipole Moments:

 ------------------------------------------------------------------------------------
     Multipole            Electronic (a.u.)      Nuclear  (a.u.)        Total (a.u.)
 ------------------------------------------------------------------------------------

 L = 1.  Multiply by 2.5417464519 to convert [e a0] to [Debye]
 Dipole X            :         41.0940789          -40.4203877            0.6736913
 Dipole Y            :         23.9736608          -24.4878119           -0.5141512
 Dipole Z            :         33.9055168          -34.2356070           -0.3300902
 Magnitude           :                                                    0.9094893

 ------------------------------------------------------------------------------------

*** tstop() called on ddmfs1 at Mon Jan 22 18:05:02 2024
Module time:
	user time   =      76.88 seconds =       1.28 minutes
	system time =       3.98 seconds =       0.07 minutes
	total time  =          4 seconds =       0.07 minutes
Total time:
	user time   =      76.88 seconds =       1.28 minutes
	system time =       3.98 seconds =       0.07 minutes
	total time  =          4 seconds =       0.07 minutes

*** tstart() called on ddmfs1
*** at Mon Jan 22 18:05:02 2024


  //>>>>>>>>>>>>>>>>>>>>>>>>>>>>>>>>>>>//
  //               DFMP2               //
  //<<<<<<<<<<<<<<<<<<<<<<<<<<<<<<<<<<<//

   => Loading Basis Set <=

    Name: (AUG-CC-PVTZ AUX)
    Role: RIFIT
    Keyword: DF_BASIS_MP2
    atoms 1                     entry F          line   322 file /ddmfs1b/softs/psi4conda/share/psi4/basis/aug-cc-pvtz-ri.gbs 
    atoms 2, 5, 8, 11           entry O          line   264 file /ddmfs1b/softs/psi4conda/share/psi4/basis/aug-cc-pvtz-ri.gbs 
    atoms 3-4, 6-7, 9-10, 12-13 entry H          line    30 file /ddmfs1b/softs/psi4conda/share/psi4/basis/aug-cc-pvtz-ri.gbs 

	 --------------------------------------------------------
	                          DF-MP2                         
	      2nd-Order Density-Fitted Moller-Plesset Theory     
	              RMP2 Wavefunction,  20 Threads             
	                                                         
	        Rob Parrish, Justin Turney, Andy Simmonett,      
	           Ed Hohenstein, and C. David Sherrill          
	 --------------------------------------------------------

   => Auxiliary Basis Set <=

  Basis Set: (AUG-CC-PVTZ AUX)
    Blend: AUG-CC-PVTZ-RI
    Number of shells: 252
    Number of basis functions: 898
    Number of Cartesian functions: 1120
    Spherical Harmonics?: true
    Max angular momentum: 4

	 --------------------------------------------------------
	                 NBF =   414, NAUX =   898
	 --------------------------------------------------------
	   CLASS    FOCC     OCC    AOCC    AVIR     VIR    FVIR
	   PAIRS       0      25      25     389     389       0
	 --------------------------------------------------------

	-----------------------------------------------------------
	 ==================> DF-MP2 Energies <==================== 
	-----------------------------------------------------------
	 Reference Energy          =    -403.7877538197100193 [Eh]
	 Singles Energy            =      -0.0000000000000000 [Eh]
	 Same-Spin Energy          =      -0.3627291380080655 [Eh]
	 Opposite-Spin Energy      =      -1.0985849350151400 [Eh]
	 Correlation Energy        =      -1.4613140730232055 [Eh]
	 Total Energy              =    -405.2490678927332510 [Eh]
	-----------------------------------------------------------
	 ================> DF-SCS-MP2 Energies <================== 
	-----------------------------------------------------------
	 SCS Same-Spin Scale       =       0.3333333333333333 [-]
	 SCS Opposite-Spin Scale   =       1.2000000000000000 [-]
	 SCS Same-Spin Energy      =      -0.1209097126693552 [Eh]
	 SCS Opposite-Spin Energy  =      -1.3183019220181680 [Eh]
	 SCS Correlation Energy    =      -1.4392116346875232 [Eh]
	 SCS Total Energy          =    -405.2269654543975435 [Eh]
	-----------------------------------------------------------


*** tstop() called on ddmfs1 at Mon Jan 22 18:05:05 2024
Module time:
	user time   =      24.95 seconds =       0.42 minutes
	system time =       1.05 seconds =       0.02 minutes
	total time  =          3 seconds =       0.05 minutes
Total time:
	user time   =     101.85 seconds =       1.70 minutes
	system time =       5.03 seconds =       0.08 minutes
	total time  =          7 seconds =       0.12 minutes

    Psi4 stopped on: Monday, 22 January 2024 06:05PM
    Psi4 wall time for execution: 0:00:07.42

*** Psi4 exiting successfully. Buy a developer a beer!
