
    -----------------------------------------------------------------------
          Psi4: An Open-Source Ab Initio Electronic Structure Package
                               Psi4 1.8.2 release

                         Git: Rev {} zzzzzzz 


    D. G. A. Smith, L. A. Burns, A. C. Simmonett, R. M. Parrish,
    M. C. Schieber, R. Galvelis, P. Kraus, H. Kruse, R. Di Remigio,
    A. Alenaizan, A. M. James, S. Lehtola, J. P. Misiewicz, M. Scheurer,
    R. A. Shaw, J. B. Schriber, Y. Xie, Z. L. Glick, D. A. Sirianni,
    J. S. O'Brien, J. M. Waldrop, A. Kumar, E. G. Hohenstein,
    B. P. Pritchard, B. R. Brooks, H. F. Schaefer III, A. Yu. Sokolov,
    K. Patkowski, A. E. DePrince III, U. Bozkaya, R. A. King,
    F. A. Evangelista, J. M. Turney, T. D. Crawford, C. D. Sherrill,
    J. Chem. Phys. 152(18) 184108 (2020). https://doi.org/10.1063/5.0006002

                            Additional Code Authors
    E. T. Seidl, C. L. Janssen, E. F. Valeev, M. L. Leininger,
    J. F. Gonthier, R. M. Richard, H. R. McAlexander, M. Saitow, X. Wang,
    P. Verma, M. H. Lechner, A. Jiang, S. Behnle, A. G. Heide,
    M. F. Herbst, and D. L. Poole

             Previous Authors, Complete List of Code Contributors,
                       and Citations for Specific Modules
    https://github.com/psi4/psi4/blob/master/codemeta.json
    https://github.com/psi4/psi4/graphs/contributors
    http://psicode.org/psi4manual/master/introduction.html#citing-psifour

    -----------------------------------------------------------------------


    Psi4 started on: Monday, 22 January 2024 07:02PM

    Process ID: 94629
    Host:       ddmfs1
    PSIDATADIR: /ddmfs1b/softs/psi4conda/share/psi4
    Memory:     500.0 MiB
    Threads:    20
    
  ==> Input File <==

--------------------------------------------------------------------------
MEMORY 60 GB

molecule dimer {
0 1
Gh(F)      0.000000     0.000000     0.000000
Gh(O)      1.793472    -2.266511    -0.092888
Gh(H)      1.763845    -2.397327     0.845606
Gh(H)      0.978558    -1.723771    -0.253568
Gh(O)      0.660188     0.993220     2.493564
Gh(H)     -0.122404     1.069889     3.027976
Gh(H)      0.503953     0.186710     1.959817
Gh(O)     -0.690392    -1.471906    -2.361938
Gh(H)     -0.556917    -1.124097    -1.508427
Gh(H)     -0.721481    -2.433572    -2.323726
Gh(O)      1.530549     1.044253    -2.077763
Gh(H)      1.110398     1.449909    -2.804950
Gh(H)      0.839571     0.812979    -1.396290
O         -2.357393     1.196648    -0.494342
H         -2.542465     1.666648     0.313393
H         -1.569354     0.722806    -0.305017

units ang
no_reorient
no_com
symmetry c1
}

set {
basis        aug-cc-pVTZ
scf_type     df
}

energy("mp2")
--------------------------------------------------------------------------

  Memory set to  55.879 GiB by Python driver.

Scratch directory: /ddmfs1a/scratch/
   => Libint2 <=

    Primary   basis highest AM E, G, H:  5, 4, 3
    Auxiliary basis highest AM E, G, H:  6, 5, 4
    Onebody   basis highest AM E, G, H:  6, 5, 4
    Solid Harmonics ordering:            gaussian

*** tstart() called on ddmfs1
*** at Mon Jan 22 19:02:53 2024

   => Loading Basis Set <=

    Name: AUG-CC-PVTZ
    Role: ORBITAL
    Keyword: BASIS
    atoms 1                            entry F          line   377 file /ddmfs1b/softs/psi4conda/share/psi4/basis/aug-cc-pvtz.gbs 
    atoms 2, 5, 8, 11, 14              entry O          line   331 file /ddmfs1b/softs/psi4conda/share/psi4/basis/aug-cc-pvtz.gbs 
    atoms 3-4, 6-7, 9-10, 12-13, 15-16 entry H          line    40 file /ddmfs1b/softs/psi4conda/share/psi4/basis/aug-cc-pvtz.gbs 


         ---------------------------------------------------------
                                   SCF
               by Justin Turney, Rob Parrish, Andy Simmonett
                          and Daniel G. A. Smith
                              RHF Reference
                       20 Threads,  57220 MiB Core
         ---------------------------------------------------------

  ==> Geometry <==

    Molecular point group: c1
    Full point group: C1

    Geometry (in Angstrom), charge = 0, multiplicity = 1:

       Center              X                  Y                   Z               Mass       
    ------------   -----------------  -----------------  -----------------  -----------------
      Gh(F)           0.000000000000     0.000000000000     0.000000000000    18.998403162730
      Gh(O)           1.793472000000    -2.266511000000    -0.092888000000    15.994914619570
      Gh(H)           1.763845000000    -2.397327000000     0.845606000000     1.007825032230
      Gh(H)           0.978558000000    -1.723771000000    -0.253568000000     1.007825032230
      Gh(O)           0.660188000000     0.993220000000     2.493564000000    15.994914619570
      Gh(H)          -0.122404000000     1.069889000000     3.027976000000     1.007825032230
      Gh(H)           0.503953000000     0.186710000000     1.959817000000     1.007825032230
      Gh(O)          -0.690392000000    -1.471906000000    -2.361938000000    15.994914619570
      Gh(H)          -0.556917000000    -1.124097000000    -1.508427000000     1.007825032230
      Gh(H)          -0.721481000000    -2.433572000000    -2.323726000000     1.007825032230
      Gh(O)           1.530549000000     1.044253000000    -2.077763000000    15.994914619570
      Gh(H)           1.110398000000     1.449909000000    -2.804950000000     1.007825032230
      Gh(H)           0.839571000000     0.812979000000    -1.396290000000     1.007825032230
         O           -2.357393000000     1.196648000000    -0.494342000000    15.994914619570
         H           -2.542465000000     1.666648000000     0.313393000000     1.007825032230
         H           -1.569354000000     0.722806000000    -0.305017000000     1.007825032230

  Running in c1 symmetry.

  Rotational constants: A =      0.04490  B =      0.03810  C =      0.02913 [cm^-1]
  Rotational constants: A =   1346.14645  B =   1142.20349  C =    873.16948 [MHz]
  Nuclear repulsion =    9.308180501716873

  Charge       = 0
  Multiplicity = 1
  Electrons    = 10
  Nalpha       = 5
  Nbeta        = 5

  ==> Algorithm <==

  SCF Algorithm Type is DF.
  DIIS enabled.
  MOM disabled.
  Fractional occupation disabled.
  Guess Type is SAD.
  Energy threshold   = 1.00e-08
  Density threshold  = 1.00e-08
  Integral threshold = 1.00e-12

  ==> Primary Basis <==

  Basis Set: AUG-CC-PVTZ
    Blend: AUG-CC-PVTZ
    Number of shells: 174
    Number of basis functions: 506
    Number of Cartesian functions: 580
    Spherical Harmonics?: true
    Max angular momentum: 3

   => Loading Basis Set <=

    Name: (AUG-CC-PVTZ AUX)
    Role: JKFIT
    Keyword: DF_BASIS_SCF
    atoms 1                            entry F          line   348 file /ddmfs1b/softs/psi4conda/share/psi4/basis/aug-cc-pvtz-jkfit.gbs 
    atoms 2, 5, 8, 11, 14              entry O          line   286 file /ddmfs1b/softs/psi4conda/share/psi4/basis/aug-cc-pvtz-jkfit.gbs 
    atoms 3-4, 6-7, 9-10, 12-13, 15-16 entry H          line    70 file /ddmfs1b/softs/psi4conda/share/psi4/basis/aug-cc-pvtz-jkfit.gbs 

  ==> Integral Setup <==

  DFHelper Memory: AOs need 1.956 GiB; user supplied 41.910 GiB. 
  Using in-core AOs.

  ==> MemDFJK: Density-Fitted J/K Matrices <==

    J tasked:                   Yes
    K tasked:                   Yes
    wK tasked:                   No
    OpenMP threads:              20
    Memory [MiB]:             42915
    Algorithm:                 Core
    Schwarz Cutoff:           1E-12
    Mask sparsity (%):      10.1454
    Fitting Condition:        1E-10

   => Auxiliary Basis Set <=

  Basis Set: (AUG-CC-PVTZ AUX)
    Blend: AUG-CC-PVTZ-JKFIT
    Number of shells: 320
    Number of basis functions: 1084
    Number of Cartesian functions: 1336
    Spherical Harmonics?: true
    Max angular momentum: 4

  Minimum eigenvalue in the overlap matrix is 8.2312732460E-05.
  Reciprocal condition number of the overlap matrix is 6.0465236227E-06.
    Using symmetric orthogonalization.

  ==> Pre-Iterations <==

  SCF Guess: Superposition of Atomic Densities via on-the-fly atomic UHF (no occupation information).

   -------------------------
    Irrep   Nso     Nmo    
   -------------------------
     A        506     506 
   -------------------------
    Total     506     506
   -------------------------

  ==> Iterations <==

                           Total Energy        Delta E     RMS |[F,P]|

   @DF-RHF iter SAD:   -75.49161949767259   -7.54916e+01   0.00000e+00 
   @DF-RHF iter   1:   -75.97706997544799   -4.85450e-01   9.29108e-04 ADIIS/DIIS
   @DF-RHF iter   2:   -76.03009737124026   -5.30274e-02   6.23966e-04 ADIIS/DIIS
   @DF-RHF iter   3:   -76.06060887743001   -3.05115e-02   4.23051e-05 DIIS
   @DF-RHF iter   4:   -76.06098040810170   -3.71531e-04   9.80421e-06 DIIS
   @DF-RHF iter   5:   -76.06100197596527   -2.15679e-05   2.19671e-06 DIIS
   @DF-RHF iter   6:   -76.06100369751366   -1.72155e-06   4.79194e-07 DIIS
   @DF-RHF iter   7:   -76.06100378855103   -9.10374e-08   8.79486e-08 DIIS
   @DF-RHF iter   8:   -76.06100379127817   -2.72713e-09   1.44992e-08 DIIS
   @DF-RHF iter   9:   -76.06100379133534   -5.71703e-11   3.46027e-09 DIIS
  Energy and wave function converged.


  ==> Post-Iterations <==

    Orbital Energies [Eh]
    ---------------------

    Doubly Occupied:                                                      

       1A    -20.565306     2A     -1.360058     3A     -0.723055  
       4A     -0.588191     5A     -0.511476  

    Virtual:                                                              

       6A      0.015351     7A      0.031337     8A      0.037841  
       9A      0.043669    10A      0.055046    11A      0.060308  
      12A      0.064200    13A      0.071805    14A      0.086542  
      15A      0.090155    16A      0.110937    17A      0.121465  
      18A      0.124535    19A      0.132664    20A      0.136287  
      21A      0.145099    22A      0.152550    23A      0.155704  
      24A      0.166965    25A      0.169078    26A      0.171820  
      27A      0.182378    28A      0.186365    29A      0.191635  
      30A      0.197770    31A      0.206940    32A      0.214457  
      33A      0.219225    34A      0.224279    35A      0.239647  
      36A      0.244009    37A      0.245862    38A      0.267615  
      39A      0.283591    40A      0.288531    41A      0.291524  
      42A      0.295256    43A      0.311150    44A      0.313503  
      45A      0.319500    46A      0.328440    47A      0.330777  
      48A      0.331871    49A      0.345490    50A      0.348422  
      51A      0.356991    52A      0.364868    53A      0.372307  
      54A      0.378717    55A      0.388016    56A      0.395686  
      57A      0.401242    58A      0.404787    59A      0.418531  
      60A      0.425568    61A      0.433780    62A      0.437101  
      63A      0.444526    64A      0.453803    65A      0.456116  
      66A      0.464123    67A      0.474751    68A      0.479030  
      69A      0.487431    70A      0.499023    71A      0.531300  
      72A      0.539075    73A      0.543597    74A      0.548961  
      75A      0.563311    76A      0.584011    77A      0.605313  
      78A      0.614641    79A      0.635354    80A      0.672766  
      81A      0.683235    82A      0.685842    83A      0.709618  
      84A      0.715009    85A      0.726332    86A      0.737160  
      87A      0.739165    88A      0.751113    89A      0.758713  
      90A      0.761623    91A      0.763221    92A      0.778651  
      93A      0.781517    94A      0.788005    95A      0.789478  
      96A      0.799544    97A      0.810042    98A      0.816536  
      99A      0.824394   100A      0.829533   101A      0.839297  
     102A      0.848584   103A      0.850233   104A      0.859781  
     105A      0.867415   106A      0.870562   107A      0.878414  
     108A      0.881857   109A      0.882762   110A      0.895533  
     111A      0.903744   112A      0.912093   113A      0.921337  
     114A      0.925736   115A      0.931685   116A      0.936985  
     117A      0.943496   118A      0.949163   119A      0.953589  
     120A      0.966161   121A      0.969351   122A      0.975443  
     123A      0.980952   124A      0.987091   125A      0.991248  
     126A      0.996698   127A      1.009800   128A      1.015101  
     129A      1.019691   130A      1.034037   131A      1.037151  
     132A      1.044549   133A      1.048840   134A      1.055237  
     135A      1.062876   136A      1.068137   137A      1.077947  
     138A      1.086887   139A      1.101650   140A      1.110256  
     141A      1.114787   142A      1.125109   143A      1.128031  
     144A      1.153314   145A      1.158953   146A      1.168773  
     147A      1.171225   148A      1.191656   149A      1.195676  
     150A      1.205809   151A      1.218403   152A      1.220787  
     153A      1.232383   154A      1.249614   155A      1.256130  
     156A      1.274187   157A      1.281262   158A      1.294023  
     159A      1.302243   160A      1.309158   161A      1.331502  
     162A      1.351109   163A      1.362494   164A      1.374648  
     165A      1.391252   166A      1.397672   167A      1.408629  
     168A      1.437862   169A      1.445766   170A      1.454925  
     171A      1.460764   172A      1.475020   173A      1.491411  
     174A      1.503016   175A      1.527130   176A      1.536313  
     177A      1.565128   178A      1.576673   179A      1.583435  
     180A      1.596610   181A      1.607241   182A      1.628278  
     183A      1.637639   184A      1.661513   185A      1.672593  
     186A      1.675307   187A      1.688402   188A      1.703787  
     189A      1.725059   190A      1.732787   191A      1.753541  
     192A      1.764628   193A      1.775830   194A      1.786937  
     195A      1.794211   196A      1.809952   197A      1.829573  
     198A      1.837355   199A      1.843305   200A      1.858689  
     201A      1.864059   202A      1.873373   203A      1.882018  
     204A      1.895665   205A      1.897079   206A      1.926909  
     207A      1.940481   208A      1.949774   209A      1.960676  
     210A      1.978165   211A      2.000109   212A      2.022479  
     213A      2.033801   214A      2.068896   215A      2.093143  
     216A      2.133255   217A      2.147253   218A      2.171413  
     219A      2.214515   220A      2.242357   221A      2.278727  
     222A      2.298766   223A      2.323966   224A      2.430771  
     225A      2.442258   226A      2.458195   227A      2.466748  
     228A      2.474121   229A      2.479781   230A      2.491058  
     231A      2.501569   232A      2.503936   233A      2.522437  
     234A      2.529519   235A      2.545195   236A      2.552672  
     237A      2.561776   238A      2.570228   239A      2.595946  
     240A      2.612150   241A      2.621554   242A      2.637440  
     243A      2.642352   244A      2.657151   245A      2.672003  
     246A      2.681669   247A      2.687077   248A      2.705056  
     249A      2.719230   250A      2.736862   251A      2.741534  
     252A      2.749098   253A      2.761849   254A      2.773805  
     255A      2.786222   256A      2.802863   257A      2.815958  
     258A      2.829584   259A      2.840077   260A      2.851211  
     261A      2.871490   262A      2.889628   263A      2.901753  
     264A      2.921798   265A      2.932688   266A      2.973503  
     267A      2.983433   268A      3.025602   269A      3.031566  
     270A      3.063408   271A      3.127766   272A      3.168562  
     273A      3.204937   274A      3.215098   275A      3.224772  
     276A      3.245295   277A      3.248110   278A      3.251857  
     279A      3.267917   280A      3.284757   281A      3.293790  
     282A      3.315373   283A      3.337937   284A      3.368829  
     285A      3.385112   286A      3.412808   287A      3.425377  
     288A      3.437474   289A      3.466983   290A      3.479891  
     291A      3.518950   292A      3.566977   293A      3.574322  
     294A      3.580835   295A      3.615864   296A      3.627195  
     297A      3.643772   298A      3.650326   299A      3.681277  
     300A      3.694199   301A      3.706303   302A      3.734956  
     303A      3.750799   304A      3.796287   305A      3.816339  
     306A      3.858797   307A      3.908498   308A      3.974433  
     309A      3.991295   310A      4.049012   311A      4.094496  
     312A      4.106942   313A      4.125086   314A      4.180694  
     315A      4.213780   316A      4.284213   317A      4.311156  
     318A      4.322627   319A      4.357648   320A      4.387798  
     321A      4.396957   322A      4.414141   323A      4.422914  
     324A      4.445135   325A      4.469901   326A      4.486431  
     327A      4.490681   328A      4.503568   329A      4.512280  
     330A      4.532728   331A      4.541207   332A      4.555427  
     333A      4.569471   334A      4.584288   335A      4.605234  
     336A      4.625697   337A      4.629144   338A      4.647996  
     339A      4.664948   340A      4.688404   341A      4.703497  
     342A      4.712317   343A      4.736373   344A      4.757878  
     345A      4.781680   346A      4.824581   347A      4.855494  
     348A      4.860716   349A      4.894505   350A      4.903376  
     351A      4.920358   352A      4.944953   353A      4.961727  
     354A      4.969335   355A      4.994227   356A      5.004891  
     357A      5.045849   358A      5.047751   359A      5.090139  
     360A      5.100779   361A      5.125551   362A      5.159071  
     363A      5.204239   364A      5.230513   365A      5.265400  
     366A      5.280955   367A      5.326913   368A      5.335333  
     369A      5.342597   370A      5.379873   371A      5.387012  
     372A      5.537552   373A      5.550800   374A      5.569132  
     375A      5.587214   376A      5.621714   377A      5.626135  
     378A      5.656059   379A      5.672491   380A      5.677629  
     381A      5.688419   382A      5.700063   383A      5.705719  
     384A      5.760268   385A      5.808031   386A      5.883896  
     387A      5.905053   388A      5.908186   389A      5.959294  
     390A      5.979995   391A      6.143598   392A      6.184979  
     393A      6.235892   394A      6.264704   395A      6.313528  
     396A      6.430223   397A      6.450865   398A      6.559938  
     399A      6.569695   400A      6.585893   401A      6.656922  
     402A      6.692581   403A      6.775948   404A      6.818681  
     405A      6.908295   406A      7.054051   407A      7.067057  
     408A      7.086075   409A      7.149869   410A      7.185944  
     411A      7.231346   412A      7.311292   413A      7.392616  
     414A      7.425200   415A      7.476717   416A      7.530202  
     417A      7.715391   418A      7.735554   419A      7.784117  
     420A      7.809370   421A      7.822899   422A      7.828824  
     423A      7.849210   424A      7.865019   425A      7.901693  
     426A      8.048489   427A      8.068226   428A      8.072224  
     429A      8.088899   430A      8.111567   431A      8.189933  
     432A      8.198425   433A      8.211936   434A      8.293650  
     435A      8.312797   436A      8.319980   437A      8.333547  
     438A      8.357387   439A      8.377101   440A      8.760978  
     441A      8.803662   442A      8.844614   443A      8.854309  
     444A      8.884600   445A      8.936013   446A      8.978942  
     447A      9.016607   448A      9.248075   449A      9.672264  
     450A      9.737945   451A      9.744709   452A      9.820847  
     453A      9.883108   454A      9.896688   455A      9.922859  
     456A      9.982853   457A     10.047225   458A     10.109760  
     459A     10.116389   460A     10.145788   461A     10.253074  
     462A     10.296502   463A     10.333751   464A     10.347059  
     465A     10.394975   466A     10.495898   467A     10.504341  
     468A     10.561686   469A     10.660115   470A     10.669430  
     471A     10.768127   472A     11.180228   473A     11.196212  
     474A     11.215987   475A     11.287281   476A     11.687783  
     477A     11.759793   478A     11.820681   479A     11.919919  
     480A     11.965453   481A     12.134142   482A     12.149771  
     483A     12.367405   484A     12.474842   485A     13.225771  
     486A     13.280916   487A     13.283245   488A     13.368852  
     489A     13.515394   490A     13.603745   491A     13.612932  
     492A     13.710234   493A     13.837188   494A     13.894466  
     495A     13.965106   496A     13.998591   497A     14.094325  
     498A     15.172515   499A     15.246114   500A     15.290844  
     501A     17.792029   502A     65.107040   503A     65.505337  
     504A     66.521653   505A     68.271398   506A     74.384687  

    Final Occupation by Irrep:
              A 
    DOCC [     5 ]
    NA   [     5 ]
    NB   [     5 ]

  @DF-RHF Final Energy:   -76.06100379133534

   => Energetics <=

    Nuclear Repulsion Energy =              9.3081805017168726
    One-Electron Energy =                -123.2421965150089704
    Two-Electron Energy =                  37.8730122219567562
    Total Energy =                        -76.0610037913353381

Computation Completed


Properties will be evaluated at   0.000000,   0.000000,   0.000000 [a0]

Properties computed using the SCF density matrix


 Multipole Moments:

 ------------------------------------------------------------------------------------
     Multipole            Electronic (a.u.)      Nuclear  (a.u.)        Total (a.u.)
 ------------------------------------------------------------------------------------

 L = 1.  Multiply by 2.5417464519 to convert [e a0] to [Debye]
 Dipole X            :         43.8140860          -43.4088289            0.4052571
 Dipole Y            :        -22.6106417           22.6061096           -0.0045322
 Dipole Z            :          8.1238932           -7.4575396            0.6663537
 Magnitude           :                                                    0.7799238

 ------------------------------------------------------------------------------------

*** tstop() called on ddmfs1 at Mon Jan 22 19:02:58 2024
Module time:
	user time   =      85.85 seconds =       1.43 minutes
	system time =       4.03 seconds =       0.07 minutes
	total time  =          5 seconds =       0.08 minutes
Total time:
	user time   =      85.85 seconds =       1.43 minutes
	system time =       4.03 seconds =       0.07 minutes
	total time  =          5 seconds =       0.08 minutes

*** tstart() called on ddmfs1
*** at Mon Jan 22 19:02:58 2024


  //>>>>>>>>>>>>>>>>>>>>>>>>>>>>>>>>>>>//
  //               DFMP2               //
  //<<<<<<<<<<<<<<<<<<<<<<<<<<<<<<<<<<<//

   => Loading Basis Set <=

    Name: (AUG-CC-PVTZ AUX)
    Role: RIFIT
    Keyword: DF_BASIS_MP2
    atoms 1                            entry F          line   322 file /ddmfs1b/softs/psi4conda/share/psi4/basis/aug-cc-pvtz-ri.gbs 
    atoms 2, 5, 8, 11, 14              entry O          line   264 file /ddmfs1b/softs/psi4conda/share/psi4/basis/aug-cc-pvtz-ri.gbs 
    atoms 3-4, 6-7, 9-10, 12-13, 15-16 entry H          line    30 file /ddmfs1b/softs/psi4conda/share/psi4/basis/aug-cc-pvtz-ri.gbs 

	 --------------------------------------------------------
	                          DF-MP2                         
	      2nd-Order Density-Fitted Moller-Plesset Theory     
	              RMP2 Wavefunction,  20 Threads             
	                                                         
	        Rob Parrish, Justin Turney, Andy Simmonett,      
	           Ed Hohenstein, and C. David Sherrill          
	 --------------------------------------------------------

   => Auxiliary Basis Set <=

  Basis Set: (AUG-CC-PVTZ AUX)
    Blend: AUG-CC-PVTZ-RI
    Number of shells: 308
    Number of basis functions: 1096
    Number of Cartesian functions: 1366
    Spherical Harmonics?: true
    Max angular momentum: 4

	 --------------------------------------------------------
	                 NBF =   506, NAUX =  1096
	 --------------------------------------------------------
	   CLASS    FOCC     OCC    AOCC    AVIR     VIR    FVIR
	   PAIRS       0       5       5     501     501       0
	 --------------------------------------------------------

	-----------------------------------------------------------
	 ==================> DF-MP2 Energies <==================== 
	-----------------------------------------------------------
	 Reference Energy          =     -76.0610037913353381 [Eh]
	 Singles Energy            =      -0.0000000000000000 [Eh]
	 Same-Spin Energy          =      -0.0682209992998403 [Eh]
	 Opposite-Spin Energy      =      -0.2155645876724518 [Eh]
	 Correlation Energy        =      -0.2837855869722921 [Eh]
	 Total Energy              =     -76.3447893783076239 [Eh]
	-----------------------------------------------------------
	 ================> DF-SCS-MP2 Energies <================== 
	-----------------------------------------------------------
	 SCS Same-Spin Scale       =       0.3333333333333333 [-]
	 SCS Opposite-Spin Scale   =       1.2000000000000000 [-]
	 SCS Same-Spin Energy      =      -0.0227403330999468 [Eh]
	 SCS Opposite-Spin Energy  =      -0.2586775052069422 [Eh]
	 SCS Correlation Energy    =      -0.2814178383068889 [Eh]
	 SCS Total Energy          =     -76.3424216296422316 [Eh]
	-----------------------------------------------------------


*** tstop() called on ddmfs1 at Mon Jan 22 19:03:02 2024
Module time:
	user time   =      24.47 seconds =       0.41 minutes
	system time =       1.20 seconds =       0.02 minutes
	total time  =          4 seconds =       0.07 minutes
Total time:
	user time   =     110.34 seconds =       1.84 minutes
	system time =       5.23 seconds =       0.09 minutes
	total time  =          9 seconds =       0.15 minutes

    Psi4 stopped on: Monday, 22 January 2024 07:03PM
    Psi4 wall time for execution: 0:00:08.96

*** Psi4 exiting successfully. Buy a developer a beer!
