
    -----------------------------------------------------------------------
          Psi4: An Open-Source Ab Initio Electronic Structure Package
                               Psi4 1.8.2 release

                         Git: Rev {} zzzzzzz 


    D. G. A. Smith, L. A. Burns, A. C. Simmonett, R. M. Parrish,
    M. C. Schieber, R. Galvelis, P. Kraus, H. Kruse, R. Di Remigio,
    A. Alenaizan, A. M. James, S. Lehtola, J. P. Misiewicz, M. Scheurer,
    R. A. Shaw, J. B. Schriber, Y. Xie, Z. L. Glick, D. A. Sirianni,
    J. S. O'Brien, J. M. Waldrop, A. Kumar, E. G. Hohenstein,
    B. P. Pritchard, B. R. Brooks, H. F. Schaefer III, A. Yu. Sokolov,
    K. Patkowski, A. E. DePrince III, U. Bozkaya, R. A. King,
    F. A. Evangelista, J. M. Turney, T. D. Crawford, C. D. Sherrill,
    J. Chem. Phys. 152(18) 184108 (2020). https://doi.org/10.1063/5.0006002

                            Additional Code Authors
    E. T. Seidl, C. L. Janssen, E. F. Valeev, M. L. Leininger,
    J. F. Gonthier, R. M. Richard, H. R. McAlexander, M. Saitow, X. Wang,
    P. Verma, M. H. Lechner, A. Jiang, S. Behnle, A. G. Heide,
    M. F. Herbst, and D. L. Poole

             Previous Authors, Complete List of Code Contributors,
                       and Citations for Specific Modules
    https://github.com/psi4/psi4/blob/master/codemeta.json
    https://github.com/psi4/psi4/graphs/contributors
    http://psicode.org/psi4manual/master/introduction.html#citing-psifour

    -----------------------------------------------------------------------


    Psi4 started on: Monday, 22 January 2024 04:59PM

    Process ID: 81276
    Host:       ddmfs1
    PSIDATADIR: /ddmfs1b/softs/psi4conda/share/psi4
    Memory:     500.0 MiB
    Threads:    20
    
  ==> Input File <==

--------------------------------------------------------------------------
MEMORY 60 GB

molecule dimer {
0 1
Gh(F)      0.000000     0.000000     0.000000
O          1.817114     1.946444    -0.723175
H          1.018768     1.381289    -1.036039
H          2.133974     1.611845     0.184788
Gh(O)     -1.618648     2.227966     0.983095
Gh(H)     -1.190650     1.430225     0.637791
Gh(H)     -1.783720     2.118152     1.906642
Gh(O)     -0.955691     1.698319    -2.105695
Gh(H)     -0.402285     1.876495    -2.895468
Gh(H)     -1.255684     0.819664    -2.003767
Gh(O)      1.688096    -0.251298     2.069765
Gh(H)      2.518079     0.189713     1.984541
Gh(H)      1.298638    -0.141263     1.240993
Gh(O)      1.074017    -0.791253    -2.569566
Gh(H)      1.889382    -0.271590    -2.714166
Gh(H)      0.775089    -0.600320    -1.647716
Gh(O)     -1.131261    -2.325104     0.575167
Gh(H)     -0.809361    -1.464786     0.417327
Gh(H)     -2.086261    -2.127325     0.545425

units ang
no_reorient
no_com
symmetry c1
}

set {
basis        aug-cc-pVTZ
scf_type     df
}

energy("mp2")
--------------------------------------------------------------------------

  Memory set to  55.879 GiB by Python driver.

Scratch directory: /ddmfs1a/scratch/
   => Libint2 <=

    Primary   basis highest AM E, G, H:  5, 4, 3
    Auxiliary basis highest AM E, G, H:  6, 5, 4
    Onebody   basis highest AM E, G, H:  6, 5, 4
    Solid Harmonics ordering:            gaussian

*** tstart() called on ddmfs1
*** at Mon Jan 22 16:59:44 2024

   => Loading Basis Set <=

    Name: AUG-CC-PVTZ
    Role: ORBITAL
    Keyword: BASIS
    atoms 1                                   entry F          line   377 file /ddmfs1b/softs/psi4conda/share/psi4/basis/aug-cc-pvtz.gbs 
    atoms 2, 5, 8, 11, 14, 17                 entry O          line   331 file /ddmfs1b/softs/psi4conda/share/psi4/basis/aug-cc-pvtz.gbs 
    atoms 3-4, 6-7, 9-10, 12-13, 15-16, 18-19 entry H          line    40 file /ddmfs1b/softs/psi4conda/share/psi4/basis/aug-cc-pvtz.gbs 


         ---------------------------------------------------------
                                   SCF
               by Justin Turney, Rob Parrish, Andy Simmonett
                          and Daniel G. A. Smith
                              RHF Reference
                       20 Threads,  57220 MiB Core
         ---------------------------------------------------------

  ==> Geometry <==

    Molecular point group: c1
    Full point group: C1

    Geometry (in Angstrom), charge = 0, multiplicity = 1:

       Center              X                  Y                   Z               Mass       
    ------------   -----------------  -----------------  -----------------  -----------------
      Gh(F)           0.000000000000     0.000000000000     0.000000000000    18.998403162730
         O            1.817114000000     1.946444000000    -0.723175000000    15.994914619570
         H            1.018768000000     1.381289000000    -1.036039000000     1.007825032230
         H            2.133974000000     1.611845000000     0.184788000000     1.007825032230
      Gh(O)          -1.618648000000     2.227966000000     0.983095000000    15.994914619570
      Gh(H)          -1.190650000000     1.430225000000     0.637791000000     1.007825032230
      Gh(H)          -1.783720000000     2.118152000000     1.906642000000     1.007825032230
      Gh(O)          -0.955691000000     1.698319000000    -2.105695000000    15.994914619570
      Gh(H)          -0.402285000000     1.876495000000    -2.895468000000     1.007825032230
      Gh(H)          -1.255684000000     0.819664000000    -2.003767000000     1.007825032230
      Gh(O)           1.688096000000    -0.251298000000     2.069765000000    15.994914619570
      Gh(H)           2.518079000000     0.189713000000     1.984541000000     1.007825032230
      Gh(H)           1.298638000000    -0.141263000000     1.240993000000     1.007825032230
      Gh(O)           1.074017000000    -0.791253000000    -2.569566000000    15.994914619570
      Gh(H)           1.889382000000    -0.271590000000    -2.714166000000     1.007825032230
      Gh(H)           0.775089000000    -0.600320000000    -1.647716000000     1.007825032230
      Gh(O)          -1.131261000000    -2.325104000000     0.575167000000    15.994914619570
      Gh(H)          -0.809361000000    -1.464786000000     0.417327000000     1.007825032230
      Gh(H)          -2.086261000000    -2.127325000000     0.545425000000     1.007825032230

  Running in c1 symmetry.

  Rotational constants: A =      0.03478  B =      0.02949  C =      0.02725 [cm^-1]
  Rotational constants: A =   1042.76580  B =    884.23101  C =    816.99036 [MHz]
  Nuclear repulsion =    8.596961378181247

  Charge       = 0
  Multiplicity = 1
  Electrons    = 10
  Nalpha       = 5
  Nbeta        = 5

  ==> Algorithm <==

  SCF Algorithm Type is DF.
  DIIS enabled.
  MOM disabled.
  Fractional occupation disabled.
  Guess Type is SAD.
  Energy threshold   = 1.00e-08
  Density threshold  = 1.00e-08
  Integral threshold = 1.00e-12

  ==> Primary Basis <==

  Basis Set: AUG-CC-PVTZ
    Blend: AUG-CC-PVTZ
    Number of shells: 206
    Number of basis functions: 598
    Number of Cartesian functions: 685
    Spherical Harmonics?: true
    Max angular momentum: 3

   => Loading Basis Set <=

    Name: (AUG-CC-PVTZ AUX)
    Role: JKFIT
    Keyword: DF_BASIS_SCF
    atoms 1                                   entry F          line   348 file /ddmfs1b/softs/psi4conda/share/psi4/basis/aug-cc-pvtz-jkfit.gbs 
    atoms 2, 5, 8, 11, 14, 17                 entry O          line   286 file /ddmfs1b/softs/psi4conda/share/psi4/basis/aug-cc-pvtz-jkfit.gbs 
    atoms 3-4, 6-7, 9-10, 12-13, 15-16, 18-19 entry H          line    70 file /ddmfs1b/softs/psi4conda/share/psi4/basis/aug-cc-pvtz-jkfit.gbs 

  ==> Integral Setup <==

  DFHelper Memory: AOs need 3.202 GiB; user supplied 41.910 GiB. 
  Using in-core AOs.

  ==> MemDFJK: Density-Fitted J/K Matrices <==

    J tasked:                   Yes
    K tasked:                   Yes
    wK tasked:                   No
    OpenMP threads:              20
    Memory [MiB]:             42915
    Algorithm:                 Core
    Schwarz Cutoff:           1E-12
    Mask sparsity (%):      10.1369
    Fitting Condition:        1E-10

   => Auxiliary Basis Set <=

  Basis Set: (AUG-CC-PVTZ AUX)
    Blend: AUG-CC-PVTZ-JKFIT
    Number of shells: 378
    Number of basis functions: 1280
    Number of Cartesian functions: 1577
    Spherical Harmonics?: true
    Max angular momentum: 4

  Minimum eigenvalue in the overlap matrix is 2.6852996647E-05.
  Reciprocal condition number of the overlap matrix is 1.6834168572E-06.
    Using symmetric orthogonalization.

  ==> Pre-Iterations <==

  SCF Guess: Superposition of Atomic Densities via on-the-fly atomic UHF (no occupation information).

   -------------------------
    Irrep   Nso     Nmo    
   -------------------------
     A        598     598 
   -------------------------
    Total     598     598
   -------------------------

  ==> Iterations <==

                           Total Energy        Delta E     RMS |[F,P]|

   @DF-RHF iter SAD:   -75.39569682801711   -7.53957e+01   0.00000e+00 
   @DF-RHF iter   1:   -75.96086583788681   -5.65169e-01   7.78330e-04 ADIIS/DIIS
   @DF-RHF iter   2:   -76.01124325543201   -5.03774e-02   5.67196e-04 ADIIS/DIIS
   @DF-RHF iter   3:   -76.04775209706281   -3.65088e-02   3.89745e-05 DIIS
   @DF-RHF iter   4:   -76.04825073618670   -4.98639e-04   1.06538e-05 DIIS
   @DF-RHF iter   5:   -76.04829244042280   -4.17042e-05   2.53322e-06 DIIS
   @DF-RHF iter   6:   -76.04829615759479   -3.71717e-06   5.67318e-07 DIIS
   @DF-RHF iter   7:   -76.04829635741130   -1.99817e-07   1.05325e-07 DIIS
   @DF-RHF iter   8:   -76.04829636335411   -5.94281e-09   1.96387e-08 DIIS
   @DF-RHF iter   9:   -76.04829636353409   -1.79980e-10   5.45059e-09 DIIS
  Energy and wave function converged.


  ==> Post-Iterations <==

    Orbital Energies [Eh]
    ---------------------

    Doubly Occupied:                                                      

       1A    -20.575514     2A     -1.319278     3A     -0.691477  
       4A     -0.563060     5A     -0.503725  

    Virtual:                                                              

       6A      0.014084     7A      0.032055     8A      0.034771  
       9A      0.038194    10A      0.054061    11A      0.058404  
      12A      0.061587    13A      0.063737    14A      0.073176  
      15A      0.083721    16A      0.090320    17A      0.094773  
      18A      0.099703    19A      0.115868    20A      0.125250  
      21A      0.131305    22A      0.139753    23A      0.143832  
      24A      0.148170    25A      0.154894    26A      0.159641  
      27A      0.160822    28A      0.172419    29A      0.177200  
      30A      0.187150    31A      0.188281    32A      0.192378  
      33A      0.196371    34A      0.201001    35A      0.215029  
      36A      0.216643    37A      0.226652    38A      0.230083  
      39A      0.239120    40A      0.241780    41A      0.246172  
      42A      0.257296    43A      0.259466    44A      0.272514  
      45A      0.288151    46A      0.291008    47A      0.300647  
      48A      0.310290    49A      0.310861    50A      0.318087  
      51A      0.324792    52A      0.329521    53A      0.337304  
      54A      0.343246    55A      0.347759    56A      0.351150  
      57A      0.354709    58A      0.371214    59A      0.373707  
      60A      0.374359    61A      0.381377    62A      0.386692  
      63A      0.394637    64A      0.398875    65A      0.408579  
      66A      0.411853    67A      0.419230    68A      0.428325  
      69A      0.428945    70A      0.439448    71A      0.444634  
      72A      0.448367    73A      0.459217    74A      0.463381  
      75A      0.464597    76A      0.471742    77A      0.476774  
      78A      0.491485    79A      0.494932    80A      0.504673  
      81A      0.514557    82A      0.535920    83A      0.541791  
      84A      0.550063    85A      0.556738    86A      0.567931  
      87A      0.574665    88A      0.580691    89A      0.592504  
      90A      0.601877    91A      0.626123    92A      0.647955  
      93A      0.661487    94A      0.666453    95A      0.680045  
      96A      0.694954    97A      0.702735    98A      0.716068  
      99A      0.721866   100A      0.731142   101A      0.747129  
     102A      0.755906   103A      0.757727   104A      0.772231  
     105A      0.774649   106A      0.783314   107A      0.786971  
     108A      0.788216   109A      0.797124   110A      0.798128  
     111A      0.804435   112A      0.815605   113A      0.819836  
     114A      0.822780   115A      0.829555   116A      0.832923  
     117A      0.838186   118A      0.846279   119A      0.852775  
     120A      0.854674   121A      0.864390   122A      0.869589  
     123A      0.875514   124A      0.876962   125A      0.884740  
     126A      0.891988   127A      0.909530   128A      0.911237  
     129A      0.916056   130A      0.923360   131A      0.934272  
     132A      0.935454   133A      0.937263   134A      0.953820  
     135A      0.958631   136A      0.964789   137A      0.975416  
     138A      0.977818   139A      0.982202   140A      0.988272  
     141A      0.996173   142A      0.999316   143A      1.001831  
     144A      1.013114   145A      1.016383   146A      1.026764  
     147A      1.034137   148A      1.037798   149A      1.043296  
     150A      1.047482   151A      1.053888   152A      1.061213  
     153A      1.068244   154A      1.074785   155A      1.081641  
     156A      1.086081   157A      1.091588   158A      1.106932  
     159A      1.121960   160A      1.129364   161A      1.135236  
     162A      1.138605   163A      1.151851   164A      1.157726  
     165A      1.163586   166A      1.174085   167A      1.175885  
     168A      1.191894   169A      1.196320   170A      1.206651  
     171A      1.212333   172A      1.230390   173A      1.233927  
     174A      1.238065   175A      1.251056   176A      1.253694  
     177A      1.262152   178A      1.269757   179A      1.278369  
     180A      1.289800   181A      1.299798   182A      1.305865  
     183A      1.321145   184A      1.326254   185A      1.348273  
     186A      1.358641   187A      1.364369   188A      1.387808  
     189A      1.394345   190A      1.402264   191A      1.410368  
     192A      1.421789   193A      1.427413   194A      1.445165  
     195A      1.451474   196A      1.462337   197A      1.469861  
     198A      1.477216   199A      1.486610   200A      1.491931  
     201A      1.507477   202A      1.512740   203A      1.523336  
     204A      1.542313   205A      1.552053   206A      1.553629  
     207A      1.573869   208A      1.590939   209A      1.595976  
     210A      1.611946   211A      1.624231   212A      1.631217  
     213A      1.640458   214A      1.650007   215A      1.662552  
     216A      1.686108   217A      1.698221   218A      1.709101  
     219A      1.729458   220A      1.738197   221A      1.745205  
     222A      1.748602   223A      1.763560   224A      1.772992  
     225A      1.783544   226A      1.795104   227A      1.800406  
     228A      1.811290   229A      1.816840   230A      1.827308  
     231A      1.835820   232A      1.844152   233A      1.852646  
     234A      1.863858   235A      1.872593   236A      1.897728  
     237A      1.900563   238A      1.905620   239A      1.913900  
     240A      1.921331   241A      1.945134   242A      1.957021  
     243A      1.960642   244A      1.970839   245A      1.983217  
     246A      1.989222   247A      1.997784   248A      2.005576  
     249A      2.032147   250A      2.050448   251A      2.073689  
     252A      2.083551   253A      2.100696   254A      2.118417  
     255A      2.143186   256A      2.153854   257A      2.178209  
     258A      2.188279   259A      2.246226   260A      2.271802  
     261A      2.308630   262A      2.343873   263A      2.384093  
     264A      2.412482   265A      2.451126   266A      2.480031  
     267A      2.485380   268A      2.492436   269A      2.496767  
     270A      2.510624   271A      2.521457   272A      2.526742  
     273A      2.530037   274A      2.550729   275A      2.571199  
     276A      2.575394   277A      2.580899   278A      2.592422  
     279A      2.612614   280A      2.615842   281A      2.628400  
     282A      2.632427   283A      2.646034   284A      2.655931  
     285A      2.663125   286A      2.675514   287A      2.688348  
     288A      2.697158   289A      2.709677   290A      2.714743  
     291A      2.725795   292A      2.734548   293A      2.755916  
     294A      2.757059   295A      2.775833   296A      2.790004  
     297A      2.798939   298A      2.814792   299A      2.822721  
     300A      2.826186   301A      2.838297   302A      2.843898  
     303A      2.865137   304A      2.875839   305A      2.892512  
     306A      2.900488   307A      2.911372   308A      2.934962  
     309A      2.950650   310A      2.955854   311A      2.969481  
     312A      3.002055   313A      3.014194   314A      3.030134  
     315A      3.047923   316A      3.067425   317A      3.089938  
     318A      3.098829   319A      3.155521   320A      3.181444  
     321A      3.189533   322A      3.193005   323A      3.208704  
     324A      3.214433   325A      3.231834   326A      3.237077  
     327A      3.247890   328A      3.257782   329A      3.259539  
     330A      3.273295   331A      3.281622   332A      3.288295  
     333A      3.303326   334A      3.338253   335A      3.347266  
     336A      3.371496   337A      3.385592   338A      3.395996  
     339A      3.406417   340A      3.447096   341A      3.462674  
     342A      3.490558   343A      3.526986   344A      3.547405  
     345A      3.562538   346A      3.572555   347A      3.592782  
     348A      3.607624   349A      3.628408   350A      3.647260  
     351A      3.660025   352A      3.688000   353A      3.691056  
     354A      3.699492   355A      3.708957   356A      3.767479  
     357A      3.781735   358A      3.809028   359A      3.829283  
     360A      3.843114   361A      3.853287   362A      3.893915  
     363A      3.912501   364A      4.011702   365A      4.066827  
     366A      4.085448   367A      4.144638   368A      4.170091  
     369A      4.197933   370A      4.219254   371A      4.227325  
     372A      4.291501   373A      4.328449   374A      4.345629  
     375A      4.386161   376A      4.397397   377A      4.419544  
     378A      4.430629   379A      4.437858   380A      4.450704  
     381A      4.465357   382A      4.471146   383A      4.501415  
     384A      4.507191   385A      4.513068   386A      4.536853  
     387A      4.541786   388A      4.548119   389A      4.551982  
     390A      4.569235   391A      4.585600   392A      4.610696  
     393A      4.629758   394A      4.650068   395A      4.651564  
     396A      4.667725   397A      4.673718   398A      4.679301  
     399A      4.709054   400A      4.721758   401A      4.738401  
     402A      4.757177   403A      4.776398   404A      4.779006  
     405A      4.801840   406A      4.816286   407A      4.853439  
     408A      4.870520   409A      4.882780   410A      4.905887  
     411A      4.917169   412A      4.924990   413A      4.933886  
     414A      4.939816   415A      4.964632   416A      4.968463  
     417A      4.974969   418A      4.981025   419A      5.009839  
     420A      5.019535   421A      5.034139   422A      5.045811  
     423A      5.082022   424A      5.104301   425A      5.118219  
     426A      5.143309   427A      5.160583   428A      5.166185  
     429A      5.186206   430A      5.226440   431A      5.254234  
     432A      5.273446   433A      5.311269   434A      5.322436  
     435A      5.353446   436A      5.369039   437A      5.400398  
     438A      5.412535   439A      5.427069   440A      5.499611  
     441A      5.514183   442A      5.563187   443A      5.577711  
     444A      5.597103   445A      5.611426   446A      5.632536  
     447A      5.659275   448A      5.678946   449A      5.712385  
     450A      5.715660   451A      5.728966   452A      5.747041  
     453A      5.784559   454A      5.813609   455A      5.841796  
     456A      5.871541   457A      5.898555   458A      5.914715  
     459A      5.946071   460A      6.038147   461A      6.054926  
     462A      6.211529   463A      6.217031   464A      6.255938  
     465A      6.284781   466A      6.287370   467A      6.346257  
     468A      6.377213   469A      6.435205   470A      6.463680  
     471A      6.496582   472A      6.646547   473A      6.703460  
     474A      6.715263   475A      6.751086   476A      6.855454  
     477A      6.861840   478A      6.880464   479A      6.944534  
     480A      6.950214   481A      7.049680   482A      7.148537  
     483A      7.158231   484A      7.190477   485A      7.231721  
     486A      7.249613   487A      7.279897   488A      7.380130  
     489A      7.414062   490A      7.472086   491A      7.590559  
     492A      7.738887   493A      7.753210   494A      7.781867  
     495A      7.789689   496A      7.796854   497A      7.824974  
     498A      7.842200   499A      7.846640   500A      7.885740  
     501A      7.918846   502A      7.962111   503A      7.976548  
     504A      8.049992   505A      8.072768   506A      8.125918  
     507A      8.151337   508A      8.161192   509A      8.173365  
     510A      8.247322   511A      8.270065   512A      8.276426  
     513A      8.311844   514A      8.324065   515A      8.327563  
     516A      8.371621   517A      8.386360   518A      8.395487  
     519A      8.436040   520A      8.489147   521A      8.738400  
     522A      8.788987   523A      8.848859   524A      8.898607  
     525A      8.955487   526A      9.010288   527A      9.032600  
     528A      9.097510   529A      9.169667   530A      9.284897  
     531A      9.743706   532A      9.756275   533A      9.805057  
     534A      9.820378   535A      9.882090   536A      9.914734  
     537A      9.924918   538A      9.932521   539A      9.960315  
     540A      9.978598   541A     10.077879   542A     10.090889  
     543A     10.099053   544A     10.113377   545A     10.136649  
     546A     10.170959   547A     10.284224   548A     10.311471  
     549A     10.379134   550A     10.395360   551A     10.449613  
     552A     10.545682   553A     10.568117   554A     10.614722  
     555A     10.672876   556A     10.772185   557A     10.860881  
     558A     11.078941   559A     11.145215   560A     11.263038  
     561A     11.327471   562A     11.455081   563A     11.775401  
     564A     11.816146   565A     11.866717   566A     11.934237  
     567A     11.965244   568A     12.025335   569A     12.226322  
     570A     12.384883   571A     12.407293   572A     12.591973  
     573A     12.889427   574A     13.378284   575A     13.390406  
     576A     13.404403   577A     13.455587   578A     13.502721  
     579A     13.641609   580A     13.745821   581A     13.778700  
     582A     13.851622   583A     13.864874   584A     14.007893  
     585A     14.046978   586A     14.054341   587A     14.177713  
     588A     14.215273   589A     15.122090   590A     15.301608  
     591A     15.331372   592A     15.456096   593A     66.161686  
     594A     66.833224   595A     67.239051   596A     68.550410  
     597A     69.350640   598A     76.166586  

    Final Occupation by Irrep:
              A 
    DOCC [     5 ]
    NA   [     5 ]
    NB   [     5 ]

  @DF-RHF Final Energy:   -76.04829636353409

   => Energetics <=

    Nuclear Repulsion Energy =              8.5969613781812466
    One-Electron Energy =                -121.9844018154793588
    Two-Electron Energy =                  37.3391440737640252
    Total Energy =                        -76.0482963635340923

Computation Completed


Properties will be evaluated at   0.000000,   0.000000,   0.000000 [a0]

Properties computed using the SCF density matrix


 Multipole Moments:

 ------------------------------------------------------------------------------------
     Multipole            Electronic (a.u.)      Nuclear  (a.u.)        Total (a.u.)
 ------------------------------------------------------------------------------------

 L = 1.  Multiply by 2.5417464519 to convert [e a0] to [Debye]
 Dipole X            :        -33.7401061           33.4286013           -0.3115048
 Dipole Y            :        -35.6649837           35.0821721           -0.5828115
 Dipole Z            :         12.9276905          -12.5414528            0.3862377
 Magnitude           :                                                    0.7654306

 ------------------------------------------------------------------------------------

*** tstop() called on ddmfs1 at Mon Jan 22 16:59:52 2024
Module time:
	user time   =     127.55 seconds =       2.13 minutes
	system time =       6.23 seconds =       0.10 minutes
	total time  =          8 seconds =       0.13 minutes
Total time:
	user time   =     127.55 seconds =       2.13 minutes
	system time =       6.23 seconds =       0.10 minutes
	total time  =          8 seconds =       0.13 minutes

*** tstart() called on ddmfs1
*** at Mon Jan 22 16:59:52 2024


  //>>>>>>>>>>>>>>>>>>>>>>>>>>>>>>>>>>>//
  //               DFMP2               //
  //<<<<<<<<<<<<<<<<<<<<<<<<<<<<<<<<<<<//

   => Loading Basis Set <=

    Name: (AUG-CC-PVTZ AUX)
    Role: RIFIT
    Keyword: DF_BASIS_MP2
    atoms 1                                   entry F          line   322 file /ddmfs1b/softs/psi4conda/share/psi4/basis/aug-cc-pvtz-ri.gbs 
    atoms 2, 5, 8, 11, 14, 17                 entry O          line   264 file /ddmfs1b/softs/psi4conda/share/psi4/basis/aug-cc-pvtz-ri.gbs 
    atoms 3-4, 6-7, 9-10, 12-13, 15-16, 18-19 entry H          line    30 file /ddmfs1b/softs/psi4conda/share/psi4/basis/aug-cc-pvtz-ri.gbs 

	 --------------------------------------------------------
	                          DF-MP2                         
	      2nd-Order Density-Fitted Moller-Plesset Theory     
	              RMP2 Wavefunction,  20 Threads             
	                                                         
	        Rob Parrish, Justin Turney, Andy Simmonett,      
	           Ed Hohenstein, and C. David Sherrill          
	 --------------------------------------------------------

   => Auxiliary Basis Set <=

  Basis Set: (AUG-CC-PVTZ AUX)
    Blend: AUG-CC-PVTZ-RI
    Number of shells: 364
    Number of basis functions: 1294
    Number of Cartesian functions: 1612
    Spherical Harmonics?: true
    Max angular momentum: 4

	 --------------------------------------------------------
	                 NBF =   598, NAUX =  1294
	 --------------------------------------------------------
	   CLASS    FOCC     OCC    AOCC    AVIR     VIR    FVIR
	   PAIRS       0       5       5     593     593       0
	 --------------------------------------------------------

	-----------------------------------------------------------
	 ==================> DF-MP2 Energies <==================== 
	-----------------------------------------------------------
	 Reference Energy          =     -76.0482963635340923 [Eh]
	 Singles Energy            =      -0.0000000000000000 [Eh]
	 Same-Spin Energy          =      -0.0694961983993811 [Eh]
	 Opposite-Spin Energy      =      -0.2196255187042200 [Eh]
	 Correlation Energy        =      -0.2891217171036011 [Eh]
	 Total Energy              =     -76.3374180806376899 [Eh]
	-----------------------------------------------------------
	 ================> DF-SCS-MP2 Energies <================== 
	-----------------------------------------------------------
	 SCS Same-Spin Scale       =       0.3333333333333333 [-]
	 SCS Opposite-Spin Scale   =       1.2000000000000000 [-]
	 SCS Same-Spin Energy      =      -0.0231653994664604 [Eh]
	 SCS Opposite-Spin Energy  =      -0.2635506224450639 [Eh]
	 SCS Correlation Energy    =      -0.2867160219115243 [Eh]
	 SCS Total Energy          =     -76.3350123854456228 [Eh]
	-----------------------------------------------------------


*** tstop() called on ddmfs1 at Mon Jan 22 16:59:57 2024
Module time:
	user time   =      32.54 seconds =       0.54 minutes
	system time =       1.83 seconds =       0.03 minutes
	total time  =          5 seconds =       0.08 minutes
Total time:
	user time   =     160.11 seconds =       2.67 minutes
	system time =       8.06 seconds =       0.13 minutes
	total time  =         13 seconds =       0.22 minutes

    Psi4 stopped on: Monday, 22 January 2024 04:59PM
    Psi4 wall time for execution: 0:00:13.38

*** Psi4 exiting successfully. Buy a developer a beer!
