
    -----------------------------------------------------------------------
          Psi4: An Open-Source Ab Initio Electronic Structure Package
                               Psi4 1.9 release

                         Git: Rev {} zzzzzzz 


    D. G. A. Smith, L. A. Burns, A. C. Simmonett, R. M. Parrish,
    M. C. Schieber, R. Galvelis, P. Kraus, H. Kruse, R. Di Remigio,
    A. Alenaizan, A. M. James, S. Lehtola, J. P. Misiewicz, M. Scheurer,
    R. A. Shaw, J. B. Schriber, Y. Xie, Z. L. Glick, D. A. Sirianni,
    J. S. O'Brien, J. M. Waldrop, A. Kumar, E. G. Hohenstein,
    B. P. Pritchard, B. R. Brooks, H. F. Schaefer III, A. Yu. Sokolov,
    K. Patkowski, A. E. DePrince III, U. Bozkaya, R. A. King,
    F. A. Evangelista, J. M. Turney, T. D. Crawford, C. D. Sherrill,
    J. Chem. Phys. 152(18) 184108 (2020). https://doi.org/10.1063/5.0006002

                            Additional Code Authors
    E. T. Seidl, C. L. Janssen, E. F. Valeev, M. L. Leininger,
    J. F. Gonthier, R. M. Richard, H. R. McAlexander, M. Saitow, X. Wang,
    P. Verma, M. H. Lechner, A. Jiang, S. Behnle, A. G. Heide,
    M. F. Herbst, and D. L. Poole

             Previous Authors, Complete List of Code Contributors,
                       and Citations for Specific Modules
    https://github.com/psi4/psi4/blob/master/codemeta.json
    https://github.com/psi4/psi4/graphs/contributors
    http://psicode.org/psi4manual/master/introduction.html#citing-psifour

    -----------------------------------------------------------------------


    Psi4 started on: Saturday, 06 January 2024 09:48PM

    Process ID: 556674
    Host:       moses-razer
    PSIDATADIR: /home/kchung25/anaconda3/envs/psi4_19/share/psi4
    Memory:     500.0 MiB
    Threads:    6
    
  ==> Input File <==

--------------------------------------------------------------------------
MEMORY 60 GB

molecule dimer {
-1 1
F      0.000000     0.000000     0.000000
--
0 1
O      1.051129     1.096357     2.694346
H      0.619287     1.901551     2.882839
H      0.909597     0.954000     1.767452
O      1.736119     1.777929    -1.101982
H      1.243908     1.941691    -1.896130
H      1.299520     1.022179    -0.669957
O     -0.450907    -2.751484    -0.302061
H     -0.441612    -3.080057     0.625078
H     -0.079139    -1.885185    -0.236471
O     -1.073336    -0.475456    -2.416481
H     -1.819131     0.195421    -2.500612
H     -0.639424    -0.295340    -1.571394
O     -1.530930     2.318994    -0.767106
H     -0.855521     1.628887    -0.576701
H     -1.755147     2.231506    -1.684517
O     -1.347398    -0.607075     2.261043
H     -0.798765    -0.276198     1.560294
H     -0.935135    -1.323906     2.841048

units ang
no_reorient
no_com
symmetry c1
}

set {
basis        aug-cc-pVTZ
scf_type     df
}

energy("mp2", bsse_type="cp")
--------------------------------------------------------------------------

  Memory set to  55.879 GiB by Python driver.

Scratch directory: /scratch/

  //>>>>>>>>>>>>>>>>>>>>>>>>>>>>>>>>>>>>>//
  // ManyBody Setup: N-Body Levels [1, 2]//
  //<<<<<<<<<<<<<<<<<<<<<<<<<<<<<<<<<<<<<//

        Number of 1-body computations:     2
        Number of 2-body computations:     1

    -----------------------------------------------------------------------
          Psi4: An Open-Source Ab Initio Electronic Structure Package
                               Psi4 1.9 release

                         Git: Rev {} zzzzzzz 


    D. G. A. Smith, L. A. Burns, A. C. Simmonett, R. M. Parrish,
    M. C. Schieber, R. Galvelis, P. Kraus, H. Kruse, R. Di Remigio,
    A. Alenaizan, A. M. James, S. Lehtola, J. P. Misiewicz, M. Scheurer,
    R. A. Shaw, J. B. Schriber, Y. Xie, Z. L. Glick, D. A. Sirianni,
    J. S. O'Brien, J. M. Waldrop, A. Kumar, E. G. Hohenstein,
    B. P. Pritchard, B. R. Brooks, H. F. Schaefer III, A. Yu. Sokolov,
    K. Patkowski, A. E. DePrince III, U. Bozkaya, R. A. King,
    F. A. Evangelista, J. M. Turney, T. D. Crawford, C. D. Sherrill,
    J. Chem. Phys. 152(18) 184108 (2020). https://doi.org/10.1063/5.0006002

                            Additional Code Authors
    E. T. Seidl, C. L. Janssen, E. F. Valeev, M. L. Leininger,
    J. F. Gonthier, R. M. Richard, H. R. McAlexander, M. Saitow, X. Wang,
    P. Verma, M. H. Lechner, A. Jiang, S. Behnle, A. G. Heide,
    M. F. Herbst, and D. L. Poole

             Previous Authors, Complete List of Code Contributors,
                       and Citations for Specific Modules
    https://github.com/psi4/psi4/blob/master/codemeta.json
    https://github.com/psi4/psi4/graphs/contributors
    http://psicode.org/psi4manual/master/introduction.html#citing-psifour

    -----------------------------------------------------------------------


    Psi4 started on: Saturday, 06 January 2024 09:48PM

    Process ID: 556674
    Host:       moses-razer
    PSIDATADIR: /home/kchung25/anaconda3/envs/psi4_19/share/psi4
    Memory:     55.9 GiB
    Threads:    6
    
  ==> Input QCSchema <==

--------------------------------------------------------------------------
{'driver': 'energy',
 'extras': {'psiapi': True, 'wfn_qcvars_only': True},
 'id': None,
 'keywords': {'SCF_TYPE': 'DF', 'function_kwargs': {}},
 'model': {'basis': 'aug-cc-pvtz', 'method': 'mp2'},
 'molecule': {'atom_labels': ['', '', '', '', '', '', '', '', '', '', '', '', '', '', '', '', '', '', ''],
              'atomic_numbers': [9, 8, 1, 1, 8, 1, 1, 8, 1, 1, 8, 1, 1, 8, 1, 1, 8, 1, 1],
              'extras': {},
              'fix_com': True,
              'fix_orientation': True,
              'fix_symmetry': 'c1',
              'fragment_charges': [0.0, 0.0],
              'fragment_multiplicities': [1, 1],
              'fragments': [[0], [1, 2, 3, 4, 5, 6, 7, 8, 9, 10, 11, 12, 13, 14, 15, 16, 17, 18]],
              'geometry': [0.0, 0.0, 0.0, 1.9863459325263615, 2.071814465728568, 5.091576027222797, 1.1702828230564022,
                           3.5934106035904585, 5.4477761737887205, 1.718889214538064, 1.802798723686768,
                           3.3400002198926892, 3.280789431203719, 3.359798880509111, -2.0824441751842686,
                           2.350645445265996, 3.669264210266336, -3.583166398264352, 2.4557368945549567,
                           1.9316383611943573, -1.2660352458333501, -0.8520907380518129, -5.199551198579207,
                           -0.5708125631819171, -0.8345257337156824, -5.820464180799262, 1.1812262270489284,
                           -0.14955103584260707, -3.562483345821216, -0.44686542661313805, -2.0283110805944036,
                           -0.8984816247056772, -4.566487277372458, -3.4376593763302243, 0.36929216916309426,
                           -4.72547182603335, -1.2083362380447462, -0.558111713892715, -2.9695042951876784,
                           -2.8930384172471526, 4.382263546579951, -1.4496202491954526, -1.6167003845778065,
                           3.0781503193186253, -1.089806946277655, -3.3167471399189306, 4.2169351873158964,
                           -3.1832757836778445, -2.546213201989627, -1.147205487612311, 4.272752027883544,
                           -1.509447088601322, -0.5219385763992013, 2.9485283351950966, -1.7671490403300063,
                           -2.5018197558503714, 5.3688026292797115],
              'mass_numbers': [19, 16, 1, 1, 16, 1, 1, 16, 1, 1, 16, 1, 1, 16, 1, 1, 16, 1, 1],
              'masses': [18.99840316273, 15.99491461957, 1.00782503223, 1.00782503223, 15.99491461957, 1.00782503223,
                         1.00782503223, 15.99491461957, 1.00782503223, 1.00782503223, 15.99491461957, 1.00782503223,
                         1.00782503223, 15.99491461957, 1.00782503223, 1.00782503223, 15.99491461957, 1.00782503223,
                         1.00782503223],
              'molecular_charge': 0.0,
              'molecular_multiplicity': 1,
              'name': 'dimer',
              'provenance': {'creator': 'QCElemental',
                             'routine': 'qcelemental.molparse.from_string',
                             'version': '0.27.1'},
              'real': [False, True, True, True, True, True, True, True, True, True, True, True, True, True, True, True,
                       True, True, True],
              'schema_name': 'qcschema_molecule',
              'schema_version': 2,
              'symbols': ['F', 'O', 'H', 'H', 'O', 'H', 'H', 'O', 'H', 'H', 'O', 'H', 'H', 'O', 'H', 'H', 'O', 'H',
                          'H'],
              'validated': True},
 'protocols': {'stdout': True},
 'provenance': {'creator': 'QCElemental', 'routine': 'qcelemental.models.results', 'version': '0.27.1'},
 'schema_name': 'qcschema_input',
 'schema_version': 1}
--------------------------------------------------------------------------

Scratch directory: /scratch/
   => Libint2 <=

    Primary   basis highest AM E, G, H:  5, 4, 3
    Auxiliary basis highest AM E, G, H:  6, 5, 4
    Onebody   basis highest AM E, G, H:  6, 5, 4
    Solid Harmonics ordering:            gaussian

*** tstart() called on moses-razer
*** at Sat Jan  6 21:48:30 2024

   => Loading Basis Set <=

    Name: AUG-CC-PVTZ
    Role: ORBITAL
    Keyword: BASIS
    atoms 1                                   entry F          line   377 file /home/kchung25/anaconda3/envs/p415env/share/psi4/basis/aug-cc-pvtz.gbs 
    atoms 2, 5, 8, 11, 14, 17                 entry O          line   331 file /home/kchung25/anaconda3/envs/p415env/share/psi4/basis/aug-cc-pvtz.gbs 
    atoms 3-4, 6-7, 9-10, 12-13, 15-16, 18-19 entry H          line    40 file /home/kchung25/anaconda3/envs/p415env/share/psi4/basis/aug-cc-pvtz.gbs 


         ---------------------------------------------------------
                                   SCF
               by Justin Turney, Rob Parrish, Andy Simmonett
                          and Daniel G. A. Smith
                              RHF Reference
                        6 Threads,  57220 MiB Core
         ---------------------------------------------------------

  ==> Geometry <==

    Molecular point group: c1
    Full point group: C1

    Geometry (in Bohr), charge = 0, multiplicity = 1:

       Center              X                  Y                   Z               Mass       
    ------------   -----------------  -----------------  -----------------  -----------------
      Gh(F)           0.000000000000     0.000000000000     0.000000000000    18.998403162730
         O            1.986345932526     2.071814465729     5.091576027223    15.994914619570
         H            1.170282823056     3.593410603590     5.447776173789     1.007825032230
         H            1.718889214538     1.802798723687     3.340000219893     1.007825032230
         O            3.280789431204     3.359798880509    -2.082444175184    15.994914619570
         H            2.350645445266     3.669264210266    -3.583166398264     1.007825032230
         H            2.455736894555     1.931638361194    -1.266035245833     1.007825032230
         O           -0.852090738052    -5.199551198579    -0.570812563182    15.994914619570
         H           -0.834525733716    -5.820464180799     1.181226227049     1.007825032230
         H           -0.149551035843    -3.562483345821    -0.446865426613     1.007825032230
         O           -2.028311080594    -0.898481624706    -4.566487277372    15.994914619570
         H           -3.437659376330     0.369292169163    -4.725471826033     1.007825032230
         H           -1.208336238045    -0.558111713893    -2.969504295188     1.007825032230
         O           -2.893038417247     4.382263546580    -1.449620249195    15.994914619570
         H           -1.616700384578     3.078150319319    -1.089806946278     1.007825032230
         H           -3.316747139919     4.216935187316    -3.183275783678     1.007825032230
         O           -2.546213201990    -1.147205487612     4.272752027884    15.994914619570
         H           -1.509447088601    -0.521938576399     2.948528335195     1.007825032230
         H           -1.767149040330    -2.501819755850     5.368802629280     1.007825032230

  Running in c1 symmetry.

  Rotational constants: A =      0.03506  B =      0.03306  C =      0.02399 [cm^-1]
  Rotational constants: A =   1051.08473  B =    991.09378  C =    719.19930 [MHz]
  Nuclear repulsion =  254.886732694705870

  Charge       = 0
  Multiplicity = 1
  Electrons    = 60
  Nalpha       = 30
  Nbeta        = 30

  ==> Algorithm <==

  SCF Algorithm Type is DF.
  DIIS enabled.
  MOM disabled.
  Fractional occupation disabled.
  Guess Type is SAD.
  Energy threshold   = 1.00e-08
  Density threshold  = 1.00e-08
  Integral threshold = 1.00e-12

  ==> Primary Basis <==

  Basis Set: AUG-CC-PVTZ
    Blend: AUG-CC-PVTZ
    Number of shells: 206
    Number of basis functions: 598
    Number of Cartesian functions: 685
    Spherical Harmonics?: true
    Max angular momentum: 3

   => Loading Basis Set <=

    Name: (AUG-CC-PVTZ AUX)
    Role: JKFIT
    Keyword: DF_BASIS_SCF
    atoms 1                                   entry F          line   348 file /home/kchung25/anaconda3/envs/p415env/share/psi4/basis/aug-cc-pvtz-jkfit.gbs 
    atoms 2, 5, 8, 11, 14, 17                 entry O          line   286 file /home/kchung25/anaconda3/envs/p415env/share/psi4/basis/aug-cc-pvtz-jkfit.gbs 
    atoms 3-4, 6-7, 9-10, 12-13, 15-16, 18-19 entry H          line    70 file /home/kchung25/anaconda3/envs/p415env/share/psi4/basis/aug-cc-pvtz-jkfit.gbs 

  ==> Integral Setup <==

  DFHelper Memory: AOs need 3.152 GiB; user supplied 41.910 GiB. 
  Using in-core AOs.

  ==> MemDFJK: Density-Fitted J/K Matrices <==

    J tasked:                   Yes
    K tasked:                   Yes
    wK tasked:                   No
    OpenMP threads:               6
    Memory [MiB]:             42915
    Algorithm:                 Core
    Schwarz Cutoff:           1E-12
    Mask sparsity (%):      10.5133
    Fitting Condition:        1E-10

   => Auxiliary Basis Set <=

  Basis Set: (AUG-CC-PVTZ AUX)
    Blend: AUG-CC-PVTZ-JKFIT
    Number of shells: 378
    Number of basis functions: 1280
    Number of Cartesian functions: 1577
    Spherical Harmonics?: true
    Max angular momentum: 4

  Minimum eigenvalue in the overlap matrix is 3.9181838210E-05.
  Reciprocal condition number of the overlap matrix is 2.4496302200E-06.
    Using symmetric orthogonalization.

  ==> Pre-Iterations <==

  SCF Guess: Superposition of Atomic Densities via on-the-fly atomic UHF (no occupation information).

   -------------------------
    Irrep   Nso     Nmo    
   -------------------------
     A        598     598 
   -------------------------
    Total     598     598
   -------------------------

  ==> Iterations <==

                           Total Energy        Delta E     RMS |[F,P]|

   @DF-RHF iter SAD:  -453.11251689250236   -4.53113e+02   0.00000e+00 
   @DF-RHF iter   1:  -455.80961544895206   -2.69710e+00   1.90042e-03 ADIIS/DIIS
   @DF-RHF iter   2:  -456.12528427215813   -3.15669e-01   1.29434e-03 ADIIS/DIIS
   @DF-RHF iter   3:  -456.31291872552822   -1.87634e-01   9.58724e-05 DIIS
   @DF-RHF iter   4:  -456.31574834721476   -2.82962e-03   2.50186e-05 DIIS
   @DF-RHF iter   5:  -456.31592594430685   -1.77597e-04   8.88288e-06 DIIS
   @DF-RHF iter   6:  -456.31594663185695   -2.06876e-05   3.28083e-06 DIIS
   @DF-RHF iter   7:  -456.31594966872291   -3.03687e-06   6.78470e-07 DIIS
   @DF-RHF iter   8:  -456.31594991277115   -2.44048e-07   1.56032e-07 DIIS
   @DF-RHF iter   9:  -456.31594992257436   -9.80322e-09   6.82035e-08 DIIS
   @DF-RHF iter  10:  -456.31594992378052   -1.20616e-09   1.88932e-08 DIIS
   @DF-RHF iter  11:  -456.31594992393786   -1.57343e-10   5.98671e-09 DIIS
  Energy and wave function converged.


  ==> Post-Iterations <==

    Orbital Energies [Eh]
    ---------------------

    Doubly Occupied:                                                      

       1A    -20.603713     2A    -20.603450     3A    -20.602441  
       4A    -20.583427     5A    -20.581530     6A    -20.580468  
       7A     -1.388029     8A     -1.383473     9A     -1.380256  
      10A     -1.371057    11A     -1.365289    12A     -1.352779  
      13A     -0.760455    14A     -0.752917    15A     -0.749653  
      16A     -0.742425    17A     -0.738860    18A     -0.722500  
      19A     -0.630218    20A     -0.612155    21A     -0.604331  
      22A     -0.600593    23A     -0.594974    24A     -0.575579  
      25A     -0.549969    26A     -0.541730    27A     -0.538681  
      28A     -0.536511    29A     -0.522935    30A     -0.508202  

    Virtual:                                                              

      31A      0.005282    32A      0.025058    33A      0.037562  
      34A      0.041027    35A      0.047296    36A      0.058715  
      37A      0.060410    38A      0.064193    39A      0.079421  
      40A      0.083650    41A      0.090960    42A      0.093631  
      43A      0.101961    44A      0.125244    45A      0.133333  
      46A      0.137929    47A      0.140481    48A      0.153312  
      49A      0.161323    50A      0.170514    51A      0.173105  
      52A      0.179972    53A      0.183838    54A      0.188635  
      55A      0.191371    56A      0.193587    57A      0.204346  
      58A      0.206729    59A      0.209342    60A      0.214796  
      61A      0.215827    62A      0.223906    63A      0.232534  
      64A      0.241742    65A      0.243787    66A      0.254543  
      67A      0.257030    68A      0.263548    69A      0.265163  
      70A      0.272006    71A      0.272496    72A      0.280707  
      73A      0.292218    74A      0.300805    75A      0.309091  
      76A      0.316777    77A      0.322927    78A      0.332299  
      79A      0.333479    80A      0.339376    81A      0.351793  
      82A      0.355373    83A      0.359703    84A      0.366482  
      85A      0.380127    86A      0.380823    87A      0.394182  
      88A      0.401820    89A      0.408194    90A      0.410293  
      91A      0.416649    92A      0.421856    93A      0.427116  
      94A      0.438107    95A      0.444576    96A      0.446844  
      97A      0.457974    98A      0.460062    99A      0.466441  
     100A      0.472614   101A      0.474663   102A      0.486128  
     103A      0.488053   104A      0.512468   105A      0.517559  
     106A      0.521492   107A      0.533634   108A      0.538895  
     109A      0.543096   110A      0.555884   111A      0.560600  
     112A      0.570106   113A      0.579335   114A      0.588623  
     115A      0.607867   116A      0.614295   117A      0.622395  
     118A      0.629167   119A      0.650137   120A      0.662114  
     121A      0.665891   122A      0.672262   123A      0.681854  
     124A      0.685523   125A      0.695597   126A      0.702854  
     127A      0.713599   128A      0.721998   129A      0.727539  
     130A      0.734848   131A      0.745545   132A      0.750444  
     133A      0.760564   134A      0.764799   135A      0.770516  
     136A      0.776617   137A      0.781114   138A      0.784873  
     139A      0.794668   140A      0.800517   141A      0.808711  
     142A      0.812483   143A      0.822913   144A      0.827794  
     145A      0.838201   146A      0.842404   147A      0.862059  
     148A      0.868094   149A      0.875255   150A      0.881613  
     151A      0.889219   152A      0.894564   153A      0.901140  
     154A      0.903890   155A      0.913219   156A      0.917128  
     157A      0.925292   158A      0.927644   159A      0.937305  
     160A      0.944760   161A      0.953264   162A      0.963018  
     163A      0.968167   164A      0.971683   165A      0.976175  
     166A      0.981495   167A      0.988175   168A      0.998404  
     169A      1.008598   170A      1.013473   171A      1.017606  
     172A      1.023959   173A      1.035551   174A      1.046701  
     175A      1.047881   176A      1.053765   177A      1.055311  
     178A      1.062158   179A      1.064211   180A      1.068732  
     181A      1.082099   182A      1.086036   183A      1.092182  
     184A      1.097632   185A      1.114904   186A      1.121681  
     187A      1.130559   188A      1.143487   189A      1.147946  
     190A      1.152184   191A      1.155104   192A      1.158452  
     193A      1.169071   194A      1.178398   195A      1.189821  
     196A      1.197755   197A      1.205130   198A      1.216277  
     199A      1.229112   200A      1.243981   201A      1.249806  
     202A      1.253270   203A      1.256672   204A      1.260190  
     205A      1.273810   206A      1.285659   207A      1.291938  
     208A      1.296659   209A      1.303601   210A      1.313565  
     211A      1.323463   212A      1.334028   213A      1.342437  
     214A      1.354893   215A      1.360949   216A      1.365176  
     217A      1.374164   218A      1.381869   219A      1.391422  
     220A      1.401770   221A      1.413124   222A      1.433719  
     223A      1.441363   224A      1.455360   225A      1.465299  
     226A      1.473857   227A      1.477474   228A      1.497443  
     229A      1.499985   230A      1.512864   231A      1.525911  
     232A      1.534041   233A      1.544549   234A      1.560598  
     235A      1.578385   236A      1.587312   237A      1.592816  
     238A      1.596610   239A      1.612609   240A      1.626064  
     241A      1.630017   242A      1.638247   243A      1.643872  
     244A      1.650376   245A      1.660983   246A      1.673395  
     247A      1.677996   248A      1.689561   249A      1.706375  
     250A      1.708641   251A      1.726475   252A      1.744313  
     253A      1.760546   254A      1.776825   255A      1.796948  
     256A      1.801193   257A      1.803697   258A      1.817997  
     259A      1.834798   260A      1.850266   261A      1.860767  
     262A      1.865377   263A      1.878357   264A      1.894580  
     265A      1.908536   266A      1.917580   267A      1.942563  
     268A      1.966937   269A      1.982173   270A      1.987264  
     271A      2.001071   272A      2.004555   273A      2.016831  
     274A      2.026952   275A      2.045826   276A      2.054086  
     277A      2.069254   278A      2.098934   279A      2.114781  
     280A      2.126341   281A      2.196039   282A      2.210802  
     283A      2.261563   284A      2.297104   285A      2.329044  
     286A      2.347551   287A      2.363388   288A      2.364228  
     289A      2.386373   290A      2.395176   291A      2.403140  
     292A      2.410003   293A      2.427413   294A      2.432124  
     295A      2.451404   296A      2.460548   297A      2.465672  
     298A      2.473796   299A      2.479902   300A      2.488011  
     301A      2.502351   302A      2.506719   303A      2.515498  
     304A      2.516406   305A      2.535386   306A      2.538426  
     307A      2.547889   308A      2.556913   309A      2.561169  
     310A      2.564585   311A      2.572922   312A      2.579383  
     313A      2.600939   314A      2.611307   315A      2.623152  
     316A      2.638832   317A      2.641879   318A      2.657832  
     319A      2.659937   320A      2.680696   321A      2.685165  
     322A      2.698205   323A      2.709675   324A      2.714750  
     325A      2.726798   326A      2.740212   327A      2.743043  
     328A      2.746328   329A      2.755002   330A      2.769588  
     331A      2.778782   332A      2.789811   333A      2.802224  
     334A      2.807752   335A      2.825543   336A      2.833225  
     337A      2.849348   338A      2.855736   339A      2.873838  
     340A      2.884694   341A      2.897816   342A      2.911865  
     343A      2.923639   344A      2.929061   345A      2.946248  
     346A      2.958283   347A      2.973233   348A      2.980639  
     349A      2.999017   350A      3.003395   351A      3.012641  
     352A      3.043442   353A      3.057656   354A      3.077550  
     355A      3.084683   356A      3.107116   357A      3.122856  
     358A      3.142387   359A      3.156210   360A      3.178526  
     361A      3.193656   362A      3.415654   363A      3.437877  
     364A      3.554750   365A      3.586732   366A      3.637366  
     367A      3.650814   368A      3.684758   369A      3.739164  
     370A      3.750400   371A      3.771076   372A      3.815351  
     373A      3.838256   374A      3.848873   375A      3.881586  
     376A      3.915304   377A      3.956986   378A      3.983015  
     379A      4.003885   380A      4.028588   381A      4.046232  
     382A      4.055293   383A      4.073289   384A      4.107435  
     385A      4.114325   386A      4.118070   387A      4.140050  
     388A      4.152301   389A      4.156387   390A      4.168830  
     391A      4.171811   392A      4.204674   393A      4.219701  
     394A      4.227819   395A      4.241162   396A      4.255013  
     397A      4.264137   398A      4.277135   399A      4.278878  
     400A      4.295555   401A      4.298312   402A      4.318376  
     403A      4.319698   404A      4.327726   405A      4.334980  
     406A      4.351031   407A      4.358208   408A      4.363393  
     409A      4.371080   410A      4.383374   411A      4.391839  
     412A      4.404946   413A      4.419424   414A      4.426966  
     415A      4.433574   416A      4.444338   417A      4.459321  
     418A      4.464235   419A      4.472621   420A      4.482100  
     421A      4.486745   422A      4.497275   423A      4.502034  
     424A      4.512898   425A      4.531842   426A      4.550487  
     427A      4.556818   428A      4.561335   429A      4.565746  
     430A      4.593811   431A      4.598828   432A      4.615432  
     433A      4.619178   434A      4.639034   435A      4.652490  
     436A      4.657090   437A      4.680744   438A      4.687492  
     439A      4.711484   440A      4.732922   441A      4.742066  
     442A      4.752814   443A      4.762245   444A      4.800407  
     445A      4.814143   446A      4.843984   447A      4.880100  
     448A      4.889943   449A      4.897187   450A      4.927593  
     451A      4.980686   452A      5.011225   453A      5.069326  
     454A      5.073435   455A      5.087186   456A      5.145857  
     457A      5.155458   458A      5.176469   459A      5.188882  
     460A      5.204555   461A      5.221502   462A      5.222536  
     463A      5.238063   464A      5.262814   465A      5.273138  
     466A      5.286977   467A      5.294288   468A      5.317183  
     469A      5.353404   470A      5.367107   471A      5.384956  
     472A      5.420496   473A      5.442622   474A      5.451618  
     475A      5.489757   476A      5.496562   477A      5.527555  
     478A      5.540568   479A      5.565238   480A      5.570863  
     481A      5.611936   482A      5.641426   483A      5.648125  
     484A      5.674125   485A      5.716937   486A      5.782858  
     487A      5.812547   488A      5.828205   489A      5.884839  
     490A      5.924343   491A      5.936567   492A      6.159267  
     493A      6.245070   494A      6.261688   495A      6.283864  
     496A      6.309669   497A      6.325729   498A      6.560112  
     499A      6.563689   500A      6.568856   501A      6.581057  
     502A      6.596539   503A      6.648953   504A      6.787342  
     505A      6.793779   506A      6.822677   507A      6.839163  
     508A      6.871586   509A      6.883616   510A      6.896805  
     511A      6.926424   512A      6.944419   513A      6.973610  
     514A      6.997200   515A      7.008969   516A      7.150660  
     517A      7.164655   518A      7.192582   519A      7.202243  
     520A      7.222759   521A      7.235108   522A      7.274183  
     523A      7.283574   524A      7.314317   525A      7.317260  
     526A      7.330006   527A      7.336422   528A      7.340603  
     529A      7.341564   530A      7.356280   531A      7.360664  
     532A      7.371815   533A      7.376181   534A      7.389154  
     535A      7.401688   536A      7.402125   537A      7.412414  
     538A      7.423973   539A      7.433720   540A      7.439972  
     541A      7.449022   542A      7.457073   543A      7.470044  
     544A      7.475870   545A      7.507058   546A      7.525537  
     547A      7.535378   548A      7.561917   549A      7.614914  
     550A      7.632297   551A      7.639419   552A      7.736850  
     553A      7.788882   554A      7.807287   555A      7.832610  
     556A      7.865562   557A      7.879208   558A      7.936447  
     559A      7.946125   560A      7.968658   561A      7.971386  
     562A      7.995585   563A      8.017992   564A      8.041791  
     565A      8.048313   566A      8.057315   567A      8.080390  
     568A      8.093353   569A      8.133394   570A      8.685875  
     571A      8.729310   572A      8.803745   573A      8.835017  
     574A      8.864799   575A      8.949406   576A     10.349950  
     577A     10.427246   578A     10.454717   579A     10.548457  
     580A     10.603981   581A     10.739231   582A     10.932158  
     583A     12.154440   584A     13.200579   585A     13.257336  
     586A     13.277651   587A     13.424976   588A     13.519877  
     589A     14.985736   590A     15.303317   591A     15.331596  
     592A     16.777631   593A     16.876788   594A     17.021630  
     595A     17.175975   596A     17.221247   597A     17.480229  
     598A     75.702596  

    Final Occupation by Irrep:
              A 
    DOCC [    30 ]
    NA   [    30 ]
    NB   [    30 ]

  @DF-RHF Final Energy:  -456.31594992393786

   => Energetics <=

    Nuclear Repulsion Energy =            254.8867326947058700
    One-Electron Energy =               -1136.2481621840913704
    Two-Electron Energy =                 425.0454795654476357
    Total Energy =                       -456.3159499239378647

Computation Completed


Properties will be evaluated at   0.000000,   0.000000,   0.000000 [a0]

Properties computed using the SCF density matrix


 Multipole Moments:

 ------------------------------------------------------------------------------------
     Multipole            Electronic (a.u.)      Nuclear  (a.u.)        Total (a.u.)
 ------------------------------------------------------------------------------------

 L = 1.  Multiply by 2.5417464519 to convert [e a0] to [Debye]
 Dipole X            :         30.4714425          -30.5647063           -0.0932638
 Dipole Y            :        -25.9952386           26.2457807            0.2505420
 Dipole Z            :         -6.7109907            6.5819180           -0.1290727
 Magnitude           :                                                    0.2968656

 ------------------------------------------------------------------------------------

*** tstop() called on moses-razer at Sat Jan  6 21:48:45 2024
Module time:
	user time   =      78.09 seconds =       1.30 minutes
	system time =       2.77 seconds =       0.05 minutes
	total time  =         15 seconds =       0.25 minutes
Total time:
	user time   =      78.09 seconds =       1.30 minutes
	system time =       2.77 seconds =       0.05 minutes
	total time  =         15 seconds =       0.25 minutes

*** tstart() called on moses-razer
*** at Sat Jan  6 21:48:45 2024


  //>>>>>>>>>>>>>>>>>>>>>>>>>>>>>>>>>>>//
  //               DFMP2               //
  //<<<<<<<<<<<<<<<<<<<<<<<<<<<<<<<<<<<//

   => Loading Basis Set <=

    Name: (AUG-CC-PVTZ AUX)
    Role: RIFIT
    Keyword: DF_BASIS_MP2
    atoms 1                                   entry F          line   322 file /home/kchung25/anaconda3/envs/p415env/share/psi4/basis/aug-cc-pvtz-ri.gbs 
    atoms 2, 5, 8, 11, 14, 17                 entry O          line   264 file /home/kchung25/anaconda3/envs/p415env/share/psi4/basis/aug-cc-pvtz-ri.gbs 
    atoms 3-4, 6-7, 9-10, 12-13, 15-16, 18-19 entry H          line    30 file /home/kchung25/anaconda3/envs/p415env/share/psi4/basis/aug-cc-pvtz-ri.gbs 

	 --------------------------------------------------------
	                          DF-MP2                         
	      2nd-Order Density-Fitted Moller-Plesset Theory     
	              RMP2 Wavefunction,   6 Threads             
	                                                         
	        Rob Parrish, Justin Turney, Andy Simmonett,      
	           Ed Hohenstein, and C. David Sherrill          
	 --------------------------------------------------------

   => Auxiliary Basis Set <=

  Basis Set: (AUG-CC-PVTZ AUX)
    Blend: AUG-CC-PVTZ-RI
    Number of shells: 364
    Number of basis functions: 1294
    Number of Cartesian functions: 1612
    Spherical Harmonics?: true
    Max angular momentum: 4

	 --------------------------------------------------------
	                 NBF =   598, NAUX =  1294
	 --------------------------------------------------------
	   CLASS    FOCC     OCC    AOCC    AVIR     VIR    FVIR
	   PAIRS       0      30      30     568     568       0
	 --------------------------------------------------------

	-----------------------------------------------------------
	 ==================> DF-MP2 Energies <==================== 
	-----------------------------------------------------------
	 Reference Energy          =    -456.3159499239378647 [Eh]
	 Singles Energy            =      -0.0000000000000000 [Eh]
	 Same-Spin Energy          =      -0.4158428811689626 [Eh]
	 Opposite-Spin Energy      =      -1.3055731796523726 [Eh]
	 Correlation Energy        =      -1.7214160608213351 [Eh]
	 Total Energy              =    -458.0373659847592194 [Eh]
	-----------------------------------------------------------
	 ================> DF-SCS-MP2 Energies <================== 
	-----------------------------------------------------------
	 SCS Same-Spin Scale       =       0.3333333333333333 [-]
	 SCS Opposite-Spin Scale   =       1.2000000000000000 [-]
	 SCS Same-Spin Energy      =      -0.1386142937229875 [Eh]
	 SCS Opposite-Spin Energy  =      -1.5666878155828472 [Eh]
	 SCS Correlation Energy    =      -1.7053021093058347 [Eh]
	 SCS Total Energy          =    -458.0212520332436839 [Eh]
	-----------------------------------------------------------


*** tstop() called on moses-razer at Sat Jan  6 21:48:51 2024
Module time:
	user time   =      31.50 seconds =       0.53 minutes
	system time =       1.59 seconds =       0.03 minutes
	total time  =          6 seconds =       0.10 minutes
Total time:
	user time   =     109.59 seconds =       1.83 minutes
	system time =       4.36 seconds =       0.07 minutes
	total time  =         21 seconds =       0.35 minutes

    Psi4 stopped on: Saturday, 06 January 2024 09:48PM
    Psi4 wall time for execution: 0:00:21.12


    -----------------------------------------------------------------------
          Psi4: An Open-Source Ab Initio Electronic Structure Package
                               Psi4 1.9 release

                         Git: Rev {} zzzzzzz 


    D. G. A. Smith, L. A. Burns, A. C. Simmonett, R. M. Parrish,
    M. C. Schieber, R. Galvelis, P. Kraus, H. Kruse, R. Di Remigio,
    A. Alenaizan, A. M. James, S. Lehtola, J. P. Misiewicz, M. Scheurer,
    R. A. Shaw, J. B. Schriber, Y. Xie, Z. L. Glick, D. A. Sirianni,
    J. S. O'Brien, J. M. Waldrop, A. Kumar, E. G. Hohenstein,
    B. P. Pritchard, B. R. Brooks, H. F. Schaefer III, A. Yu. Sokolov,
    K. Patkowski, A. E. DePrince III, U. Bozkaya, R. A. King,
    F. A. Evangelista, J. M. Turney, T. D. Crawford, C. D. Sherrill,
    J. Chem. Phys. 152(18) 184108 (2020). https://doi.org/10.1063/5.0006002

                            Additional Code Authors
    E. T. Seidl, C. L. Janssen, E. F. Valeev, M. L. Leininger,
    J. F. Gonthier, R. M. Richard, H. R. McAlexander, M. Saitow, X. Wang,
    P. Verma, M. H. Lechner, A. Jiang, S. Behnle, A. G. Heide,
    M. F. Herbst, and D. L. Poole

             Previous Authors, Complete List of Code Contributors,
                       and Citations for Specific Modules
    https://github.com/psi4/psi4/blob/master/codemeta.json
    https://github.com/psi4/psi4/graphs/contributors
    http://psicode.org/psi4manual/master/introduction.html#citing-psifour

    -----------------------------------------------------------------------


    Psi4 started on: Saturday, 06 January 2024 09:48PM

    Process ID: 556674
    Host:       moses-razer
    PSIDATADIR: /home/kchung25/anaconda3/envs/psi4_19/share/psi4
    Memory:     55.9 GiB
    Threads:    6
    
  ==> Input QCSchema <==

--------------------------------------------------------------------------
{'driver': 'energy',
 'extras': {'psiapi': True, 'wfn_qcvars_only': True},
 'id': None,
 'keywords': {'SCF_TYPE': 'DF', 'function_kwargs': {}},
 'model': {'basis': 'aug-cc-pvtz', 'method': 'mp2'},
 'molecule': {'atom_labels': ['', '', '', '', '', '', '', '', '', '', '', '', '', '', '', '', '', '', ''],
              'atomic_numbers': [9, 8, 1, 1, 8, 1, 1, 8, 1, 1, 8, 1, 1, 8, 1, 1, 8, 1, 1],
              'extras': {},
              'fix_com': True,
              'fix_orientation': True,
              'fix_symmetry': 'c1',
              'fragment_charges': [-1.0, 0.0],
              'fragment_multiplicities': [1, 1],
              'fragments': [[0], [1, 2, 3, 4, 5, 6, 7, 8, 9, 10, 11, 12, 13, 14, 15, 16, 17, 18]],
              'geometry': [0.0, 0.0, 0.0, 1.9863459325263615, 2.071814465728568, 5.091576027222797, 1.1702828230564022,
                           3.5934106035904585, 5.4477761737887205, 1.718889214538064, 1.802798723686768,
                           3.3400002198926892, 3.280789431203719, 3.359798880509111, -2.0824441751842686,
                           2.350645445265996, 3.669264210266336, -3.583166398264352, 2.4557368945549567,
                           1.9316383611943573, -1.2660352458333501, -0.8520907380518129, -5.199551198579207,
                           -0.5708125631819171, -0.8345257337156824, -5.820464180799262, 1.1812262270489284,
                           -0.14955103584260707, -3.562483345821216, -0.44686542661313805, -2.0283110805944036,
                           -0.8984816247056772, -4.566487277372458, -3.4376593763302243, 0.36929216916309426,
                           -4.72547182603335, -1.2083362380447462, -0.558111713892715, -2.9695042951876784,
                           -2.8930384172471526, 4.382263546579951, -1.4496202491954526, -1.6167003845778065,
                           3.0781503193186253, -1.089806946277655, -3.3167471399189306, 4.2169351873158964,
                           -3.1832757836778445, -2.546213201989627, -1.147205487612311, 4.272752027883544,
                           -1.509447088601322, -0.5219385763992013, 2.9485283351950966, -1.7671490403300063,
                           -2.5018197558503714, 5.3688026292797115],
              'mass_numbers': [19, 16, 1, 1, 16, 1, 1, 16, 1, 1, 16, 1, 1, 16, 1, 1, 16, 1, 1],
              'masses': [18.99840316273, 15.99491461957, 1.00782503223, 1.00782503223, 15.99491461957, 1.00782503223,
                         1.00782503223, 15.99491461957, 1.00782503223, 1.00782503223, 15.99491461957, 1.00782503223,
                         1.00782503223, 15.99491461957, 1.00782503223, 1.00782503223, 15.99491461957, 1.00782503223,
                         1.00782503223],
              'molecular_charge': -1.0,
              'molecular_multiplicity': 1,
              'name': 'dimer',
              'provenance': {'creator': 'QCElemental',
                             'routine': 'qcelemental.molparse.from_string',
                             'version': '0.27.1'},
              'real': [True, False, False, False, False, False, False, False, False, False, False, False, False, False,
                       False, False, False, False, False],
              'schema_name': 'qcschema_molecule',
              'schema_version': 2,
              'symbols': ['F', 'O', 'H', 'H', 'O', 'H', 'H', 'O', 'H', 'H', 'O', 'H', 'H', 'O', 'H', 'H', 'O', 'H',
                          'H'],
              'validated': True},
 'protocols': {'stdout': True},
 'provenance': {'creator': 'QCElemental', 'routine': 'qcelemental.models.results', 'version': '0.27.1'},
 'schema_name': 'qcschema_input',
 'schema_version': 1}
--------------------------------------------------------------------------

Scratch directory: /scratch/
   => Libint2 <=

    Primary   basis highest AM E, G, H:  5, 4, 3
    Auxiliary basis highest AM E, G, H:  6, 5, 4
    Onebody   basis highest AM E, G, H:  6, 5, 4
    Solid Harmonics ordering:            gaussian

*** tstart() called on moses-razer
*** at Sat Jan  6 21:48:51 2024

   => Loading Basis Set <=

    Name: AUG-CC-PVTZ
    Role: ORBITAL
    Keyword: BASIS
    atoms 1                                   entry F          line   377 file /home/kchung25/anaconda3/envs/p415env/share/psi4/basis/aug-cc-pvtz.gbs 
    atoms 2, 5, 8, 11, 14, 17                 entry O          line   331 file /home/kchung25/anaconda3/envs/p415env/share/psi4/basis/aug-cc-pvtz.gbs 
    atoms 3-4, 6-7, 9-10, 12-13, 15-16, 18-19 entry H          line    40 file /home/kchung25/anaconda3/envs/p415env/share/psi4/basis/aug-cc-pvtz.gbs 


         ---------------------------------------------------------
                                   SCF
               by Justin Turney, Rob Parrish, Andy Simmonett
                          and Daniel G. A. Smith
                              RHF Reference
                        6 Threads,  57220 MiB Core
         ---------------------------------------------------------

  ==> Geometry <==

    Molecular point group: c1
    Full point group: C1

    Geometry (in Bohr), charge = -1, multiplicity = 1:

       Center              X                  Y                   Z               Mass       
    ------------   -----------------  -----------------  -----------------  -----------------
         F            0.000000000000     0.000000000000     0.000000000000    18.998403162730
      Gh(O)           1.986345932526     2.071814465729     5.091576027223    15.994914619570
      Gh(H)           1.170282823056     3.593410603590     5.447776173789     1.007825032230
      Gh(H)           1.718889214538     1.802798723687     3.340000219893     1.007825032230
      Gh(O)           3.280789431204     3.359798880509    -2.082444175184    15.994914619570
      Gh(H)           2.350645445266     3.669264210266    -3.583166398264     1.007825032230
      Gh(H)           2.455736894555     1.931638361194    -1.266035245833     1.007825032230
      Gh(O)          -0.852090738052    -5.199551198579    -0.570812563182    15.994914619570
      Gh(H)          -0.834525733716    -5.820464180799     1.181226227049     1.007825032230
      Gh(H)          -0.149551035843    -3.562483345821    -0.446865426613     1.007825032230
      Gh(O)          -2.028311080594    -0.898481624706    -4.566487277372    15.994914619570
      Gh(H)          -3.437659376330     0.369292169163    -4.725471826033     1.007825032230
      Gh(H)          -1.208336238045    -0.558111713893    -2.969504295188     1.007825032230
      Gh(O)          -2.893038417247     4.382263546580    -1.449620249195    15.994914619570
      Gh(H)          -1.616700384578     3.078150319319    -1.089806946278     1.007825032230
      Gh(H)          -3.316747139919     4.216935187316    -3.183275783678     1.007825032230
      Gh(O)          -2.546213201990    -1.147205487612     4.272752027884    15.994914619570
      Gh(H)          -1.509447088601    -0.521938576399     2.948528335195     1.007825032230
      Gh(H)          -1.767149040330    -2.501819755850     5.368802629280     1.007825032230

  Running in c1 symmetry.

  Rotational constants: A =      0.03506  B =      0.03306  C =      0.02399 [cm^-1]
  Rotational constants: A =   1051.08473  B =    991.09378  C =    719.19930 [MHz]
  Nuclear repulsion =    0.000000000000000

  Charge       = -1
  Multiplicity = 1
  Electrons    = 10
  Nalpha       = 5
  Nbeta        = 5

  ==> Algorithm <==

  SCF Algorithm Type is DF.
  DIIS enabled.
  MOM disabled.
  Fractional occupation disabled.
  Guess Type is SAD.
  Energy threshold   = 1.00e-08
  Density threshold  = 1.00e-08
  Integral threshold = 1.00e-12

  ==> Primary Basis <==

  Basis Set: AUG-CC-PVTZ
    Blend: AUG-CC-PVTZ
    Number of shells: 206
    Number of basis functions: 598
    Number of Cartesian functions: 685
    Spherical Harmonics?: true
    Max angular momentum: 3

   => Loading Basis Set <=

    Name: (AUG-CC-PVTZ AUX)
    Role: JKFIT
    Keyword: DF_BASIS_SCF
    atoms 1                                   entry F          line   348 file /home/kchung25/anaconda3/envs/p415env/share/psi4/basis/aug-cc-pvtz-jkfit.gbs 
    atoms 2, 5, 8, 11, 14, 17                 entry O          line   286 file /home/kchung25/anaconda3/envs/p415env/share/psi4/basis/aug-cc-pvtz-jkfit.gbs 
    atoms 3-4, 6-7, 9-10, 12-13, 15-16, 18-19 entry H          line    70 file /home/kchung25/anaconda3/envs/p415env/share/psi4/basis/aug-cc-pvtz-jkfit.gbs 

  ==> Integral Setup <==

  DFHelper Memory: AOs need 3.152 GiB; user supplied 41.910 GiB. 
  Using in-core AOs.

  ==> MemDFJK: Density-Fitted J/K Matrices <==

    J tasked:                   Yes
    K tasked:                   Yes
    wK tasked:                   No
    OpenMP threads:               6
    Memory [MiB]:             42915
    Algorithm:                 Core
    Schwarz Cutoff:           1E-12
    Mask sparsity (%):      10.5133
    Fitting Condition:        1E-10

   => Auxiliary Basis Set <=

  Basis Set: (AUG-CC-PVTZ AUX)
    Blend: AUG-CC-PVTZ-JKFIT
    Number of shells: 378
    Number of basis functions: 1280
    Number of Cartesian functions: 1577
    Spherical Harmonics?: true
    Max angular momentum: 4

  Minimum eigenvalue in the overlap matrix is 3.9181838210E-05.
  Reciprocal condition number of the overlap matrix is 2.4496302200E-06.
    Using symmetric orthogonalization.

  ==> Pre-Iterations <==

  SCF Guess: Superposition of Atomic Densities via on-the-fly atomic UHF (no occupation information).

   -------------------------
    Irrep   Nso     Nmo    
   -------------------------
     A        598     598 
   -------------------------
    Total     598     598
   -------------------------

  ==> Iterations <==

                           Total Energy        Delta E     RMS |[F,P]|

   @DF-RHF iter SAD:   -98.82535133287541   -9.88254e+01   0.00000e+00 
   @DF-RHF iter   1:   -99.33804826635217   -5.12697e-01   9.12929e-04 ADIIS/DIIS
   @DF-RHF iter   2:   -99.37299590454353   -3.49476e-02   8.92690e-04 ADIIS/DIIS
   @DF-RHF iter   3:   -99.45106836517080   -7.80725e-02   3.18767e-05 DIIS
   @DF-RHF iter   4:   -99.45114680040750   -7.84352e-05   1.11125e-05 DIIS
   @DF-RHF iter   5:   -99.45115798412354   -1.11837e-05   6.97526e-07 DIIS
   @DF-RHF iter   6:   -99.45115808600526   -1.01882e-07   6.84072e-08 DIIS
   @DF-RHF iter   7:   -99.45115808715870   -1.15344e-09   8.35240e-09 DIIS
  Energy and wave function converged.


  ==> Post-Iterations <==

    Orbital Energies [Eh]
    ---------------------

    Doubly Occupied:                                                      

       1A    -25.833537     2A     -1.075865     3A     -0.180915  
       4A     -0.180911     5A     -0.180858  

    Virtual:                                                              

       6A      0.123599     7A      0.128907     8A      0.133993  
       9A      0.143383    10A      0.146842    11A      0.148127  
      12A      0.164198    13A      0.176295    14A      0.182819  
      15A      0.186368    16A      0.191683    17A      0.199459  
      18A      0.242399    19A      0.254168    20A      0.255951  
      21A      0.261795    22A      0.268028    23A      0.276452  
      24A      0.280266    25A      0.281789    26A      0.285740  
      27A      0.290304    28A      0.295327    29A      0.301461  
      30A      0.310655    31A      0.312785    32A      0.319937  
      33A      0.324345    34A      0.328715    35A      0.337332  
      36A      0.346598    37A      0.350190    38A      0.356427  
      39A      0.364763    40A      0.372329    41A      0.389434  
      42A      0.404635    43A      0.414040    44A      0.424630  
      45A      0.435861    46A      0.446471    47A      0.452523  
      48A      0.460789    49A      0.465890    50A      0.471612  
      51A      0.474930    52A      0.486483    53A      0.495828  
      54A      0.497375    55A      0.503224    56A      0.507952  
      57A      0.519482    58A      0.520733    59A      0.527798  
      60A      0.530696    61A      0.538450    62A      0.544744  
      63A      0.547292    64A      0.551177    65A      0.556144  
      66A      0.562748    67A      0.569242    68A      0.579131  
      69A      0.583605    70A      0.588104    71A      0.595926  
      72A      0.617549    73A      0.620106    74A      0.628488  
      75A      0.635323    76A      0.641672    77A      0.655671  
      78A      0.665840    79A      0.670349    80A      0.679365  
      81A      0.682349    82A      0.707501    83A      0.720929  
      84A      0.735251    85A      0.743707    86A      0.765632  
      87A      0.773498    88A      0.785957    89A      0.801031  
      90A      0.814508    91A      0.824801    92A      0.835264  
      93A      0.852375    94A      0.871981    95A      0.878409  
      96A      0.895196    97A      0.902946    98A      0.909735  
      99A      0.913644   100A      0.924136   101A      0.926695  
     102A      0.935990   103A      0.943201   104A      0.945903  
     105A      0.956878   106A      0.959440   107A      0.967995  
     108A      0.971332   109A      0.980506   110A      0.986893  
     111A      0.998898   112A      1.000221   113A      1.004592  
     114A      1.013537   115A      1.017564   116A      1.021780  
     117A      1.024794   118A      1.029269   119A      1.038059  
     120A      1.043288   121A      1.049904   122A      1.060946  
     123A      1.066070   124A      1.074783   125A      1.077265  
     126A      1.085087   127A      1.090400   128A      1.094635  
     129A      1.105199   130A      1.113503   131A      1.115535  
     132A      1.117632   133A      1.128138   134A      1.128575  
     135A      1.134400   136A      1.144725   137A      1.149070  
     138A      1.158208   139A      1.162747   140A      1.168470  
     141A      1.172837   142A      1.177165   143A      1.190208  
     144A      1.199924   145A      1.208125   146A      1.210290  
     147A      1.222028   148A      1.227952   149A      1.232868  
     150A      1.241958   151A      1.249850   152A      1.251950  
     153A      1.260014   154A      1.272320   155A      1.282415  
     156A      1.291153   157A      1.300773   158A      1.305679  
     159A      1.317140   160A      1.319156   161A      1.330461  
     162A      1.335890   163A      1.348866   164A      1.356381  
     165A      1.367317   166A      1.378539   167A      1.385250  
     168A      1.402742   169A      1.417108   170A      1.422312  
     171A      1.439166   172A      1.445899   173A      1.452245  
     174A      1.466160   175A      1.474759   176A      1.483653  
     177A      1.489651   178A      1.496097   179A      1.510900  
     180A      1.518250   181A      1.529236   182A      1.531710  
     183A      1.543358   184A      1.549978   185A      1.562683  
     186A      1.573583   187A      1.591686   188A      1.602824  
     189A      1.607888   190A      1.619144   191A      1.627838  
     192A      1.633598   193A      1.647115   194A      1.671605  
     195A      1.675545   196A      1.691476   197A      1.704497  
     198A      1.716048   199A      1.723728   200A      1.735806  
     201A      1.745252   202A      1.758400   203A      1.771289  
     204A      1.783338   205A      1.792119   206A      1.795475  
     207A      1.815019   208A      1.821633   209A      1.840525  
     210A      1.845742   211A      1.853505   212A      1.876079  
     213A      1.886097   214A      1.905610   215A      1.927082  
     216A      1.930751   217A      1.943906   218A      1.951588  
     219A      1.957283   220A      1.972560   221A      1.986158  
     222A      1.987829   223A      1.997766   224A      2.002529  
     225A      2.012629   226A      2.015084   227A      2.028787  
     228A      2.036049   229A      2.040192   230A      2.058130  
     231A      2.065616   232A      2.081744   233A      2.085044  
     234A      2.095281   235A      2.106909   236A      2.116603  
     237A      2.122259   238A      2.140640   239A      2.149816  
     240A      2.180932   241A      2.189612   242A      2.203205  
     243A      2.206227   244A      2.237397   245A      2.248829  
     246A      2.252800   247A      2.269133   248A      2.283843  
     249A      2.300126   250A      2.312891   251A      2.332296  
     252A      2.347415   253A      2.373921   254A      2.386233  
     255A      2.413263   256A      2.430518   257A      2.446531  
     258A      2.474843   259A      2.478392   260A      2.559763  
     261A      2.567433   262A      2.641660   263A      2.655395  
     264A      2.661376   265A      2.676771   266A      2.689997  
     267A      2.708197   268A      2.714596   269A      2.726945  
     270A      2.740490   271A      2.754515   272A      2.763262  
     273A      2.776548   274A      2.796529   275A      2.802328  
     276A      2.815971   277A      2.816065   278A      2.826272  
     279A      2.830901   280A      2.839159   281A      2.846436  
     282A      2.860224   283A      2.865721   284A      2.879175  
     285A      2.884016   286A      2.897618   287A      2.915278  
     288A      2.919545   289A      2.928077   290A      2.942934  
     291A      2.954661   292A      2.962975   293A      2.992339  
     294A      3.000398   295A      3.008440   296A      3.014355  
     297A      3.026205   298A      3.033995   299A      3.056377  
     300A      3.077326   301A      3.100177   302A      3.113199  
     303A      3.127075   304A      3.130898   305A      3.151169  
     306A      3.160138   307A      3.168299   308A      3.176997  
     309A      3.197277   310A      3.208223   311A      3.229081  
     312A      3.239208   313A      3.251434   314A      3.262442  
     315A      3.286592   316A      3.306377   317A      3.329761  
     318A      3.377477   319A      3.397717   320A      3.406175  
     321A      3.413162   322A      3.417417   323A      3.427808  
     324A      3.436768   325A      3.444035   326A      3.459667  
     327A      3.465304   328A      3.476219   329A      3.493360  
     330A      3.509802   331A      3.529679   332A      3.565626  
     333A      3.568469   334A      3.581515   335A      3.595002  
     336A      3.614681   337A      3.629118   338A      3.658429  
     339A      3.680117   340A      3.696586   341A      3.710427  
     342A      3.724060   343A      3.752879   344A      3.755485  
     345A      3.778476   346A      3.790509   347A      3.812219  
     348A      3.837139   349A      3.839115   350A      3.852153  
     351A      3.885521   352A      3.890546   353A      3.906350  
     354A      3.911516   355A      3.947388   356A      3.954926  
     357A      3.966145   358A      3.984648   359A      4.007726  
     360A      4.027281   361A      4.060540   362A      4.088668  
     363A      4.103321   364A      4.123086   365A      4.150393  
     366A      4.180117   367A      4.228202   368A      4.279722  
     369A      4.344259   370A      4.409845   371A      4.508960  
     372A      4.597128   373A      4.621191   374A      4.641597  
     375A      4.644926   376A      4.663048   377A      4.668532  
     378A      4.682147   379A      4.701659   380A      4.712595  
     381A      4.727715   382A      4.738396   383A      4.748101  
     384A      4.772826   385A      4.843970   386A      4.873006  
     387A      4.874007   388A      4.886173   389A      4.890600  
     390A      4.893486   391A      4.906996   392A      4.916651  
     393A      4.934648   394A      4.942935   395A      4.955941  
     396A      4.958358   397A      4.970183   398A      4.994069  
     399A      4.999710   400A      5.027040   401A      5.037673  
     402A      5.062436   403A      5.077227   404A      5.106751  
     405A      5.113945   406A      5.152190   407A      5.165099  
     408A      5.173280   409A      5.203336   410A      5.212030  
     411A      5.241577   412A      5.259056   413A      5.261541  
     414A      5.274071   415A      5.300443   416A      5.307206  
     417A      5.331778   418A      5.337666   419A      5.366788  
     420A      5.400189   421A      5.404175   422A      5.442273  
     423A      5.459080   424A      5.474342   425A      5.511450  
     426A      5.517153   427A      5.530783   428A      5.558550  
     429A      5.576020   430A      5.619853   431A      5.663411  
     432A      5.672734   433A      5.698062   434A      5.721872  
     435A      5.750775   436A      5.763406   437A      5.780979  
     438A      5.802955   439A      5.834873   440A      5.855142  
     441A      5.870009   442A      5.900760   443A      5.916297  
     444A      5.917038   445A      5.936665   446A      5.951961  
     447A      5.989926   448A      6.005804   449A      6.011534  
     450A      6.036024   451A      6.099327   452A      6.121284  
     453A      6.128611   454A      6.175721   455A      6.196323  
     456A      6.210782   457A      6.346941   458A      6.378698  
     459A      6.396919   460A      6.428904   461A      6.492785  
     462A      6.585319   463A      6.604869   464A      6.681274  
     465A      6.707555   466A      6.729382   467A      6.762732  
     468A      6.777758   469A      6.789574   470A      6.855369  
     471A      6.894317   472A      6.957856   473A      7.001117  
     474A      7.022221   475A      7.040270   476A      7.074091  
     477A      7.127056   478A      7.338594   479A      7.361531  
     480A      7.381133   481A      7.388492   482A      7.425090  
     483A      7.447224   484A      7.908935   485A      7.932595  
     486A      7.954523   487A      7.986375   488A      8.003715  
     489A      8.021941   490A      8.046905   491A      8.058212  
     492A      8.073682   493A      8.081709   494A      8.105919  
     495A      8.109003   496A      8.286034   497A      8.314464  
     498A      8.329277   499A      8.371241   500A      8.390479  
     501A      8.397015   502A      8.416451   503A      8.478566  
     504A      8.489678   505A      8.515558   506A      8.525714  
     507A      8.531776   508A      8.544761   509A      8.552303  
     510A      8.565850   511A      8.575235   512A      8.582945  
     513A      8.602116   514A      8.894906   515A      8.932185  
     516A      9.019798   517A      9.043479   518A      9.059839  
     519A      9.119701   520A      9.222360   521A      9.230632  
     522A      9.253484   523A      9.288606   524A      9.328709  
     525A      9.386143   526A      9.625668   527A      9.691522  
     528A      9.721937   529A      9.785886   530A      9.840971  
     531A      9.920299   532A      9.945194   533A      9.986775  
     534A      9.988456   535A     10.013715   536A     10.030643  
     537A     10.054977   538A     10.082754   539A     10.096838  
     540A     10.111607   541A     10.121498   542A     10.135469  
     543A     10.161728   544A     10.172907   545A     10.210624  
     546A     10.264848   547A     10.291636   548A     10.305600  
     549A     10.342650   550A     10.350333   551A     10.371970  
     552A     10.404470   553A     10.420903   554A     10.467095  
     555A     10.489664   556A     10.503092   557A     10.569282  
     558A     10.573362   559A     10.597284   560A     10.656440  
     561A     10.675390   562A     11.178597   563A     11.269040  
     564A     11.395830   565A     11.426539   566A     11.513637  
     567A     11.564309   568A     12.037098   569A     12.094129  
     570A     12.119098   571A     12.140573   572A     12.166038  
     573A     12.191345   574A     12.382411   575A     12.523700  
     576A     12.570688   577A     12.607026   578A     12.637146  
     579A     12.652812   580A     13.777183   581A     13.826562  
     582A     13.874043   583A     13.915864   584A     13.962530  
     585A     14.017782   586A     14.200584   587A     14.226503  
     588A     14.248774   589A     14.262250   590A     14.303095  
     591A     14.331927   592A     16.283984   593A     66.902311  
     594A     67.010875   595A     67.517212   596A     67.640135  
     597A     67.744829   598A     68.403102  

    Final Occupation by Irrep:
              A 
    DOCC [     5 ]
    NA   [     5 ]
    NB   [     5 ]

  @DF-RHF Final Energy:   -99.45115808715870

   => Energetics <=

    Nuclear Repulsion Energy =              0.0000000000000000
    One-Electron Energy =                -143.9981370391548978
    Two-Electron Energy =                  44.5469789519961878
    Total Energy =                        -99.4511580871587171

Computation Completed


Properties will be evaluated at   0.000000,   0.000000,   0.000000 [a0]

Properties computed using the SCF density matrix


 Multipole Moments:

 ------------------------------------------------------------------------------------
     Multipole            Electronic (a.u.)      Nuclear  (a.u.)        Total (a.u.)
 ------------------------------------------------------------------------------------

 L = 1.  Multiply by 2.5417464519 to convert [e a0] to [Debye]
 Dipole X            :         -0.0000491            0.0000000           -0.0000491
 Dipole Y            :          0.0001289            0.0000000            0.0001289
 Dipole Z            :         -0.0000309            0.0000000           -0.0000309
 Magnitude           :                                                    0.0001414

 ------------------------------------------------------------------------------------

*** tstop() called on moses-razer at Sat Jan  6 21:49:01 2024
Module time:
	user time   =      51.36 seconds =       0.86 minutes
	system time =       1.82 seconds =       0.03 minutes
	total time  =         10 seconds =       0.17 minutes
Total time:
	user time   =     161.43 seconds =       2.69 minutes
	system time =       6.18 seconds =       0.10 minutes
	total time  =         31 seconds =       0.52 minutes

*** tstart() called on moses-razer
*** at Sat Jan  6 21:49:01 2024


  //>>>>>>>>>>>>>>>>>>>>>>>>>>>>>>>>>>>//
  //               DFMP2               //
  //<<<<<<<<<<<<<<<<<<<<<<<<<<<<<<<<<<<//

   => Loading Basis Set <=

    Name: (AUG-CC-PVTZ AUX)
    Role: RIFIT
    Keyword: DF_BASIS_MP2
    atoms 1                                   entry F          line   322 file /home/kchung25/anaconda3/envs/p415env/share/psi4/basis/aug-cc-pvtz-ri.gbs 
    atoms 2, 5, 8, 11, 14, 17                 entry O          line   264 file /home/kchung25/anaconda3/envs/p415env/share/psi4/basis/aug-cc-pvtz-ri.gbs 
    atoms 3-4, 6-7, 9-10, 12-13, 15-16, 18-19 entry H          line    30 file /home/kchung25/anaconda3/envs/p415env/share/psi4/basis/aug-cc-pvtz-ri.gbs 

	 --------------------------------------------------------
	                          DF-MP2                         
	      2nd-Order Density-Fitted Moller-Plesset Theory     
	              RMP2 Wavefunction,   6 Threads             
	                                                         
	        Rob Parrish, Justin Turney, Andy Simmonett,      
	           Ed Hohenstein, and C. David Sherrill          
	 --------------------------------------------------------

   => Auxiliary Basis Set <=

  Basis Set: (AUG-CC-PVTZ AUX)
    Blend: AUG-CC-PVTZ-RI
    Number of shells: 364
    Number of basis functions: 1294
    Number of Cartesian functions: 1612
    Spherical Harmonics?: true
    Max angular momentum: 4

	 --------------------------------------------------------
	                 NBF =   598, NAUX =  1294
	 --------------------------------------------------------
	   CLASS    FOCC     OCC    AOCC    AVIR     VIR    FVIR
	   PAIRS       0       5       5     593     593       0
	 --------------------------------------------------------

	-----------------------------------------------------------
	 ==================> DF-MP2 Energies <==================== 
	-----------------------------------------------------------
	 Reference Energy          =     -99.4511580871587029 [Eh]
	 Singles Energy            =      -0.0000000000000000 [Eh]
	 Same-Spin Energy          =      -0.0820999337824917 [Eh]
	 Opposite-Spin Energy      =      -0.2305249723408519 [Eh]
	 Correlation Energy        =      -0.3126249061233436 [Eh]
	 Total Energy              =     -99.7637829932820495 [Eh]
	-----------------------------------------------------------
	 ================> DF-SCS-MP2 Energies <================== 
	-----------------------------------------------------------
	 SCS Same-Spin Scale       =       0.3333333333333333 [-]
	 SCS Opposite-Spin Scale   =       1.2000000000000000 [-]
	 SCS Same-Spin Energy      =      -0.0273666445941639 [Eh]
	 SCS Opposite-Spin Energy  =      -0.2766299668090222 [Eh]
	 SCS Correlation Energy    =      -0.3039966114031861 [Eh]
	 SCS Total Energy          =     -99.7551546985618955 [Eh]
	-----------------------------------------------------------


*** tstop() called on moses-razer at Sat Jan  6 21:49:05 2024
Module time:
	user time   =      15.94 seconds =       0.27 minutes
	system time =       1.01 seconds =       0.02 minutes
	total time  =          4 seconds =       0.07 minutes
Total time:
	user time   =     177.37 seconds =       2.96 minutes
	system time =       7.19 seconds =       0.12 minutes
	total time  =         35 seconds =       0.58 minutes

    Psi4 stopped on: Saturday, 06 January 2024 09:49PM
    Psi4 wall time for execution: 0:00:13.68


    -----------------------------------------------------------------------
          Psi4: An Open-Source Ab Initio Electronic Structure Package
                               Psi4 1.9 release

                         Git: Rev {} zzzzzzz 


    D. G. A. Smith, L. A. Burns, A. C. Simmonett, R. M. Parrish,
    M. C. Schieber, R. Galvelis, P. Kraus, H. Kruse, R. Di Remigio,
    A. Alenaizan, A. M. James, S. Lehtola, J. P. Misiewicz, M. Scheurer,
    R. A. Shaw, J. B. Schriber, Y. Xie, Z. L. Glick, D. A. Sirianni,
    J. S. O'Brien, J. M. Waldrop, A. Kumar, E. G. Hohenstein,
    B. P. Pritchard, B. R. Brooks, H. F. Schaefer III, A. Yu. Sokolov,
    K. Patkowski, A. E. DePrince III, U. Bozkaya, R. A. King,
    F. A. Evangelista, J. M. Turney, T. D. Crawford, C. D. Sherrill,
    J. Chem. Phys. 152(18) 184108 (2020). https://doi.org/10.1063/5.0006002

                            Additional Code Authors
    E. T. Seidl, C. L. Janssen, E. F. Valeev, M. L. Leininger,
    J. F. Gonthier, R. M. Richard, H. R. McAlexander, M. Saitow, X. Wang,
    P. Verma, M. H. Lechner, A. Jiang, S. Behnle, A. G. Heide,
    M. F. Herbst, and D. L. Poole

             Previous Authors, Complete List of Code Contributors,
                       and Citations for Specific Modules
    https://github.com/psi4/psi4/blob/master/codemeta.json
    https://github.com/psi4/psi4/graphs/contributors
    http://psicode.org/psi4manual/master/introduction.html#citing-psifour

    -----------------------------------------------------------------------


    Psi4 started on: Saturday, 06 January 2024 09:48PM

    Process ID: 556674
    Host:       moses-razer
    PSIDATADIR: /home/kchung25/anaconda3/envs/psi4_19/share/psi4
    Memory:     55.9 GiB
    Threads:    6
    
  ==> Input QCSchema <==

--------------------------------------------------------------------------
{'driver': 'energy',
 'extras': {'psiapi': True, 'wfn_qcvars_only': True},
 'id': None,
 'keywords': {'SCF_TYPE': 'DF', 'function_kwargs': {}},
 'model': {'basis': 'aug-cc-pvtz', 'method': 'mp2'},
 'molecule': {'atom_labels': ['', '', '', '', '', '', '', '', '', '', '', '', '', '', '', '', '', '', ''],
              'atomic_numbers': [9, 8, 1, 1, 8, 1, 1, 8, 1, 1, 8, 1, 1, 8, 1, 1, 8, 1, 1],
              'extras': {},
              'fix_com': True,
              'fix_orientation': True,
              'fix_symmetry': 'c1',
              'fragment_charges': [-1.0, 0.0],
              'fragment_multiplicities': [1, 1],
              'fragments': [[0], [1, 2, 3, 4, 5, 6, 7, 8, 9, 10, 11, 12, 13, 14, 15, 16, 17, 18]],
              'geometry': [0.0, 0.0, 0.0, 1.9863459325263615, 2.071814465728568, 5.091576027222797, 1.1702828230564022,
                           3.5934106035904585, 5.4477761737887205, 1.718889214538064, 1.802798723686768,
                           3.3400002198926892, 3.280789431203719, 3.359798880509111, -2.0824441751842686,
                           2.350645445265996, 3.669264210266336, -3.583166398264352, 2.4557368945549567,
                           1.9316383611943573, -1.2660352458333501, -0.8520907380518129, -5.199551198579207,
                           -0.5708125631819171, -0.8345257337156824, -5.820464180799262, 1.1812262270489284,
                           -0.14955103584260707, -3.562483345821216, -0.44686542661313805, -2.0283110805944036,
                           -0.8984816247056772, -4.566487277372458, -3.4376593763302243, 0.36929216916309426,
                           -4.72547182603335, -1.2083362380447462, -0.558111713892715, -2.9695042951876784,
                           -2.8930384172471526, 4.382263546579951, -1.4496202491954526, -1.6167003845778065,
                           3.0781503193186253, -1.089806946277655, -3.3167471399189306, 4.2169351873158964,
                           -3.1832757836778445, -2.546213201989627, -1.147205487612311, 4.272752027883544,
                           -1.509447088601322, -0.5219385763992013, 2.9485283351950966, -1.7671490403300063,
                           -2.5018197558503714, 5.3688026292797115],
              'mass_numbers': [19, 16, 1, 1, 16, 1, 1, 16, 1, 1, 16, 1, 1, 16, 1, 1, 16, 1, 1],
              'masses': [18.99840316273, 15.99491461957, 1.00782503223, 1.00782503223, 15.99491461957, 1.00782503223,
                         1.00782503223, 15.99491461957, 1.00782503223, 1.00782503223, 15.99491461957, 1.00782503223,
                         1.00782503223, 15.99491461957, 1.00782503223, 1.00782503223, 15.99491461957, 1.00782503223,
                         1.00782503223],
              'molecular_charge': -1.0,
              'molecular_multiplicity': 1,
              'name': 'dimer',
              'provenance': {'creator': 'QCElemental',
                             'routine': 'qcelemental.molparse.from_string',
                             'version': '0.27.1'},
              'real': [True, True, True, True, True, True, True, True, True, True, True, True, True, True, True, True,
                       True, True, True],
              'schema_name': 'qcschema_molecule',
              'schema_version': 2,
              'symbols': ['F', 'O', 'H', 'H', 'O', 'H', 'H', 'O', 'H', 'H', 'O', 'H', 'H', 'O', 'H', 'H', 'O', 'H',
                          'H'],
              'validated': True},
 'protocols': {'stdout': True},
 'provenance': {'creator': 'QCElemental', 'routine': 'qcelemental.models.results', 'version': '0.27.1'},
 'schema_name': 'qcschema_input',
 'schema_version': 1}
--------------------------------------------------------------------------

Scratch directory: /scratch/
   => Libint2 <=

    Primary   basis highest AM E, G, H:  5, 4, 3
    Auxiliary basis highest AM E, G, H:  6, 5, 4
    Onebody   basis highest AM E, G, H:  6, 5, 4
    Solid Harmonics ordering:            gaussian

*** tstart() called on moses-razer
*** at Sat Jan  6 21:49:05 2024

   => Loading Basis Set <=

    Name: AUG-CC-PVTZ
    Role: ORBITAL
    Keyword: BASIS
    atoms 1                                   entry F          line   377 file /home/kchung25/anaconda3/envs/p415env/share/psi4/basis/aug-cc-pvtz.gbs 
    atoms 2, 5, 8, 11, 14, 17                 entry O          line   331 file /home/kchung25/anaconda3/envs/p415env/share/psi4/basis/aug-cc-pvtz.gbs 
    atoms 3-4, 6-7, 9-10, 12-13, 15-16, 18-19 entry H          line    40 file /home/kchung25/anaconda3/envs/p415env/share/psi4/basis/aug-cc-pvtz.gbs 


         ---------------------------------------------------------
                                   SCF
               by Justin Turney, Rob Parrish, Andy Simmonett
                          and Daniel G. A. Smith
                              RHF Reference
                        6 Threads,  57220 MiB Core
         ---------------------------------------------------------

  ==> Geometry <==

    Molecular point group: c1
    Full point group: C1

    Geometry (in Bohr), charge = -1, multiplicity = 1:

       Center              X                  Y                   Z               Mass       
    ------------   -----------------  -----------------  -----------------  -----------------
         F            0.000000000000     0.000000000000     0.000000000000    18.998403162730
         O            1.986345932526     2.071814465729     5.091576027223    15.994914619570
         H            1.170282823056     3.593410603590     5.447776173789     1.007825032230
         H            1.718889214538     1.802798723687     3.340000219893     1.007825032230
         O            3.280789431204     3.359798880509    -2.082444175184    15.994914619570
         H            2.350645445266     3.669264210266    -3.583166398264     1.007825032230
         H            2.455736894555     1.931638361194    -1.266035245833     1.007825032230
         O           -0.852090738052    -5.199551198579    -0.570812563182    15.994914619570
         H           -0.834525733716    -5.820464180799     1.181226227049     1.007825032230
         H           -0.149551035843    -3.562483345821    -0.446865426613     1.007825032230
         O           -2.028311080594    -0.898481624706    -4.566487277372    15.994914619570
         H           -3.437659376330     0.369292169163    -4.725471826033     1.007825032230
         H           -1.208336238045    -0.558111713893    -2.969504295188     1.007825032230
         O           -2.893038417247     4.382263546580    -1.449620249195    15.994914619570
         H           -1.616700384578     3.078150319319    -1.089806946278     1.007825032230
         H           -3.316747139919     4.216935187316    -3.183275783678     1.007825032230
         O           -2.546213201990    -1.147205487612     4.272752027884    15.994914619570
         H           -1.509447088601    -0.521938576399     2.948528335195     1.007825032230
         H           -1.767149040330    -2.501819755850     5.368802629280     1.007825032230

  Running in c1 symmetry.

  Rotational constants: A =      0.03506  B =      0.03306  C =      0.02399 [cm^-1]
  Rotational constants: A =   1051.08473  B =    991.09378  C =    719.19930 [MHz]
  Nuclear repulsion =  360.454429100757352

  Charge       = -1
  Multiplicity = 1
  Electrons    = 70
  Nalpha       = 35
  Nbeta        = 35

  ==> Algorithm <==

  SCF Algorithm Type is DF.
  DIIS enabled.
  MOM disabled.
  Fractional occupation disabled.
  Guess Type is SAD.
  Energy threshold   = 1.00e-08
  Density threshold  = 1.00e-08
  Integral threshold = 1.00e-12

  ==> Primary Basis <==

  Basis Set: AUG-CC-PVTZ
    Blend: AUG-CC-PVTZ
    Number of shells: 206
    Number of basis functions: 598
    Number of Cartesian functions: 685
    Spherical Harmonics?: true
    Max angular momentum: 3

   => Loading Basis Set <=

    Name: (AUG-CC-PVTZ AUX)
    Role: JKFIT
    Keyword: DF_BASIS_SCF
    atoms 1                                   entry F          line   348 file /home/kchung25/anaconda3/envs/p415env/share/psi4/basis/aug-cc-pvtz-jkfit.gbs 
    atoms 2, 5, 8, 11, 14, 17                 entry O          line   286 file /home/kchung25/anaconda3/envs/p415env/share/psi4/basis/aug-cc-pvtz-jkfit.gbs 
    atoms 3-4, 6-7, 9-10, 12-13, 15-16, 18-19 entry H          line    70 file /home/kchung25/anaconda3/envs/p415env/share/psi4/basis/aug-cc-pvtz-jkfit.gbs 

  ==> Integral Setup <==

  DFHelper Memory: AOs need 3.152 GiB; user supplied 41.910 GiB. 
  Using in-core AOs.

  ==> MemDFJK: Density-Fitted J/K Matrices <==

    J tasked:                   Yes
    K tasked:                   Yes
    wK tasked:                   No
    OpenMP threads:               6
    Memory [MiB]:             42915
    Algorithm:                 Core
    Schwarz Cutoff:           1E-12
    Mask sparsity (%):      10.5133
    Fitting Condition:        1E-10

   => Auxiliary Basis Set <=

  Basis Set: (AUG-CC-PVTZ AUX)
    Blend: AUG-CC-PVTZ-JKFIT
    Number of shells: 378
    Number of basis functions: 1280
    Number of Cartesian functions: 1577
    Spherical Harmonics?: true
    Max angular momentum: 4

  Minimum eigenvalue in the overlap matrix is 3.9181838210E-05.
  Reciprocal condition number of the overlap matrix is 2.4496302200E-06.
    Using symmetric orthogonalization.

  ==> Pre-Iterations <==

  SCF Guess: Superposition of Atomic Densities via on-the-fly atomic UHF (no occupation information).

   -------------------------
    Irrep   Nso     Nmo    
   -------------------------
     A        598     598 
   -------------------------
    Total     598     598
   -------------------------

  ==> Iterations <==

                           Total Energy        Delta E     RMS |[F,P]|

   @DF-RHF iter SAD:  -552.29853163136124   -5.52299e+02   0.00000e+00 
   @DF-RHF iter   1:  -555.39339197342792   -3.09486e+00   1.97005e-03 ADIIS/DIIS
   @DF-RHF iter   2:  -555.72742380796205   -3.34032e-01   1.31171e-03 ADIIS/DIIS
   @DF-RHF iter   3:  -555.91276759862558   -1.85344e-01   9.10186e-05 DIIS
   @DF-RHF iter   4:  -555.91526626519260   -2.49867e-03   2.85330e-05 DIIS
   @DF-RHF iter   5:  -555.91542319149232   -1.56926e-04   1.20067e-05 DIIS
   @DF-RHF iter   6:  -555.91545225239759   -2.90609e-05   2.86039e-06 DIIS
   @DF-RHF iter   7:  -555.91545560618590   -3.35379e-06   7.73524e-07 DIIS
   @DF-RHF iter   8:  -555.91545586135908   -2.55173e-07   3.22175e-07 DIIS
   @DF-RHF iter   9:  -555.91545588479835   -2.34393e-08   7.70602e-08 DIIS
   @DF-RHF iter  10:  -555.91545588739336   -2.59502e-09   1.55169e-08 DIIS
   @DF-RHF iter  11:  -555.91545588751137   -1.18007e-10   5.58390e-09 DIIS
  Energy and wave function converged.


  ==> Post-Iterations <==

    Orbital Energies [Eh]
    ---------------------

    Doubly Occupied:                                                      

       1A    -26.022143     2A    -20.423987     3A    -20.420187  
       4A    -20.409366     5A    -20.407966     6A    -20.404739  
       7A    -20.396621     8A     -1.294646     9A     -1.221202  
      10A     -1.208871    11A     -1.196932    12A     -1.189723  
      13A     -1.180972    14A     -1.170962    15A     -0.590520  
      16A     -0.582164    17A     -0.573263    18A     -0.566503  
      19A     -0.561302    20A     -0.546311    21A     -0.460657  
      22A     -0.451025    23A     -0.442253    24A     -0.432246  
      25A     -0.423626    26A     -0.405798    27A     -0.381177  
      28A     -0.379736    29A     -0.374021    30A     -0.370290  
      31A     -0.365251    32A     -0.354257    33A     -0.350014  
      34A     -0.346506    35A     -0.333523  

    Virtual:                                                              

      36A      0.117999    37A      0.121933    38A      0.131444  
      39A      0.140813    40A      0.147304    41A      0.147541  
      42A      0.165833    43A      0.179523    44A      0.185716  
      45A      0.187802    46A      0.197314    47A      0.199104  
      48A      0.242430    49A      0.252979    50A      0.260588  
      51A      0.263807    52A      0.275142    53A      0.283649  
      54A      0.291191    55A      0.297447    56A      0.300296  
      57A      0.303089    58A      0.303968    59A      0.312832  
      60A      0.318006    61A      0.325133    62A      0.329413  
      63A      0.339959    64A      0.342857    65A      0.346727  
      66A      0.354611    67A      0.357042    68A      0.361534  
      69A      0.371277    70A      0.378567    71A      0.385994  
      72A      0.392859    73A      0.398780    74A      0.402391  
      75A      0.408762    76A      0.425303    77A      0.433320  
      78A      0.437932    79A      0.452326    80A      0.455300  
      81A      0.462295    82A      0.468574    83A      0.480798  
      84A      0.485566    85A      0.497307    86A      0.502991  
      87A      0.505054    88A      0.518035    89A      0.521871  
      90A      0.527768    91A      0.541013    92A      0.542624  
      93A      0.546396    94A      0.550468    95A      0.563574  
      96A      0.565324    97A      0.577428    98A      0.580587  
      99A      0.591217   100A      0.592613   101A      0.599506  
     102A      0.600658   103A      0.616676   104A      0.626814  
     105A      0.631005   106A      0.641862   107A      0.644025  
     108A      0.658729   109A      0.669279   110A      0.681460  
     111A      0.686323   112A      0.690454   113A      0.695946  
     114A      0.701755   115A      0.719192   116A      0.722359  
     117A      0.728454   118A      0.741605   119A      0.752863  
     120A      0.764453   121A      0.771808   122A      0.784448  
     123A      0.793555   124A      0.817013   125A      0.824680  
     126A      0.828658   127A      0.842903   128A      0.850239  
     129A      0.857367   130A      0.866098   131A      0.867401  
     132A      0.872949   133A      0.880800   134A      0.890308  
     135A      0.896206   136A      0.908871   137A      0.913757  
     138A      0.918590   139A      0.925961   140A      0.929869  
     141A      0.935275   142A      0.936235   143A      0.947402  
     144A      0.958400   145A      0.971202   146A      0.973806  
     147A      0.977326   148A      0.988900   149A      0.994498  
     150A      1.005461   151A      1.019829   152A      1.023202  
     153A      1.033174   154A      1.039631   155A      1.049606  
     156A      1.054285   157A      1.066125   158A      1.070734  
     159A      1.071476   160A      1.077320   161A      1.082532  
     162A      1.092606   163A      1.100092   164A      1.105126  
     165A      1.109389   166A      1.116397   167A      1.123698  
     168A      1.133183   169A      1.136080   170A      1.146696  
     171A      1.150905   172A      1.161289   173A      1.174520  
     174A      1.180229   175A      1.184257   176A      1.185539  
     177A      1.194815   178A      1.201527   179A      1.210465  
     180A      1.212951   181A      1.217905   182A      1.219162  
     183A      1.230573   184A      1.234046   185A      1.243071  
     186A      1.255184   187A      1.274082   188A      1.280193  
     189A      1.284711   190A      1.295744   191A      1.298764  
     192A      1.307407   193A      1.312987   194A      1.318096  
     195A      1.330829   196A      1.339334   197A      1.349327  
     198A      1.357491   199A      1.364884   200A      1.372903  
     201A      1.385576   202A      1.397371   203A      1.401795  
     204A      1.407907   205A      1.420423   206A      1.422863  
     207A      1.423999   208A      1.432201   209A      1.445681  
     210A      1.452745   211A      1.462175   212A      1.471253  
     213A      1.490215   214A      1.490877   215A      1.498344  
     216A      1.515842   217A      1.525088   218A      1.528598  
     219A      1.533962   220A      1.542459   221A      1.547536  
     222A      1.561202   223A      1.573489   224A      1.585726  
     225A      1.592611   226A      1.606700   227A      1.622147  
     228A      1.631503   229A      1.645590   230A      1.650914  
     231A      1.654200   232A      1.671945   233A      1.674244  
     234A      1.689289   235A      1.694589   236A      1.709477  
     237A      1.725310   238A      1.726732   239A      1.735440  
     240A      1.755744   241A      1.758029   242A      1.764589  
     243A      1.784906   244A      1.795278   245A      1.802848  
     246A      1.815421   247A      1.822188   248A      1.833212  
     249A      1.840985   250A      1.857331   251A      1.859287  
     252A      1.869905   253A      1.879920   254A      1.894453  
     255A      1.907283   256A      1.928194   257A      1.945477  
     258A      1.953200   259A      1.956907   260A      1.971777  
     261A      2.000661   262A      2.007872   263A      2.015970  
     264A      2.029772   265A      2.036477   266A      2.055984  
     267A      2.069004   268A      2.077442   269A      2.094941  
     270A      2.106998   271A      2.129562   272A      2.142171  
     273A      2.154751   274A      2.172406   275A      2.182709  
     276A      2.188404   277A      2.197656   278A      2.222330  
     279A      2.233797   280A      2.244143   281A      2.279570  
     282A      2.283822   283A      2.290612   284A      2.370298  
     285A      2.410543   286A      2.422796   287A      2.457011  
     288A      2.478117   289A      2.508143   290A      2.527996  
     291A      2.542769   292A      2.560834   293A      2.568926  
     294A      2.570184   295A      2.577633   296A      2.586585  
     297A      2.598321   298A      2.616071   299A      2.618272  
     300A      2.629373   301A      2.635694   302A      2.640815  
     303A      2.648953   304A      2.658550   305A      2.670853  
     306A      2.678771   307A      2.680788   308A      2.688519  
     309A      2.697298   310A      2.706341   311A      2.710920  
     312A      2.728579   313A      2.731315   314A      2.735143  
     315A      2.750543   316A      2.761472   317A      2.778061  
     318A      2.797751   319A      2.805571   320A      2.807532  
     321A      2.817067   322A      2.837965   323A      2.841904  
     324A      2.849223   325A      2.856026   326A      2.872398  
     327A      2.879593   328A      2.882749   329A      2.897977  
     330A      2.910515   331A      2.911378   332A      2.918342  
     333A      2.927502   334A      2.944368   335A      2.950185  
     336A      2.964669   337A      2.978764   338A      2.991021  
     339A      3.013155   340A      3.024030   341A      3.036681  
     342A      3.042704   343A      3.049991   344A      3.056290  
     345A      3.079623   346A      3.088120   347A      3.101777  
     348A      3.112149   349A      3.126171   350A      3.133809  
     351A      3.159948   352A      3.165046   353A      3.171380  
     354A      3.188678   355A      3.210736   356A      3.226773  
     357A      3.234641   358A      3.269594   359A      3.271814  
     360A      3.282794   361A      3.292868   362A      3.319790  
     363A      3.333676   364A      3.357370   365A      3.370777  
     366A      3.525387   367A      3.596311   368A      3.678959  
     369A      3.735249   370A      3.746927   371A      3.755885  
     372A      3.787275   373A      3.838125   374A      3.843680  
     375A      3.879034   376A      3.918894   377A      3.942653  
     378A      3.949287   379A      3.993985   380A      4.014511  
     381A      4.030165   382A      4.067121   383A      4.109879  
     384A      4.185615   385A      4.206245   386A      4.233734  
     387A      4.255520   388A      4.269879   389A      4.278834  
     390A      4.283119   391A      4.307332   392A      4.327133  
     393A      4.333342   394A      4.352898   395A      4.354861  
     396A      4.381165   397A      4.409219   398A      4.431750  
     399A      4.440704   400A      4.444179   401A      4.454342  
     402A      4.461226   403A      4.462962   404A      4.471171  
     405A      4.490187   406A      4.496802   407A      4.497621  
     408A      4.515207   409A      4.530238   410A      4.533647  
     411A      4.541632   412A      4.555210   413A      4.568430  
     414A      4.583051   415A      4.587362   416A      4.598127  
     417A      4.605941   418A      4.610654   419A      4.619005  
     420A      4.639895   421A      4.642237   422A      4.650814  
     423A      4.661038   424A      4.670698   425A      4.677679  
     426A      4.685463   427A      4.695670   428A      4.706314  
     429A      4.731486   430A      4.739575   431A      4.756072  
     432A      4.759175   433A      4.767826   434A      4.793055  
     435A      4.807928   436A      4.813691   437A      4.824480  
     438A      4.847895   439A      4.850716   440A      4.877240  
     441A      4.891832   442A      4.902625   443A      4.922604  
     444A      4.937765   445A      4.973447   446A      4.992716  
     447A      5.010236   448A      5.046883   449A      5.058338  
     450A      5.076911   451A      5.104594   452A      5.154722  
     453A      5.179513   454A      5.233915   455A      5.251320  
     456A      5.255955   457A      5.307071   458A      5.333462  
     459A      5.336900   460A      5.355627   461A      5.367456  
     462A      5.390236   463A      5.395702   464A      5.411570  
     465A      5.427458   466A      5.439708   467A      5.459703  
     468A      5.473253   469A      5.499715   470A      5.527443  
     471A      5.540392   472A      5.561468   473A      5.585413  
     474A      5.614205   475A      5.623378   476A      5.634660  
     477A      5.658104   478A      5.700391   479A      5.702704  
     480A      5.714603   481A      5.727584   482A      5.743636  
     483A      5.770981   484A      5.804434   485A      5.826914  
     486A      5.860462   487A      5.931787   488A      5.962244  
     489A      5.981535   490A      6.051307   491A      6.059925  
     492A      6.104898   493A      6.320462   494A      6.405571  
     495A      6.433858   496A      6.454790   497A      6.458317  
     498A      6.490960   499A      6.515149   500A      6.712207  
     501A      6.728726   502A      6.736471   503A      6.756823  
     504A      6.760564   505A      6.784825   506A      6.803930  
     507A      6.830368   508A      6.958654   509A      6.968362  
     510A      6.997580   511A      7.022128   512A      7.046153  
     513A      7.063067   514A      7.081227   515A      7.106591  
     516A      7.128152   517A      7.155260   518A      7.161544  
     519A      7.184544   520A      7.323322   521A      7.346372  
     522A      7.358807   523A      7.376442   524A      7.400590  
     525A      7.419905   526A      7.450378   527A      7.463019  
     528A      7.486587   529A      7.492647   530A      7.500858  
     531A      7.511511   532A      7.514714   533A      7.520326  
     534A      7.538439   535A      7.542211   536A      7.546010  
     537A      7.553074   538A      7.563980   539A      7.573937  
     540A      7.585083   541A      7.593471   542A      7.605271  
     543A      7.612176   544A      7.618006   545A      7.629785  
     546A      7.633604   547A      7.643007   548A      7.668480  
     549A      7.687358   550A      7.711231   551A      7.717009  
     552A      7.729864   553A      7.798550   554A      7.820037  
     555A      7.829378   556A      7.915357   557A      7.968151  
     558A      7.988103   559A      8.008548   560A      8.039701  
     561A      8.052601   562A      8.114227   563A      8.129444  
     564A      8.144706   565A      8.152779   566A      8.172055  
     567A      8.192034   568A      8.204241   569A      8.223718  
     570A      8.235872   571A      8.248786   572A      8.278563  
     573A      8.307637   574A      8.847572   575A      8.900549  
     576A      8.960863   577A      8.991703   578A      9.034120  
     579A      9.106843   580A      9.424594   581A      9.496828  
     582A      9.533427   583A      9.641756   584A      9.714984  
     585A      9.844771   586A      9.975361   587A     10.039426  
     588A     10.097844   589A     10.145241   590A     10.273673  
     591A     10.404890   592A     15.123202   593A     16.984550  
     594A     17.072997   595A     17.211111   596A     17.332250  
     597A     17.631368   598A     17.772942  

    Final Occupation by Irrep:
              A 
    DOCC [    35 ]
    NA   [    35 ]
    NB   [    35 ]

  @DF-RHF Final Energy:  -555.91545588751137

   => Energetics <=

    Nuclear Repulsion Energy =            360.4544291007573520
    One-Electron Energy =               -1500.2622420445595708
    Two-Electron Energy =                 583.8923570562908480
    Total Energy =                       -555.9154558875113707

Computation Completed


Properties will be evaluated at   0.000000,   0.000000,   0.000000 [a0]

Properties computed using the SCF density matrix


 Multipole Moments:

 ------------------------------------------------------------------------------------
     Multipole            Electronic (a.u.)      Nuclear  (a.u.)        Total (a.u.)
 ------------------------------------------------------------------------------------

 L = 1.  Multiply by 2.5417464519 to convert [e a0] to [Debye]
 Dipole X            :         30.7482155          -30.5647063            0.1835092
 Dipole Y            :        -26.1749045           26.2457807            0.0708761
 Dipole Z            :         -6.5608305            6.5819180            0.0210875
 Magnitude           :                                                    0.1978478

 ------------------------------------------------------------------------------------

*** tstop() called on moses-razer at Sat Jan  6 21:49:20 2024
Module time:
	user time   =      81.79 seconds =       1.36 minutes
	system time =       2.79 seconds =       0.05 minutes
	total time  =         15 seconds =       0.25 minutes
Total time:
	user time   =     259.51 seconds =       4.33 minutes
	system time =       9.98 seconds =       0.17 minutes
	total time  =         50 seconds =       0.83 minutes

*** tstart() called on moses-razer
*** at Sat Jan  6 21:49:20 2024


  //>>>>>>>>>>>>>>>>>>>>>>>>>>>>>>>>>>>//
  //               DFMP2               //
  //<<<<<<<<<<<<<<<<<<<<<<<<<<<<<<<<<<<//

   => Loading Basis Set <=

    Name: (AUG-CC-PVTZ AUX)
    Role: RIFIT
    Keyword: DF_BASIS_MP2
    atoms 1                                   entry F          line   322 file /home/kchung25/anaconda3/envs/p415env/share/psi4/basis/aug-cc-pvtz-ri.gbs 
    atoms 2, 5, 8, 11, 14, 17                 entry O          line   264 file /home/kchung25/anaconda3/envs/p415env/share/psi4/basis/aug-cc-pvtz-ri.gbs 
    atoms 3-4, 6-7, 9-10, 12-13, 15-16, 18-19 entry H          line    30 file /home/kchung25/anaconda3/envs/p415env/share/psi4/basis/aug-cc-pvtz-ri.gbs 

	 --------------------------------------------------------
	                          DF-MP2                         
	      2nd-Order Density-Fitted Moller-Plesset Theory     
	              RMP2 Wavefunction,   6 Threads             
	                                                         
	        Rob Parrish, Justin Turney, Andy Simmonett,      
	           Ed Hohenstein, and C. David Sherrill          
	 --------------------------------------------------------

   => Auxiliary Basis Set <=

  Basis Set: (AUG-CC-PVTZ AUX)
    Blend: AUG-CC-PVTZ-RI
    Number of shells: 364
    Number of basis functions: 1294
    Number of Cartesian functions: 1612
    Spherical Harmonics?: true
    Max angular momentum: 4

	 --------------------------------------------------------
	                 NBF =   598, NAUX =  1294
	 --------------------------------------------------------
	   CLASS    FOCC     OCC    AOCC    AVIR     VIR    FVIR
	   PAIRS       0      35      35     563     563       0
	 --------------------------------------------------------

	-----------------------------------------------------------
	 ==================> DF-MP2 Energies <==================== 
	-----------------------------------------------------------
	 Reference Energy          =    -555.9154558875113707 [Eh]
	 Singles Energy            =      -0.0000000000000000 [Eh]
	 Same-Spin Energy          =      -0.5037855903795807 [Eh]
	 Opposite-Spin Energy      =      -1.5347209958727046 [Eh]
	 Correlation Energy        =      -2.0385065862522853 [Eh]
	 Total Energy              =    -557.9539624737636814 [Eh]
	-----------------------------------------------------------
	 ================> DF-SCS-MP2 Energies <================== 
	-----------------------------------------------------------
	 SCS Same-Spin Scale       =       0.3333333333333333 [-]
	 SCS Opposite-Spin Scale   =       1.2000000000000000 [-]
	 SCS Same-Spin Energy      =      -0.1679285301265269 [Eh]
	 SCS Opposite-Spin Energy  =      -1.8416651950472454 [Eh]
	 SCS Correlation Energy    =      -2.0095937251737723 [Eh]
	 SCS Total Energy          =    -557.9250496126851431 [Eh]
	-----------------------------------------------------------


*** tstop() called on moses-razer at Sat Jan  6 21:49:28 2024
Module time:
	user time   =      36.89 seconds =       0.61 minutes
	system time =       1.68 seconds =       0.03 minutes
	total time  =          8 seconds =       0.13 minutes
Total time:
	user time   =     296.40 seconds =       4.94 minutes
	system time =      11.66 seconds =       0.19 minutes
	total time  =         58 seconds =       0.97 minutes

    Psi4 stopped on: Saturday, 06 January 2024 09:49PM
    Psi4 wall time for execution: 0:00:22.66


  //>>>>>>>>>>>>>>>>>>>>>>>>>>>>>>>>>>>//
  //          ManyBody Results         //
  //<<<<<<<<<<<<<<<<<<<<<<<<<<<<<<<<<<<//


   ==> N-Body: Counterpoise Corrected (CP) energies <==

        n-Body     Total Energy            Interaction Energy                          N-body Contribution to Interaction Energy
                   [Eh]                    [Eh]                  [kcal/mol]            [Eh]                  [kcal/mol]
             1  N/A                         0.000000000000        0.000000000000        0.000000000000        0.000000000000
  FULL/RTN   2  N/A                        -0.152813495722      -95.891916286868       -0.152813495722      -95.891916286868


    Psi4 stopped on: Saturday, 06 January 2024 09:49PM
    Psi4 wall time for execution: 0:00:59.12

*** Psi4 exiting successfully. Buy a developer a beer!
