
    -----------------------------------------------------------------------
          Psi4: An Open-Source Ab Initio Electronic Structure Package
                               Psi4 1.8.2 release

                         Git: Rev {} zzzzzzz 


    D. G. A. Smith, L. A. Burns, A. C. Simmonett, R. M. Parrish,
    M. C. Schieber, R. Galvelis, P. Kraus, H. Kruse, R. Di Remigio,
    A. Alenaizan, A. M. James, S. Lehtola, J. P. Misiewicz, M. Scheurer,
    R. A. Shaw, J. B. Schriber, Y. Xie, Z. L. Glick, D. A. Sirianni,
    J. S. O'Brien, J. M. Waldrop, A. Kumar, E. G. Hohenstein,
    B. P. Pritchard, B. R. Brooks, H. F. Schaefer III, A. Yu. Sokolov,
    K. Patkowski, A. E. DePrince III, U. Bozkaya, R. A. King,
    F. A. Evangelista, J. M. Turney, T. D. Crawford, C. D. Sherrill,
    J. Chem. Phys. 152(18) 184108 (2020). https://doi.org/10.1063/5.0006002

                            Additional Code Authors
    E. T. Seidl, C. L. Janssen, E. F. Valeev, M. L. Leininger,
    J. F. Gonthier, R. M. Richard, H. R. McAlexander, M. Saitow, X. Wang,
    P. Verma, M. H. Lechner, A. Jiang, S. Behnle, A. G. Heide,
    M. F. Herbst, and D. L. Poole

             Previous Authors, Complete List of Code Contributors,
                       and Citations for Specific Modules
    https://github.com/psi4/psi4/blob/master/codemeta.json
    https://github.com/psi4/psi4/graphs/contributors
    http://psicode.org/psi4manual/master/introduction.html#citing-psifour

    -----------------------------------------------------------------------


    Psi4 started on: Monday, 22 January 2024 04:51PM

    Process ID: 80326
    Host:       ddmfs1
    PSIDATADIR: /ddmfs1b/softs/psi4conda/share/psi4
    Memory:     500.0 MiB
    Threads:    20
    
  ==> Input File <==

--------------------------------------------------------------------------
MEMORY 60 GB

molecule dimer {
0 1
Gh(F)      0.000000     0.000000     0.000000
O         -1.256991    -2.655153     0.558376
H         -0.644672    -1.885729     0.567536
H         -1.338472    -2.882476    -0.385089
Gh(O)     -1.305576     1.251295     2.202499
Gh(H)     -0.711750     0.974728     1.504356
Gh(H)     -0.952684     2.111079     2.505476
Gh(O)     -1.829428    -0.415971    -2.107193
Gh(H)     -1.246037    -0.200344    -1.362479
Gh(H)     -2.146589     0.442551    -2.466447
Gh(O)      2.666227     0.699907     0.336488
Gh(H)      3.306908     0.099210    -0.077513
Gh(H)      1.734687     0.339624     0.260511
Gh(O)      1.906743    -2.341252    -0.205944
Gh(H)      2.501677    -2.614324    -0.890521
Gh(H)      1.283532    -1.646288    -0.583459
Gh(O)      0.176288     2.561885    -1.340247
Gh(H)      0.256168     1.819622    -0.726477
Gh(H)     -0.688746     2.476205    -1.766219

units ang
no_reorient
no_com
symmetry c1
}

set {
basis        aug-cc-pVTZ
scf_type     df
}

energy("mp2")
--------------------------------------------------------------------------

  Memory set to  55.879 GiB by Python driver.

Scratch directory: /ddmfs1a/scratch/
   => Libint2 <=

    Primary   basis highest AM E, G, H:  5, 4, 3
    Auxiliary basis highest AM E, G, H:  6, 5, 4
    Onebody   basis highest AM E, G, H:  6, 5, 4
    Solid Harmonics ordering:            gaussian

*** tstart() called on ddmfs1
*** at Mon Jan 22 16:51:01 2024

   => Loading Basis Set <=

    Name: AUG-CC-PVTZ
    Role: ORBITAL
    Keyword: BASIS
    atoms 1                                   entry F          line   377 file /ddmfs1b/softs/psi4conda/share/psi4/basis/aug-cc-pvtz.gbs 
    atoms 2, 5, 8, 11, 14, 17                 entry O          line   331 file /ddmfs1b/softs/psi4conda/share/psi4/basis/aug-cc-pvtz.gbs 
    atoms 3-4, 6-7, 9-10, 12-13, 15-16, 18-19 entry H          line    40 file /ddmfs1b/softs/psi4conda/share/psi4/basis/aug-cc-pvtz.gbs 


         ---------------------------------------------------------
                                   SCF
               by Justin Turney, Rob Parrish, Andy Simmonett
                          and Daniel G. A. Smith
                              RHF Reference
                       20 Threads,  57220 MiB Core
         ---------------------------------------------------------

  ==> Geometry <==

    Molecular point group: c1
    Full point group: C1

    Geometry (in Angstrom), charge = 0, multiplicity = 1:

       Center              X                  Y                   Z               Mass       
    ------------   -----------------  -----------------  -----------------  -----------------
      Gh(F)           0.000000000000     0.000000000000     0.000000000000    18.998403162730
         O           -1.256991000000    -2.655153000000     0.558376000000    15.994914619570
         H           -0.644672000000    -1.885729000000     0.567536000000     1.007825032230
         H           -1.338472000000    -2.882476000000    -0.385089000000     1.007825032230
      Gh(O)          -1.305576000000     1.251295000000     2.202499000000    15.994914619570
      Gh(H)          -0.711750000000     0.974728000000     1.504356000000     1.007825032230
      Gh(H)          -0.952684000000     2.111079000000     2.505476000000     1.007825032230
      Gh(O)          -1.829428000000    -0.415971000000    -2.107193000000    15.994914619570
      Gh(H)          -1.246037000000    -0.200344000000    -1.362479000000     1.007825032230
      Gh(H)          -2.146589000000     0.442551000000    -2.466447000000     1.007825032230
      Gh(O)           2.666227000000     0.699907000000     0.336488000000    15.994914619570
      Gh(H)           3.306908000000     0.099210000000    -0.077513000000     1.007825032230
      Gh(H)           1.734687000000     0.339624000000     0.260511000000     1.007825032230
      Gh(O)           1.906743000000    -2.341252000000    -0.205944000000    15.994914619570
      Gh(H)           2.501677000000    -2.614324000000    -0.890521000000     1.007825032230
      Gh(H)           1.283532000000    -1.646288000000    -0.583459000000     1.007825032230
      Gh(O)           0.176288000000     2.561885000000    -1.340247000000    15.994914619570
      Gh(H)           0.256168000000     1.819622000000    -0.726477000000     1.007825032230
      Gh(H)          -0.688746000000     2.476205000000    -1.766219000000     1.007825032230

  Running in c1 symmetry.

  Rotational constants: A =      0.03258  B =      0.02888  C =      0.02443 [cm^-1]
  Rotational constants: A =    976.81998  B =    865.67237  C =    732.37890 [MHz]
  Nuclear repulsion =    8.994783976804593

  Charge       = 0
  Multiplicity = 1
  Electrons    = 10
  Nalpha       = 5
  Nbeta        = 5

  ==> Algorithm <==

  SCF Algorithm Type is DF.
  DIIS enabled.
  MOM disabled.
  Fractional occupation disabled.
  Guess Type is SAD.
  Energy threshold   = 1.00e-08
  Density threshold  = 1.00e-08
  Integral threshold = 1.00e-12

  ==> Primary Basis <==

  Basis Set: AUG-CC-PVTZ
    Blend: AUG-CC-PVTZ
    Number of shells: 206
    Number of basis functions: 598
    Number of Cartesian functions: 685
    Spherical Harmonics?: true
    Max angular momentum: 3

   => Loading Basis Set <=

    Name: (AUG-CC-PVTZ AUX)
    Role: JKFIT
    Keyword: DF_BASIS_SCF
    atoms 1                                   entry F          line   348 file /ddmfs1b/softs/psi4conda/share/psi4/basis/aug-cc-pvtz-jkfit.gbs 
    atoms 2, 5, 8, 11, 14, 17                 entry O          line   286 file /ddmfs1b/softs/psi4conda/share/psi4/basis/aug-cc-pvtz-jkfit.gbs 
    atoms 3-4, 6-7, 9-10, 12-13, 15-16, 18-19 entry H          line    70 file /ddmfs1b/softs/psi4conda/share/psi4/basis/aug-cc-pvtz-jkfit.gbs 

  ==> Integral Setup <==

  DFHelper Memory: AOs need 3.139 GiB; user supplied 41.910 GiB. 
  Using in-core AOs.

  ==> MemDFJK: Density-Fitted J/K Matrices <==

    J tasked:                   Yes
    K tasked:                   Yes
    wK tasked:                   No
    OpenMP threads:              20
    Memory [MiB]:             42915
    Algorithm:                 Core
    Schwarz Cutoff:           1E-12
    Mask sparsity (%):      11.9926
    Fitting Condition:        1E-10

   => Auxiliary Basis Set <=

  Basis Set: (AUG-CC-PVTZ AUX)
    Blend: AUG-CC-PVTZ-JKFIT
    Number of shells: 378
    Number of basis functions: 1280
    Number of Cartesian functions: 1577
    Spherical Harmonics?: true
    Max angular momentum: 4

  Minimum eigenvalue in the overlap matrix is 3.6308087944E-05.
  Reciprocal condition number of the overlap matrix is 2.4264095785E-06.
    Using symmetric orthogonalization.

  ==> Pre-Iterations <==

  SCF Guess: Superposition of Atomic Densities via on-the-fly atomic UHF (no occupation information).

   -------------------------
    Irrep   Nso     Nmo    
   -------------------------
     A        598     598 
   -------------------------
    Total     598     598
   -------------------------

  ==> Iterations <==

                           Total Energy        Delta E     RMS |[F,P]|

   @DF-RHF iter SAD:   -75.45351672943895   -7.54535e+01   0.00000e+00 
   @DF-RHF iter   1:   -75.97311919491136   -5.19602e-01   7.80891e-04 ADIIS/DIIS
   @DF-RHF iter   2:   -76.02499765191592   -5.18785e-02   5.44113e-04 ADIIS/DIIS
   @DF-RHF iter   3:   -76.05794623410470   -3.29486e-02   3.70926e-05 DIIS
   @DF-RHF iter   4:   -76.05836314833115   -4.16914e-04   9.25805e-06 DIIS
   @DF-RHF iter   5:   -76.05839188878338   -2.87405e-05   2.14384e-06 DIIS
   @DF-RHF iter   6:   -76.05839431569804   -2.42691e-06   4.70798e-07 DIIS
   @DF-RHF iter   7:   -76.05839444293299   -1.27235e-07   8.33505e-08 DIIS
   @DF-RHF iter   8:   -76.05839444639052   -3.45753e-09   1.43074e-08 DIIS
   @DF-RHF iter   9:   -76.05839444647263   -8.21103e-11   3.64566e-09 DIIS
  Energy and wave function converged.


  ==> Post-Iterations <==

    Orbital Energies [Eh]
    ---------------------

    Doubly Occupied:                                                      

       1A    -20.570994     2A     -1.343031     3A     -0.705431  
       4A     -0.581539     5A     -0.508728  

    Virtual:                                                              

       6A      0.014162     7A      0.031514     8A      0.032513  
       9A      0.040956    10A      0.053338    11A      0.056681  
      12A      0.060031    13A      0.065404    14A      0.071726  
      15A      0.078968    16A      0.086783    17A      0.098108  
      18A      0.105733    19A      0.121114    20A      0.124479  
      21A      0.131507    22A      0.136609    23A      0.145035  
      24A      0.149853    25A      0.154197    26A      0.160862  
      27A      0.163097    28A      0.164862    29A      0.177104  
      30A      0.183725    31A      0.185954    32A      0.194140  
      33A      0.196302    34A      0.202240    35A      0.206374  
      36A      0.216920    37A      0.222647    38A      0.230691  
      39A      0.235031    40A      0.235502    41A      0.244881  
      42A      0.260748    43A      0.264087    44A      0.268187  
      45A      0.275063    46A      0.284665    47A      0.296302  
      48A      0.304385    49A      0.313635    50A      0.316486  
      51A      0.322263    52A      0.330162    53A      0.334689  
      54A      0.342962    55A      0.347028    56A      0.354710  
      57A      0.358733    58A      0.361681    59A      0.374350  
      60A      0.378739    61A      0.379269    62A      0.381772  
      63A      0.388594    64A      0.393050    65A      0.399767  
      66A      0.404787    67A      0.409433    68A      0.413340  
      69A      0.424495    70A      0.428203    71A      0.432648  
      72A      0.450936    73A      0.458512    74A      0.462894  
      75A      0.471977    76A      0.476080    77A      0.483454  
      78A      0.487694    79A      0.494441    80A      0.503302  
      81A      0.505411    82A      0.517165    83A      0.535216  
      84A      0.539234    85A      0.545209    86A      0.559761  
      87A      0.568653    88A      0.575125    89A      0.598981  
      90A      0.602214    91A      0.623164    92A      0.627812  
      93A      0.636988    94A      0.669194    95A      0.681303  
      96A      0.698130    97A      0.705628    98A      0.716411  
      99A      0.721130   100A      0.728180   101A      0.734635  
     102A      0.736704   103A      0.745148   104A      0.758523  
     105A      0.769217   106A      0.774513   107A      0.779203  
     108A      0.792211   109A      0.794264   110A      0.799728  
     111A      0.807514   112A      0.810313   113A      0.815653  
     114A      0.819284   115A      0.828397   116A      0.833311  
     117A      0.837533   118A      0.851710   119A      0.857480  
     120A      0.860491   121A      0.863013   122A      0.866178  
     123A      0.872248   124A      0.876546   125A      0.882463  
     126A      0.888221   127A      0.890259   128A      0.896218  
     129A      0.902725   130A      0.908411   131A      0.913562  
     132A      0.925217   133A      0.926324   134A      0.930350  
     135A      0.938792   136A      0.941736   137A      0.945146  
     138A      0.949471   139A      0.958925   140A      0.970272  
     141A      0.985674   142A      0.991382   143A      1.001494  
     144A      1.006648   145A      1.013148   146A      1.014969  
     147A      1.024943   148A      1.025694   149A      1.032737  
     150A      1.041377   151A      1.045322   152A      1.052864  
     153A      1.062809   154A      1.064923   155A      1.067775  
     156A      1.076145   157A      1.083909   158A      1.087932  
     159A      1.092346   160A      1.094120   161A      1.103918  
     162A      1.114718   163A      1.116564   164A      1.130680  
     165A      1.138495   166A      1.143250   167A      1.147966  
     168A      1.161929   169A      1.173086   170A      1.191079  
     171A      1.198118   172A      1.201200   173A      1.206906  
     174A      1.215056   175A      1.219163   176A      1.229555  
     177A      1.233527   178A      1.243038   179A      1.252639  
     180A      1.263903   181A      1.270693   182A      1.279265  
     183A      1.288655   184A      1.300491   185A      1.307345  
     186A      1.321162   187A      1.338657   188A      1.343725  
     189A      1.353574   190A      1.361240   191A      1.370808  
     192A      1.383583   193A      1.396389   194A      1.412182  
     195A      1.423843   196A      1.445346   197A      1.452139  
     198A      1.464745   199A      1.472071   200A      1.478493  
     201A      1.486354   202A      1.498427   203A      1.499908  
     204A      1.529916   205A      1.537182   206A      1.550877  
     207A      1.559030   208A      1.569423   209A      1.582144  
     210A      1.603128   211A      1.614544   212A      1.620198  
     213A      1.624023   214A      1.638906   215A      1.646813  
     216A      1.660203   217A      1.674206   218A      1.682183  
     219A      1.696247   220A      1.711285   221A      1.725686  
     222A      1.749245   223A      1.753654   224A      1.773665  
     225A      1.778558   226A      1.780536   227A      1.789484  
     228A      1.797245   229A      1.801609   230A      1.815830  
     231A      1.822798   232A      1.833279   233A      1.847816  
     234A      1.855596   235A      1.859929   236A      1.881449  
     237A      1.887097   238A      1.895614   239A      1.898094  
     240A      1.912708   241A      1.923996   242A      1.935723  
     243A      1.957345   244A      1.961386   245A      1.967605  
     246A      1.982872   247A      1.990923   248A      2.002050  
     249A      2.008128   250A      2.021344   251A      2.043834  
     252A      2.051337   253A      2.063525   254A      2.089924  
     255A      2.109117   256A      2.142893   257A      2.190308  
     258A      2.202168   259A      2.235680   260A      2.249912  
     261A      2.270598   262A      2.312953   263A      2.329976  
     264A      2.358879   265A      2.420403   266A      2.436614  
     267A      2.468213   268A      2.488346   269A      2.497419  
     270A      2.502909   271A      2.511833   272A      2.514943  
     273A      2.517702   274A      2.527317   275A      2.545775  
     276A      2.557683   277A      2.561903   278A      2.566331  
     279A      2.577657   280A      2.586099   281A      2.591532  
     282A      2.606066   283A      2.620073   284A      2.630744  
     285A      2.645321   286A      2.652186   287A      2.659831  
     288A      2.662402   289A      2.668329   290A      2.685122  
     291A      2.691533   292A      2.705213   293A      2.708061  
     294A      2.726935   295A      2.739504   296A      2.756242  
     297A      2.761102   298A      2.770871   299A      2.788211  
     300A      2.807156   301A      2.812755   302A      2.819046  
     303A      2.822414   304A      2.838238   305A      2.849434  
     306A      2.872335   307A      2.883436   308A      2.891196  
     309A      2.898553   310A      2.904747   311A      2.926560  
     312A      2.941397   313A      2.957278   314A      2.990441  
     315A      2.996790   316A      3.023588   317A      3.048744  
     318A      3.062201   319A      3.072643   320A      3.100610  
     321A      3.110342   322A      3.192064   323A      3.194931  
     324A      3.210670   325A      3.219695   326A      3.225837  
     327A      3.242410   328A      3.248272   329A      3.252434  
     330A      3.259851   331A      3.286256   332A      3.301081  
     333A      3.309798   334A      3.342686   335A      3.346444  
     336A      3.364586   337A      3.381121   338A      3.405447  
     339A      3.438662   340A      3.445966   341A      3.461792  
     342A      3.496633   343A      3.497707   344A      3.504336  
     345A      3.538131   346A      3.545504   347A      3.572828  
     348A      3.597458   349A      3.616229   350A      3.624698  
     351A      3.649117   352A      3.658342   353A      3.680112  
     354A      3.729042   355A      3.742609   356A      3.750240  
     357A      3.765875   358A      3.791406   359A      3.808275  
     360A      3.856648   361A      3.874338   362A      3.890603  
     363A      3.920013   364A      3.966333   365A      4.057311  
     366A      4.097751   367A      4.131483   368A      4.147921  
     369A      4.163610   370A      4.192786   371A      4.233528  
     372A      4.263197   373A      4.281495   374A      4.308605  
     375A      4.325809   376A      4.375454   377A      4.398370  
     378A      4.402564   379A      4.416490   380A      4.421725  
     381A      4.437475   382A      4.448792   383A      4.455728  
     384A      4.474419   385A      4.491284   386A      4.496016  
     387A      4.502494   388A      4.516167   389A      4.527639  
     390A      4.556225   391A      4.564337   392A      4.568241  
     393A      4.608684   394A      4.614738   395A      4.631166  
     396A      4.637322   397A      4.641930   398A      4.653460  
     399A      4.667894   400A      4.684864   401A      4.692436  
     402A      4.698754   403A      4.722155   404A      4.753210  
     405A      4.764267   406A      4.773019   407A      4.789959  
     408A      4.812584   409A      4.831519   410A      4.890463  
     411A      4.895166   412A      4.906607   413A      4.928703  
     414A      4.937093   415A      4.949480   416A      4.952962  
     417A      4.977112   418A      4.990724   419A      5.001592  
     420A      5.019088   421A      5.031491   422A      5.044471  
     423A      5.052666   424A      5.088830   425A      5.124194  
     426A      5.137802   427A      5.143767   428A      5.172936  
     429A      5.176977   430A      5.184820   431A      5.229628  
     432A      5.262643   433A      5.298651   434A      5.321662  
     435A      5.341028   436A      5.356930   437A      5.370974  
     438A      5.388172   439A      5.428621   440A      5.489939  
     441A      5.501620   442A      5.540292   443A      5.544600  
     444A      5.550940   445A      5.558489   446A      5.572979  
     447A      5.587070   448A      5.588089   449A      5.599303  
     450A      5.626506   451A      5.648135   452A      5.663925  
     453A      5.693521   454A      5.710912   455A      5.733858  
     456A      5.766556   457A      5.840304   458A      5.861283  
     459A      5.889234   460A      5.923460   461A      5.928269  
     462A      6.177737   463A      6.201432   464A      6.239593  
     465A      6.290307   466A      6.315482   467A      6.338269  
     468A      6.408523   469A      6.456672   470A      6.463484  
     471A      6.518957   472A      6.540489   473A      6.574295  
     474A      6.684613   475A      6.704011   476A      6.727394  
     477A      6.758243   478A      6.801435   479A      6.862786  
     480A      6.945074   481A      7.045966   482A      7.078780  
     483A      7.085716   484A      7.112735   485A      7.121574  
     486A      7.224388   487A      7.310672   488A      7.350764  
     489A      7.356657   490A      7.411753   491A      7.521385  
     492A      7.678176   493A      7.742171   494A      7.754626  
     495A      7.756813   496A      7.762320   497A      7.795727  
     498A      7.818663   499A      7.820489   500A      7.856122  
     501A      7.861883   502A      7.883357   503A      7.957920  
     504A      7.992547   505A      8.053054   506A      8.075671  
     507A      8.090277   508A      8.134470   509A      8.163165  
     510A      8.210612   511A      8.233754   512A      8.245703  
     513A      8.258914   514A      8.264526   515A      8.290792  
     516A      8.309356   517A      8.314001   518A      8.334900  
     519A      8.365704   520A      8.722193   521A      8.752472  
     522A      8.760832   523A      8.780067   524A      8.805572  
     525A      8.823112   526A      8.879385   527A      8.948456  
     528A      8.991312   529A      9.015692   530A      9.080552  
     531A      9.713038   532A      9.738164   533A      9.773786  
     534A      9.787008   535A      9.817159   536A      9.870783  
     537A      9.884027   538A      9.895611   539A      9.913172  
     540A      9.932323   541A     10.061978   542A     10.099452  
     543A     10.104521   544A     10.126443   545A     10.144177  
     546A     10.272396   547A     10.303130   548A     10.333367  
     549A     10.350068   550A     10.389656   551A     10.442772  
     552A     10.521949   553A     10.543579   554A     10.572444  
     555A     10.598560   556A     10.728752   557A     10.779616  
     558A     11.046816   559A     11.095310   560A     11.172925  
     561A     11.212918   562A     11.231318   563A     11.606054  
     564A     11.736465   565A     11.766959   566A     11.785211  
     567A     11.815130   568A     11.881460   569A     12.135609  
     570A     12.196061   571A     12.230415   572A     12.245728  
     573A     12.567713   574A     13.311498   575A     13.344643  
     576A     13.420385   577A     13.505651   578A     13.559584  
     579A     13.583639   580A     13.591863   581A     13.621039  
     582A     13.659600   583A     13.698037   584A     13.986513  
     585A     14.000688   586A     14.026652   587A     14.069376  
     588A     14.088704   589A     15.218163   590A     15.338174  
     591A     15.445098   592A     16.200231   593A     65.340813  
     594A     65.614467   595A     66.337561   596A     66.648311  
     597A     67.147660   598A     75.096161  

    Final Occupation by Irrep:
              A 
    DOCC [     5 ]
    NA   [     5 ]
    NB   [     5 ]

  @DF-RHF Final Energy:   -76.05839444647263

   => Energetics <=

    Nuclear Repulsion Energy =              8.9947839768045927
    One-Electron Energy =                -122.6869059234954591
    Two-Electron Energy =                  37.6337275002182210
    Total Energy =                        -76.0583944464726471

Computation Completed


Properties will be evaluated at   0.000000,   0.000000,   0.000000 [a0]

Properties computed using the SCF density matrix


 Multipole Moments:

 ------------------------------------------------------------------------------------
     Multipole            Electronic (a.u.)      Nuclear  (a.u.)        Total (a.u.)
 ------------------------------------------------------------------------------------

 L = 1.  Multiply by 2.5417464519 to convert [e a0] to [Debye]
 Dipole X            :         23.0980448          -22.7505489            0.3474959
 Dipole Y            :         49.5052578          -49.1506975            0.3545603
 Dipole Z            :         -9.3995430            8.7861966           -0.6133465
 Magnitude           :                                                    0.7890882

 ------------------------------------------------------------------------------------

*** tstop() called on ddmfs1 at Mon Jan 22 16:51:09 2024
Module time:
	user time   =     126.48 seconds =       2.11 minutes
	system time =       5.63 seconds =       0.09 minutes
	total time  =          8 seconds =       0.13 minutes
Total time:
	user time   =     126.48 seconds =       2.11 minutes
	system time =       5.63 seconds =       0.09 minutes
	total time  =          8 seconds =       0.13 minutes

*** tstart() called on ddmfs1
*** at Mon Jan 22 16:51:09 2024


  //>>>>>>>>>>>>>>>>>>>>>>>>>>>>>>>>>>>//
  //               DFMP2               //
  //<<<<<<<<<<<<<<<<<<<<<<<<<<<<<<<<<<<//

   => Loading Basis Set <=

    Name: (AUG-CC-PVTZ AUX)
    Role: RIFIT
    Keyword: DF_BASIS_MP2
    atoms 1                                   entry F          line   322 file /ddmfs1b/softs/psi4conda/share/psi4/basis/aug-cc-pvtz-ri.gbs 
    atoms 2, 5, 8, 11, 14, 17                 entry O          line   264 file /ddmfs1b/softs/psi4conda/share/psi4/basis/aug-cc-pvtz-ri.gbs 
    atoms 3-4, 6-7, 9-10, 12-13, 15-16, 18-19 entry H          line    30 file /ddmfs1b/softs/psi4conda/share/psi4/basis/aug-cc-pvtz-ri.gbs 

	 --------------------------------------------------------
	                          DF-MP2                         
	      2nd-Order Density-Fitted Moller-Plesset Theory     
	              RMP2 Wavefunction,  20 Threads             
	                                                         
	        Rob Parrish, Justin Turney, Andy Simmonett,      
	           Ed Hohenstein, and C. David Sherrill          
	 --------------------------------------------------------

   => Auxiliary Basis Set <=

  Basis Set: (AUG-CC-PVTZ AUX)
    Blend: AUG-CC-PVTZ-RI
    Number of shells: 364
    Number of basis functions: 1294
    Number of Cartesian functions: 1612
    Spherical Harmonics?: true
    Max angular momentum: 4

	 --------------------------------------------------------
	                 NBF =   598, NAUX =  1294
	 --------------------------------------------------------
	   CLASS    FOCC     OCC    AOCC    AVIR     VIR    FVIR
	   PAIRS       0       5       5     593     593       0
	 --------------------------------------------------------

	-----------------------------------------------------------
	 ==================> DF-MP2 Energies <==================== 
	-----------------------------------------------------------
	 Reference Energy          =     -76.0583944464726329 [Eh]
	 Singles Energy            =      -0.0000000000000000 [Eh]
	 Same-Spin Energy          =      -0.0687863225903841 [Eh]
	 Opposite-Spin Energy      =      -0.2171319254168839 [Eh]
	 Correlation Energy        =      -0.2859182480072681 [Eh]
	 Total Energy              =     -76.3443126944798962 [Eh]
	-----------------------------------------------------------
	 ================> DF-SCS-MP2 Energies <================== 
	-----------------------------------------------------------
	 SCS Same-Spin Scale       =       0.3333333333333333 [-]
	 SCS Opposite-Spin Scale   =       1.2000000000000000 [-]
	 SCS Same-Spin Energy      =      -0.0229287741967947 [Eh]
	 SCS Opposite-Spin Energy  =      -0.2605583105002607 [Eh]
	 SCS Correlation Energy    =      -0.2834870846970554 [Eh]
	 SCS Total Energy          =     -76.3418815311696903 [Eh]
	-----------------------------------------------------------


*** tstop() called on ddmfs1 at Mon Jan 22 16:51:14 2024
Module time:
	user time   =      32.53 seconds =       0.54 minutes
	system time =       1.94 seconds =       0.03 minutes
	total time  =          5 seconds =       0.08 minutes
Total time:
	user time   =     159.03 seconds =       2.65 minutes
	system time =       7.57 seconds =       0.13 minutes
	total time  =         13 seconds =       0.22 minutes

    Psi4 stopped on: Monday, 22 January 2024 04:51PM
    Psi4 wall time for execution: 0:00:13.22

*** Psi4 exiting successfully. Buy a developer a beer!
