
    -----------------------------------------------------------------------
          Psi4: An Open-Source Ab Initio Electronic Structure Package
                               Psi4 1.8.2 release

                         Git: Rev {} zzzzzzz 


    D. G. A. Smith, L. A. Burns, A. C. Simmonett, R. M. Parrish,
    M. C. Schieber, R. Galvelis, P. Kraus, H. Kruse, R. Di Remigio,
    A. Alenaizan, A. M. James, S. Lehtola, J. P. Misiewicz, M. Scheurer,
    R. A. Shaw, J. B. Schriber, Y. Xie, Z. L. Glick, D. A. Sirianni,
    J. S. O'Brien, J. M. Waldrop, A. Kumar, E. G. Hohenstein,
    B. P. Pritchard, B. R. Brooks, H. F. Schaefer III, A. Yu. Sokolov,
    K. Patkowski, A. E. DePrince III, U. Bozkaya, R. A. King,
    F. A. Evangelista, J. M. Turney, T. D. Crawford, C. D. Sherrill,
    J. Chem. Phys. 152(18) 184108 (2020). https://doi.org/10.1063/5.0006002

                            Additional Code Authors
    E. T. Seidl, C. L. Janssen, E. F. Valeev, M. L. Leininger,
    J. F. Gonthier, R. M. Richard, H. R. McAlexander, M. Saitow, X. Wang,
    P. Verma, M. H. Lechner, A. Jiang, S. Behnle, A. G. Heide,
    M. F. Herbst, and D. L. Poole

             Previous Authors, Complete List of Code Contributors,
                       and Citations for Specific Modules
    https://github.com/psi4/psi4/blob/master/codemeta.json
    https://github.com/psi4/psi4/graphs/contributors
    http://psicode.org/psi4manual/master/introduction.html#citing-psifour

    -----------------------------------------------------------------------


    Psi4 started on: Monday, 22 January 2024 06:46PM

    Process ID: 92876
    Host:       ddmfs1
    PSIDATADIR: /ddmfs1b/softs/psi4conda/share/psi4
    Memory:     500.0 MiB
    Threads:    20
    
  ==> Input File <==

--------------------------------------------------------------------------
MEMORY 60 GB

molecule dimer {
-1 1
F          0.000000     0.000000     0.000000
Gh(O)     -0.403439     1.183217     2.402459
Gh(H)     -0.368174     0.518223     1.697033
Gh(H)      0.232895     0.753495     2.947123
Gh(O)      2.303742    -1.250421     0.525025
Gh(H)      1.490227    -0.788707     0.531894
Gh(H)      2.843314    -1.105727     1.310304
Gh(O)     -2.398892     1.650841    -0.051992
Gh(H)     -1.675125     0.929581     0.042817
Gh(H)     -2.902495     1.553309     0.752774
Gh(O)     -1.481475    -2.214462    -0.034526
Gh(H)     -0.810065    -1.515855    -0.061717
Gh(H)     -1.006129    -3.009721    -0.410769
Gh(O)     -0.656255     0.245235    -2.745367
Gh(H)     -0.053838    -0.438387    -3.118900
Gh(H)     -0.449334     0.215360    -1.787135

units ang
no_reorient
no_com
symmetry c1
}

set {
basis        aug-cc-pVTZ
scf_type     df
}

energy("mp2")
--------------------------------------------------------------------------

  Memory set to  55.879 GiB by Python driver.

Scratch directory: /ddmfs1a/scratch/
   => Libint2 <=

    Primary   basis highest AM E, G, H:  5, 4, 3
    Auxiliary basis highest AM E, G, H:  6, 5, 4
    Onebody   basis highest AM E, G, H:  6, 5, 4
    Solid Harmonics ordering:            gaussian

*** tstart() called on ddmfs1
*** at Mon Jan 22 18:46:58 2024

   => Loading Basis Set <=

    Name: AUG-CC-PVTZ
    Role: ORBITAL
    Keyword: BASIS
    atoms 1                            entry F          line   377 file /ddmfs1b/softs/psi4conda/share/psi4/basis/aug-cc-pvtz.gbs 
    atoms 2, 5, 8, 11, 14              entry O          line   331 file /ddmfs1b/softs/psi4conda/share/psi4/basis/aug-cc-pvtz.gbs 
    atoms 3-4, 6-7, 9-10, 12-13, 15-16 entry H          line    40 file /ddmfs1b/softs/psi4conda/share/psi4/basis/aug-cc-pvtz.gbs 


         ---------------------------------------------------------
                                   SCF
               by Justin Turney, Rob Parrish, Andy Simmonett
                          and Daniel G. A. Smith
                              RHF Reference
                       20 Threads,  57220 MiB Core
         ---------------------------------------------------------

  ==> Geometry <==

    Molecular point group: c1
    Full point group: C1

    Geometry (in Angstrom), charge = -1, multiplicity = 1:

       Center              X                  Y                   Z               Mass       
    ------------   -----------------  -----------------  -----------------  -----------------
         F            0.000000000000     0.000000000000     0.000000000000    18.998403162730
      Gh(O)          -0.403439000000     1.183217000000     2.402459000000    15.994914619570
      Gh(H)          -0.368174000000     0.518223000000     1.697033000000     1.007825032230
      Gh(H)           0.232895000000     0.753495000000     2.947123000000     1.007825032230
      Gh(O)           2.303742000000    -1.250421000000     0.525025000000    15.994914619570
      Gh(H)           1.490227000000    -0.788707000000     0.531894000000     1.007825032230
      Gh(H)           2.843314000000    -1.105727000000     1.310304000000     1.007825032230
      Gh(O)          -2.398892000000     1.650841000000    -0.051992000000    15.994914619570
      Gh(H)          -1.675125000000     0.929581000000     0.042817000000     1.007825032230
      Gh(H)          -2.902495000000     1.553309000000     0.752774000000     1.007825032230
      Gh(O)          -1.481475000000    -2.214462000000    -0.034526000000    15.994914619570
      Gh(H)          -0.810065000000    -1.515855000000    -0.061717000000     1.007825032230
      Gh(H)          -1.006129000000    -3.009721000000    -0.410769000000     1.007825032230
      Gh(O)          -0.656255000000     0.245235000000    -2.745367000000    15.994914619570
      Gh(H)          -0.053838000000    -0.438387000000    -3.118900000000     1.007825032230
      Gh(H)          -0.449334000000     0.215360000000    -1.787135000000     1.007825032230

  Running in c1 symmetry.

  Rotational constants: A =      0.04475  B =      0.03994  C =      0.03024 [cm^-1]
  Rotational constants: A =   1341.48854  B =   1197.23466  C =    906.49082 [MHz]
  Nuclear repulsion =    0.000000000000000

  Charge       = -1
  Multiplicity = 1
  Electrons    = 10
  Nalpha       = 5
  Nbeta        = 5

  ==> Algorithm <==

  SCF Algorithm Type is DF.
  DIIS enabled.
  MOM disabled.
  Fractional occupation disabled.
  Guess Type is SAD.
  Energy threshold   = 1.00e-08
  Density threshold  = 1.00e-08
  Integral threshold = 1.00e-12

  ==> Primary Basis <==

  Basis Set: AUG-CC-PVTZ
    Blend: AUG-CC-PVTZ
    Number of shells: 174
    Number of basis functions: 506
    Number of Cartesian functions: 580
    Spherical Harmonics?: true
    Max angular momentum: 3

   => Loading Basis Set <=

    Name: (AUG-CC-PVTZ AUX)
    Role: JKFIT
    Keyword: DF_BASIS_SCF
    atoms 1                            entry F          line   348 file /ddmfs1b/softs/psi4conda/share/psi4/basis/aug-cc-pvtz-jkfit.gbs 
    atoms 2, 5, 8, 11, 14              entry O          line   286 file /ddmfs1b/softs/psi4conda/share/psi4/basis/aug-cc-pvtz-jkfit.gbs 
    atoms 3-4, 6-7, 9-10, 12-13, 15-16 entry H          line    70 file /ddmfs1b/softs/psi4conda/share/psi4/basis/aug-cc-pvtz-jkfit.gbs 

  ==> Integral Setup <==

  DFHelper Memory: AOs need 1.973 GiB; user supplied 41.910 GiB. 
  Using in-core AOs.

  ==> MemDFJK: Density-Fitted J/K Matrices <==

    J tasked:                   Yes
    K tasked:                   Yes
    wK tasked:                   No
    OpenMP threads:              20
    Memory [MiB]:             42915
    Algorithm:                 Core
    Schwarz Cutoff:           1E-12
    Mask sparsity (%):       9.3698
    Fitting Condition:        1E-10

   => Auxiliary Basis Set <=

  Basis Set: (AUG-CC-PVTZ AUX)
    Blend: AUG-CC-PVTZ-JKFIT
    Number of shells: 320
    Number of basis functions: 1084
    Number of Cartesian functions: 1336
    Spherical Harmonics?: true
    Max angular momentum: 4

  Minimum eigenvalue in the overlap matrix is 6.5522411880E-05.
  Reciprocal condition number of the overlap matrix is 4.6721254412E-06.
    Using symmetric orthogonalization.

  ==> Pre-Iterations <==

  SCF Guess: Superposition of Atomic Densities via on-the-fly atomic UHF (no occupation information).

   -------------------------
    Irrep   Nso     Nmo    
   -------------------------
     A        506     506 
   -------------------------
    Total     506     506
   -------------------------

  ==> Iterations <==

                           Total Energy        Delta E     RMS |[F,P]|

   @DF-RHF iter SAD:   -98.82535124208542   -9.88254e+01   0.00000e+00 
   @DF-RHF iter   1:   -99.33799567769991   -5.12644e-01   1.07898e-03 DIIS/ADIIS
   @DF-RHF iter   2:   -99.37296582833945   -3.49702e-02   1.05503e-03 DIIS/ADIIS
   @DF-RHF iter   3:   -99.45103446851088   -7.80686e-02   3.74274e-05 DIIS
   @DF-RHF iter   4:   -99.45111202362877   -7.75551e-05   1.31061e-05 DIIS
   @DF-RHF iter   5:   -99.45112314818486   -1.11246e-05   8.23550e-07 DIIS
   @DF-RHF iter   6:   -99.45112324941702   -1.01232e-07   8.11868e-08 DIIS
   @DF-RHF iter   7:   -99.45112325058935   -1.17232e-09   1.00340e-08 DIIS
   @DF-RHF iter   8:   -99.45112325061706   -2.77112e-11   1.08379e-09 DIIS
  Energy and wave function converged.


  ==> Post-Iterations <==

    Orbital Energies [Eh]
    ---------------------

    Doubly Occupied:                                                      

       1A    -25.833573     2A     -1.075884     3A     -0.180925  
       4A     -0.180913     5A     -0.180875  

    Virtual:                                                              

       6A      0.124654     7A      0.128522     8A      0.133947  
       9A      0.141656    10A      0.145178    11A      0.172318  
      12A      0.182342    13A      0.193046    14A      0.195905  
      15A      0.204099    16A      0.243898    17A      0.249339  
      18A      0.262833    19A      0.263774    20A      0.265597  
      21A      0.276373    22A      0.280323    23A      0.284087  
      24A      0.289119    25A      0.290574    26A      0.300416  
      27A      0.311660    28A      0.317923    29A      0.321958  
      30A      0.326004    31A      0.340069    32A      0.351793  
      33A      0.357854    34A      0.369233    35A      0.378526  
      36A      0.396748    37A      0.413374    38A      0.427576  
      39A      0.432545    40A      0.440870    41A      0.446422  
      42A      0.457457    43A      0.463099    44A      0.466729  
      45A      0.479215    46A      0.486465    47A      0.494249  
      48A      0.499174    49A      0.503776    50A      0.514597  
      51A      0.519107    52A      0.524385    53A      0.530568  
      54A      0.531880    55A      0.537505    56A      0.539851  
      57A      0.553332    58A      0.564446    59A      0.568458  
      60A      0.580191    61A      0.590802    62A      0.597603  
      63A      0.613185    64A      0.621267    65A      0.637014  
      66A      0.651788    67A      0.660207    68A      0.667601  
      69A      0.690784    70A      0.697220    71A      0.717801  
      72A      0.726019    73A      0.758545    74A      0.779606  
      75A      0.800113    76A      0.822152    77A      0.831521  
      78A      0.847489    79A      0.859574    80A      0.864515  
      81A      0.873549    82A      0.881381    83A      0.894514  
      84A      0.905220    85A      0.908596    86A      0.923475  
      87A      0.930091    88A      0.936058    89A      0.943743  
      90A      0.957826    91A      0.961244    92A      0.966241  
      93A      0.970060    94A      0.975378    95A      0.981723  
      96A      0.986938    97A      0.995055    98A      1.003430  
      99A      1.011580   100A      1.015517   101A      1.022804  
     102A      1.029862   103A      1.035938   104A      1.041288  
     105A      1.046724   106A      1.051588   107A      1.058368  
     108A      1.072125   109A      1.079862   110A      1.082017  
     111A      1.088508   112A      1.094409   113A      1.105572  
     114A      1.112718   115A      1.117895   116A      1.126440  
     117A      1.133093   118A      1.142492   119A      1.147812  
     120A      1.150181   121A      1.155270   122A      1.166940  
     123A      1.173978   124A      1.176097   125A      1.183436  
     126A      1.192670   127A      1.197666   128A      1.204565  
     129A      1.218850   130A      1.227901   131A      1.229879  
     132A      1.241289   133A      1.249913   134A      1.251972  
     135A      1.272855   136A      1.288266   137A      1.296971  
     138A      1.300081   139A      1.308695   140A      1.316486  
     141A      1.325905   142A      1.340500   143A      1.350737  
     144A      1.358384   145A      1.371116   146A      1.385237  
     147A      1.398012   148A      1.413767   149A      1.423901  
     150A      1.437722   151A      1.455975   152A      1.457612  
     153A      1.465308   154A      1.473568   155A      1.497673  
     156A      1.512866   157A      1.524614   158A      1.535352  
     159A      1.541969   160A      1.555339   161A      1.582052  
     162A      1.605442   163A      1.609882   164A      1.615050  
     165A      1.645253   166A      1.664350   167A      1.678255  
     168A      1.686840   169A      1.701991   170A      1.723702  
     171A      1.732395   172A      1.743564   173A      1.775592  
     174A      1.784726   175A      1.802402   176A      1.808356  
     177A      1.836227   178A      1.846874   179A      1.871826  
     180A      1.881710   181A      1.894449   182A      1.901477  
     183A      1.911756   184A      1.919352   185A      1.934386  
     186A      1.949346   187A      1.953865   188A      1.965669  
     189A      1.977833   190A      1.991249   191A      2.000715  
     192A      2.014514   193A      2.023093   194A      2.036431  
     195A      2.046354   196A      2.049275   197A      2.058014  
     198A      2.062031   199A      2.076490   200A      2.081989  
     201A      2.107936   202A      2.120399   203A      2.135492  
     204A      2.166303   205A      2.180234   206A      2.181162  
     207A      2.211769   208A      2.213273   209A      2.229218  
     210A      2.251852   211A      2.278721   212A      2.283679  
     213A      2.306645   214A      2.372798   215A      2.424717  
     216A      2.458265   217A      2.484447   218A      2.539193  
     219A      2.599925   220A      2.617979   221A      2.630880  
     222A      2.646524   223A      2.660326   224A      2.664224  
     225A      2.676780   226A      2.679359   227A      2.699835  
     228A      2.703837   229A      2.710256   230A      2.714331  
     231A      2.722458   232A      2.732736   233A      2.740164  
     234A      2.746921   235A      2.756069   236A      2.772559  
     237A      2.793310   238A      2.803040   239A      2.826685  
     240A      2.837509   241A      2.849171   242A      2.849907  
     243A      2.867071   244A      2.874367   245A      2.884531  
     246A      2.892191   247A      2.915340   248A      2.919794  
     249A      2.923070   250A      2.942548   251A      2.966024  
     252A      2.981846   253A      2.995833   254A      3.001736  
     255A      3.016611   256A      3.031820   257A      3.054794  
     258A      3.076909   259A      3.121142   260A      3.127201  
     261A      3.169912   262A      3.182049   263A      3.199573  
     264A      3.222613   265A      3.240036   266A      3.253290  
     267A      3.284802   268A      3.350696   269A      3.363413  
     270A      3.378946   271A      3.391139   272A      3.394157  
     273A      3.401122   274A      3.420145   275A      3.439084  
     276A      3.443918   277A      3.462229   278A      3.488813  
     279A      3.517478   280A      3.533526   281A      3.562671  
     282A      3.610019   283A      3.613117   284A      3.629733  
     285A      3.664062   286A      3.680686   287A      3.697385  
     288A      3.711242   289A      3.722962   290A      3.732853  
     291A      3.747123   292A      3.760796   293A      3.787011  
     294A      3.805482   295A      3.814192   296A      3.840289  
     297A      3.867601   298A      3.892761   299A      3.900067  
     300A      3.908817   301A      3.933360   302A      3.948089  
     303A      3.957715   304A      3.985539   305A      4.005225  
     306A      4.036979   307A      4.098203   308A      4.120006  
     309A      4.138884   310A      4.145428   311A      4.198411  
     312A      4.299882   313A      4.401416   314A      4.458654  
     315A      4.507119   316A      4.606160   317A      4.620876  
     318A      4.627458   319A      4.650981   320A      4.653633  
     321A      4.659928   322A      4.666355   323A      4.678312  
     324A      4.688455   325A      4.734512   326A      4.801660  
     327A      4.822160   328A      4.833794   329A      4.842748  
     330A      4.870724   331A      4.875473   332A      4.900814  
     333A      4.908248   334A      4.912277   335A      4.917619  
     336A      4.927075   337A      4.934863   338A      4.957439  
     339A      4.984977   340A      5.032610   341A      5.053395  
     342A      5.095270   343A      5.105538   344A      5.110523  
     345A      5.127822   346A      5.156125   347A      5.168646  
     348A      5.192619   349A      5.242032   350A      5.253945  
     351A      5.280758   352A      5.297816   353A      5.314984  
     354A      5.319860   355A      5.325295   356A      5.346640  
     357A      5.394623   358A      5.421117   359A      5.467590  
     360A      5.493119   361A      5.533671   362A      5.576824  
     363A      5.603412   364A      5.633348   365A      5.668521  
     366A      5.703386   367A      5.738208   368A      5.745634  
     369A      5.774046   370A      5.781079   371A      5.799739  
     372A      5.804446   373A      5.842385   374A      5.859526  
     375A      5.886604   376A      5.910221   377A      5.964233  
     378A      5.980986   379A      6.015044   380A      6.045090  
     381A      6.064116   382A      6.090754   383A      6.104279  
     384A      6.129697   385A      6.264986   386A      6.332505  
     387A      6.357008   388A      6.433459   389A      6.442501  
     390A      6.466892   391A      6.500930   392A      6.597640  
     393A      6.645098   394A      6.658947   395A      6.719147  
     396A      6.799207   397A      6.807096   398A      6.852102  
     399A      6.879197   400A      6.969252   401A      7.048425  
     402A      7.134563   403A      7.146309   404A      7.239210  
     405A      7.270509   406A      7.287456   407A      7.373726  
     408A      7.464970   409A      7.910753   410A      7.929978  
     411A      7.966245   412A      7.976037   413A      7.990465  
     414A      8.038005   415A      8.051885   416A      8.065540  
     417A      8.089440   418A      8.222879   419A      8.232180  
     420A      8.244719   421A      8.265961   422A      8.281053  
     423A      8.336851   424A      8.341523   425A      8.355871  
     426A      8.377381   427A      8.381678   428A      8.454382  
     429A      8.466617   430A      8.497587   431A      8.522853  
     432A      8.548753   433A      8.622757   434A      8.907249  
     435A      8.941893   436A      8.952705   437A      9.057111  
     438A      9.085062   439A      9.086360   440A      9.157731  
     441A      9.201754   442A      9.245568   443A      9.457298  
     444A      9.509114   445A      9.628866   446A      9.701333  
     447A      9.754880   448A      9.861156   449A      9.894015  
     450A      9.895984   451A      9.929992   452A      9.958065  
     453A      9.983998   454A     10.010479   455A     10.045703  
     456A     10.081728   457A     10.095453   458A     10.109946  
     459A     10.124911   460A     10.136648   461A     10.185400  
     462A     10.199921   463A     10.241602   464A     10.278014  
     465A     10.290746   466A     10.327862   467A     10.330189  
     468A     10.345004   469A     10.384010   470A     10.453403  
     471A     10.529358   472A     10.570112   473A     10.597748  
     474A     10.632212   475A     10.645637   476A     11.274501  
     477A     11.319345   478A     11.363875   479A     11.450833  
     480A     11.612403   481A     11.951311   482A     11.985897  
     483A     12.020380   484A     12.045062   485A     12.083369  
     486A     12.238378   487A     12.363807   488A     12.509105  
     489A     12.579508   490A     12.710713   491A     13.712560  
     492A     13.749768   493A     13.796958   494A     13.981284  
     495A     13.991505   496A     14.156519   497A     14.210192  
     498A     14.221963   499A     14.262097   500A     14.304173  
     501A     16.223241   502A     65.302459   503A     66.227860  
     504A     66.657887   505A     67.064849   506A     68.624206  

    Final Occupation by Irrep:
              A 
    DOCC [     5 ]
    NA   [     5 ]
    NB   [     5 ]

  @DF-RHF Final Energy:   -99.45112325061706

   => Energetics <=

    Nuclear Repulsion Energy =              0.0000000000000000
    One-Electron Energy =                -143.9979045050206139
    Two-Electron Energy =                  44.5467812544035553
    Total Energy =                        -99.4511232506170586

Computation Completed


Properties will be evaluated at   0.000000,   0.000000,   0.000000 [a0]

Properties computed using the SCF density matrix


 Multipole Moments:

 ------------------------------------------------------------------------------------
     Multipole            Electronic (a.u.)      Nuclear  (a.u.)        Total (a.u.)
 ------------------------------------------------------------------------------------

 L = 1.  Multiply by 2.5417464519 to convert [e a0] to [Debye]
 Dipole X            :         -0.0001927            0.0000000           -0.0001927
 Dipole Y            :         -0.0001744            0.0000000           -0.0001744
 Dipole Z            :          0.0000051            0.0000000            0.0000051
 Magnitude           :                                                    0.0002600

 ------------------------------------------------------------------------------------

*** tstop() called on ddmfs1 at Mon Jan 22 18:47:03 2024
Module time:
	user time   =      80.74 seconds =       1.35 minutes
	system time =       3.77 seconds =       0.06 minutes
	total time  =          5 seconds =       0.08 minutes
Total time:
	user time   =      80.74 seconds =       1.35 minutes
	system time =       3.77 seconds =       0.06 minutes
	total time  =          5 seconds =       0.08 minutes

*** tstart() called on ddmfs1
*** at Mon Jan 22 18:47:03 2024


  //>>>>>>>>>>>>>>>>>>>>>>>>>>>>>>>>>>>//
  //               DFMP2               //
  //<<<<<<<<<<<<<<<<<<<<<<<<<<<<<<<<<<<//

   => Loading Basis Set <=

    Name: (AUG-CC-PVTZ AUX)
    Role: RIFIT
    Keyword: DF_BASIS_MP2
    atoms 1                            entry F          line   322 file /ddmfs1b/softs/psi4conda/share/psi4/basis/aug-cc-pvtz-ri.gbs 
    atoms 2, 5, 8, 11, 14              entry O          line   264 file /ddmfs1b/softs/psi4conda/share/psi4/basis/aug-cc-pvtz-ri.gbs 
    atoms 3-4, 6-7, 9-10, 12-13, 15-16 entry H          line    30 file /ddmfs1b/softs/psi4conda/share/psi4/basis/aug-cc-pvtz-ri.gbs 

	 --------------------------------------------------------
	                          DF-MP2                         
	      2nd-Order Density-Fitted Moller-Plesset Theory     
	              RMP2 Wavefunction,  20 Threads             
	                                                         
	        Rob Parrish, Justin Turney, Andy Simmonett,      
	           Ed Hohenstein, and C. David Sherrill          
	 --------------------------------------------------------

   => Auxiliary Basis Set <=

  Basis Set: (AUG-CC-PVTZ AUX)
    Blend: AUG-CC-PVTZ-RI
    Number of shells: 308
    Number of basis functions: 1096
    Number of Cartesian functions: 1366
    Spherical Harmonics?: true
    Max angular momentum: 4

	 --------------------------------------------------------
	                 NBF =   506, NAUX =  1096
	 --------------------------------------------------------
	   CLASS    FOCC     OCC    AOCC    AVIR     VIR    FVIR
	   PAIRS       0       5       5     501     501       0
	 --------------------------------------------------------

	-----------------------------------------------------------
	 ==================> DF-MP2 Energies <==================== 
	-----------------------------------------------------------
	 Reference Energy          =     -99.4511232506170586 [Eh]
	 Singles Energy            =      -0.0000000000000000 [Eh]
	 Same-Spin Energy          =      -0.0820843113880440 [Eh]
	 Opposite-Spin Energy      =      -0.2304157266405831 [Eh]
	 Correlation Energy        =      -0.3125000380286271 [Eh]
	 Total Energy              =     -99.7636232886456895 [Eh]
	-----------------------------------------------------------
	 ================> DF-SCS-MP2 Energies <================== 
	-----------------------------------------------------------
	 SCS Same-Spin Scale       =       0.3333333333333333 [-]
	 SCS Opposite-Spin Scale   =       1.2000000000000000 [-]
	 SCS Same-Spin Energy      =      -0.0273614371293480 [Eh]
	 SCS Opposite-Spin Energy  =      -0.2764988719686998 [Eh]
	 SCS Correlation Energy    =      -0.3038603090980477 [Eh]
	 SCS Total Energy          =     -99.7549835597151002 [Eh]
	-----------------------------------------------------------


*** tstop() called on ddmfs1 at Mon Jan 22 18:47:06 2024
Module time:
	user time   =      23.77 seconds =       0.40 minutes
	system time =       1.23 seconds =       0.02 minutes
	total time  =          3 seconds =       0.05 minutes
Total time:
	user time   =     104.53 seconds =       1.74 minutes
	system time =       5.00 seconds =       0.08 minutes
	total time  =          8 seconds =       0.13 minutes

    Psi4 stopped on: Monday, 22 January 2024 06:47PM
    Psi4 wall time for execution: 0:00:08.65

*** Psi4 exiting successfully. Buy a developer a beer!
