
    -----------------------------------------------------------------------
          Psi4: An Open-Source Ab Initio Electronic Structure Package
                               Psi4 1.8.2 release

                         Git: Rev {} zzzzzzz 


    D. G. A. Smith, L. A. Burns, A. C. Simmonett, R. M. Parrish,
    M. C. Schieber, R. Galvelis, P. Kraus, H. Kruse, R. Di Remigio,
    A. Alenaizan, A. M. James, S. Lehtola, J. P. Misiewicz, M. Scheurer,
    R. A. Shaw, J. B. Schriber, Y. Xie, Z. L. Glick, D. A. Sirianni,
    J. S. O'Brien, J. M. Waldrop, A. Kumar, E. G. Hohenstein,
    B. P. Pritchard, B. R. Brooks, H. F. Schaefer III, A. Yu. Sokolov,
    K. Patkowski, A. E. DePrince III, U. Bozkaya, R. A. King,
    F. A. Evangelista, J. M. Turney, T. D. Crawford, C. D. Sherrill,
    J. Chem. Phys. 152(18) 184108 (2020). https://doi.org/10.1063/5.0006002

                            Additional Code Authors
    E. T. Seidl, C. L. Janssen, E. F. Valeev, M. L. Leininger,
    J. F. Gonthier, R. M. Richard, H. R. McAlexander, M. Saitow, X. Wang,
    P. Verma, M. H. Lechner, A. Jiang, S. Behnle, A. G. Heide,
    M. F. Herbst, and D. L. Poole

             Previous Authors, Complete List of Code Contributors,
                       and Citations for Specific Modules
    https://github.com/psi4/psi4/blob/master/codemeta.json
    https://github.com/psi4/psi4/graphs/contributors
    http://psicode.org/psi4manual/master/introduction.html#citing-psifour

    -----------------------------------------------------------------------


    Psi4 started on: Monday, 22 January 2024 05:02PM

    Process ID: 81518
    Host:       ddmfs1
    PSIDATADIR: /ddmfs1b/softs/psi4conda/share/psi4
    Memory:     500.0 MiB
    Threads:    20
    
  ==> Input File <==

--------------------------------------------------------------------------
MEMORY 60 GB

molecule dimer {
0 1
Gh(F)      0.000000     0.000000     0.000000
Gh(O)     -1.251116    -1.324241     1.858701
Gh(H)     -0.644750    -1.144723     1.133580
Gh(H)     -1.241253    -0.487636     2.348342
Gh(O)     -0.962366    -2.269385    -1.669304
Gh(H)     -0.867402    -1.542612    -1.090180
Gh(H)     -1.783634    -2.711967    -1.474651
Gh(O)      2.005604    -2.181428    -0.280141
Gh(H)      1.372139    -1.457922    -0.354971
Gh(H)      2.139229    -2.266705     0.685608
O         -0.128590     2.176756     1.552053
H         -0.060687     1.399457     1.025673
H         -0.705954     2.013435     2.266419
Gh(O)     -2.791118     0.791832    -0.581116
Gh(H)     -1.861301     0.475451    -0.426954
Gh(H)     -2.961146     1.432019     0.088729

units ang
no_reorient
no_com
symmetry c1
}

set {
basis        aug-cc-pVTZ
scf_type     df
}

energy("mp2")
--------------------------------------------------------------------------

  Memory set to  55.879 GiB by Python driver.

Scratch directory: /ddmfs1a/scratch/
   => Libint2 <=

    Primary   basis highest AM E, G, H:  5, 4, 3
    Auxiliary basis highest AM E, G, H:  6, 5, 4
    Onebody   basis highest AM E, G, H:  6, 5, 4
    Solid Harmonics ordering:            gaussian

*** tstart() called on ddmfs1
*** at Mon Jan 22 17:02:06 2024

   => Loading Basis Set <=

    Name: AUG-CC-PVTZ
    Role: ORBITAL
    Keyword: BASIS
    atoms 1                            entry F          line   377 file /ddmfs1b/softs/psi4conda/share/psi4/basis/aug-cc-pvtz.gbs 
    atoms 2, 5, 8, 11, 14              entry O          line   331 file /ddmfs1b/softs/psi4conda/share/psi4/basis/aug-cc-pvtz.gbs 
    atoms 3-4, 6-7, 9-10, 12-13, 15-16 entry H          line    40 file /ddmfs1b/softs/psi4conda/share/psi4/basis/aug-cc-pvtz.gbs 


         ---------------------------------------------------------
                                   SCF
               by Justin Turney, Rob Parrish, Andy Simmonett
                          and Daniel G. A. Smith
                              RHF Reference
                       20 Threads,  57220 MiB Core
         ---------------------------------------------------------

  ==> Geometry <==

    Molecular point group: c1
    Full point group: C1

    Geometry (in Angstrom), charge = 0, multiplicity = 1:

       Center              X                  Y                   Z               Mass       
    ------------   -----------------  -----------------  -----------------  -----------------
      Gh(F)           0.000000000000     0.000000000000     0.000000000000    18.998403162730
      Gh(O)          -1.251116000000    -1.324241000000     1.858701000000    15.994914619570
      Gh(H)          -0.644750000000    -1.144723000000     1.133580000000     1.007825032230
      Gh(H)          -1.241253000000    -0.487636000000     2.348342000000     1.007825032230
      Gh(O)          -0.962366000000    -2.269385000000    -1.669304000000    15.994914619570
      Gh(H)          -0.867402000000    -1.542612000000    -1.090180000000     1.007825032230
      Gh(H)          -1.783634000000    -2.711967000000    -1.474651000000     1.007825032230
      Gh(O)           2.005604000000    -2.181428000000    -0.280141000000    15.994914619570
      Gh(H)           1.372139000000    -1.457922000000    -0.354971000000     1.007825032230
      Gh(H)           2.139229000000    -2.266705000000     0.685608000000     1.007825032230
         O           -0.128590000000     2.176756000000     1.552053000000    15.994914619570
         H           -0.060687000000     1.399457000000     1.025673000000     1.007825032230
         H           -0.705954000000     2.013435000000     2.266419000000     1.007825032230
      Gh(O)          -2.791118000000     0.791832000000    -0.581116000000    15.994914619570
      Gh(H)          -1.861301000000     0.475451000000    -0.426954000000     1.007825032230
      Gh(H)          -2.961146000000     1.432019000000     0.088729000000     1.007825032230

  Running in c1 symmetry.

  Rotational constants: A =      0.04770  B =      0.03523  C =      0.02809 [cm^-1]
  Rotational constants: A =   1430.09920  B =   1056.03045  C =    842.15235 [MHz]
  Nuclear repulsion =    9.382112690418325

  Charge       = 0
  Multiplicity = 1
  Electrons    = 10
  Nalpha       = 5
  Nbeta        = 5

  ==> Algorithm <==

  SCF Algorithm Type is DF.
  DIIS enabled.
  MOM disabled.
  Fractional occupation disabled.
  Guess Type is SAD.
  Energy threshold   = 1.00e-08
  Density threshold  = 1.00e-08
  Integral threshold = 1.00e-12

  ==> Primary Basis <==

  Basis Set: AUG-CC-PVTZ
    Blend: AUG-CC-PVTZ
    Number of shells: 174
    Number of basis functions: 506
    Number of Cartesian functions: 580
    Spherical Harmonics?: true
    Max angular momentum: 3

   => Loading Basis Set <=

    Name: (AUG-CC-PVTZ AUX)
    Role: JKFIT
    Keyword: DF_BASIS_SCF
    atoms 1                            entry F          line   348 file /ddmfs1b/softs/psi4conda/share/psi4/basis/aug-cc-pvtz-jkfit.gbs 
    atoms 2, 5, 8, 11, 14              entry O          line   286 file /ddmfs1b/softs/psi4conda/share/psi4/basis/aug-cc-pvtz-jkfit.gbs 
    atoms 3-4, 6-7, 9-10, 12-13, 15-16 entry H          line    70 file /ddmfs1b/softs/psi4conda/share/psi4/basis/aug-cc-pvtz-jkfit.gbs 

  ==> Integral Setup <==

  DFHelper Memory: AOs need 1.988 GiB; user supplied 41.910 GiB. 
  Using in-core AOs.

  ==> MemDFJK: Density-Fitted J/K Matrices <==

    J tasked:                   Yes
    K tasked:                   Yes
    wK tasked:                   No
    OpenMP threads:              20
    Memory [MiB]:             42915
    Algorithm:                 Core
    Schwarz Cutoff:           1E-12
    Mask sparsity (%):       8.6168
    Fitting Condition:        1E-10

   => Auxiliary Basis Set <=

  Basis Set: (AUG-CC-PVTZ AUX)
    Blend: AUG-CC-PVTZ-JKFIT
    Number of shells: 320
    Number of basis functions: 1084
    Number of Cartesian functions: 1336
    Spherical Harmonics?: true
    Max angular momentum: 4

  Minimum eigenvalue in the overlap matrix is 1.1380167944E-04.
  Reciprocal condition number of the overlap matrix is 7.7735751948E-06.
    Using symmetric orthogonalization.

  ==> Pre-Iterations <==

  SCF Guess: Superposition of Atomic Densities via on-the-fly atomic UHF (no occupation information).

   -------------------------
    Irrep   Nso     Nmo    
   -------------------------
     A        506     506 
   -------------------------
    Total     506     506
   -------------------------

  ==> Iterations <==

                           Total Energy        Delta E     RMS |[F,P]|

   @DF-RHF iter SAD:   -75.49612963965647   -7.54961e+01   0.00000e+00 
   @DF-RHF iter   1:   -75.97789010831853   -4.81760e-01   9.31237e-04 DIIS/ADIIS
   @DF-RHF iter   2:   -76.03103021045236   -5.31401e-02   6.16628e-04 DIIS/ADIIS
   @DF-RHF iter   3:   -76.06064892296439   -2.96187e-02   4.17536e-05 DIIS
   @DF-RHF iter   4:   -76.06101365669601   -3.64734e-04   9.50587e-06 DIIS
   @DF-RHF iter   5:   -76.06103375534956   -2.00987e-05   2.08888e-06 DIIS
   @DF-RHF iter   6:   -76.06103533083903   -1.57549e-06   4.62043e-07 DIIS
   @DF-RHF iter   7:   -76.06103541791194   -8.70729e-08   9.01467e-08 DIIS
   @DF-RHF iter   8:   -76.06103542090986   -2.99792e-09   1.46045e-08 DIIS
   @DF-RHF iter   9:   -76.06103542097053   -6.06661e-11   3.46933e-09 DIIS
  Energy and wave function converged.


  ==> Post-Iterations <==

    Orbital Energies [Eh]
    ---------------------

    Doubly Occupied:                                                      

       1A    -20.561455     2A     -1.360836     3A     -0.738168  
       4A     -0.579592     5A     -0.510734  

    Virtual:                                                              

       6A      0.015762     7A      0.034524     8A      0.036534  
       9A      0.043379    10A      0.055432    11A      0.058613  
      12A      0.066971    13A      0.073160    14A      0.074413  
      15A      0.090569    16A      0.103837    17A      0.119376  
      18A      0.126799    19A      0.132431    20A      0.140424  
      21A      0.146597    22A      0.152253    23A      0.164213  
      24A      0.166594    25A      0.171000    26A      0.179676  
      27A      0.183116    28A      0.191328    29A      0.194210  
      30A      0.201940    31A      0.207975    32A      0.214329  
      33A      0.223565    34A      0.229611    35A      0.235539  
      36A      0.239990    37A      0.249389    38A      0.259262  
      39A      0.275220    40A      0.282685    41A      0.294834  
      42A      0.301183    43A      0.303284    44A      0.312663  
      45A      0.329975    46A      0.336371    47A      0.338884  
      48A      0.349557    49A      0.354582    50A      0.359808  
      51A      0.360955    52A      0.371707    53A      0.373178  
      54A      0.381859    55A      0.384075    56A      0.395347  
      57A      0.395852    58A      0.412498    59A      0.417590  
      60A      0.430231    61A      0.436726    62A      0.437435  
      63A      0.447132    64A      0.453753    65A      0.463027  
      66A      0.473379    67A      0.492463    68A      0.495140  
      69A      0.505620    70A      0.513924    71A      0.516681  
      72A      0.529751    73A      0.532317    74A      0.554492  
      75A      0.565230    76A      0.575627    77A      0.599734  
      78A      0.618300    79A      0.634617    80A      0.663001  
      81A      0.682271    82A      0.695555    83A      0.699457  
      84A      0.703299    85A      0.724613    86A      0.728653  
      87A      0.747335    88A      0.750439    89A      0.756032  
      90A      0.764812    91A      0.771372    92A      0.774945  
      93A      0.791405    94A      0.797096    95A      0.802504  
      96A      0.806267    97A      0.811849    98A      0.827908  
      99A      0.832440   100A      0.834946   101A      0.843043  
     102A      0.850237   103A      0.855888   104A      0.866059  
     105A      0.868580   106A      0.871686   107A      0.875653  
     108A      0.886855   109A      0.898225   110A      0.907565  
     111A      0.909930   112A      0.916108   113A      0.923856  
     114A      0.930694   115A      0.944595   116A      0.948056  
     117A      0.954654   118A      0.956901   119A      0.966446  
     120A      0.975321   121A      0.981920   122A      0.986837  
     123A      0.997815   124A      1.001019   125A      1.003365  
     126A      1.012659   127A      1.016456   128A      1.032076  
     129A      1.040136   130A      1.043064   131A      1.054775  
     132A      1.067556   133A      1.072884   134A      1.083789  
     135A      1.084864   136A      1.093797   137A      1.097971  
     138A      1.104504   139A      1.117851   140A      1.128465  
     141A      1.130317   142A      1.148970   143A      1.161786  
     144A      1.169180   145A      1.171551   146A      1.189041  
     147A      1.203052   148A      1.216151   149A      1.221377  
     150A      1.228042   151A      1.246100   152A      1.247933  
     153A      1.255501   154A      1.278635   155A      1.289037  
     156A      1.305485   157A      1.320052   158A      1.327342  
     159A      1.337759   160A      1.356888   161A      1.367370  
     162A      1.372416   163A      1.383441   164A      1.400957  
     165A      1.407075   166A      1.433502   167A      1.442523  
     168A      1.455835   169A      1.463466   170A      1.474873  
     171A      1.491576   172A      1.496976   173A      1.505247  
     174A      1.524075   175A      1.535245   176A      1.560679  
     177A      1.563790   178A      1.587871   179A      1.591652  
     180A      1.625199   181A      1.646806   182A      1.657943  
     183A      1.660698   184A      1.675675   185A      1.694854  
     186A      1.711308   187A      1.719129   188A      1.733356  
     189A      1.741670   190A      1.755836   191A      1.778146  
     192A      1.781349   193A      1.800825   194A      1.808399  
     195A      1.820398   196A      1.826135   197A      1.832102  
     198A      1.845408   199A      1.859856   200A      1.865605  
     201A      1.875231   202A      1.897375   203A      1.908486  
     204A      1.923717   205A      1.940492   206A      1.952777  
     207A      1.971817   208A      1.981353   209A      1.988967  
     210A      2.012545   211A      2.026385   212A      2.038150  
     213A      2.060155   214A      2.076873   215A      2.091390  
     216A      2.102951   217A      2.169486   218A      2.175685  
     219A      2.201694   220A      2.249130   221A      2.265110  
     222A      2.327686   223A      2.379140   224A      2.430570  
     225A      2.458658   226A      2.485427   227A      2.488371  
     228A      2.499972   229A      2.509912   230A      2.516528  
     231A      2.531586   232A      2.548871   233A      2.557485  
     234A      2.563123   235A      2.573038   236A      2.578335  
     237A      2.593510   238A      2.611506   239A      2.625377  
     240A      2.638683   241A      2.646271   242A      2.656257  
     243A      2.661495   244A      2.676897   245A      2.683356  
     246A      2.701075   247A      2.706697   248A      2.721924  
     249A      2.734089   250A      2.745712   251A      2.755939  
     252A      2.778987   253A      2.785739   254A      2.795920  
     255A      2.821183   256A      2.822985   257A      2.831418  
     258A      2.842085   259A      2.870325   260A      2.889425  
     261A      2.912287   262A      2.918434   263A      2.942508  
     264A      2.969731   265A      2.990646   266A      3.018820  
     267A      3.051797   268A      3.064556   269A      3.089798  
     270A      3.122391   271A      3.152088   272A      3.176769  
     273A      3.203842   274A      3.211612   275A      3.218647  
     276A      3.229026   277A      3.239337   278A      3.246060  
     279A      3.279100   280A      3.288734   281A      3.299983  
     282A      3.318849   283A      3.344712   284A      3.360004  
     285A      3.390602   286A      3.438648   287A      3.452014  
     288A      3.504598   289A      3.516050   290A      3.527707  
     291A      3.534112   292A      3.571849   293A      3.587086  
     294A      3.594097   295A      3.618145   296A      3.635840  
     297A      3.669646   298A      3.681384   299A      3.704433  
     300A      3.729481   301A      3.763942   302A      3.795257  
     303A      3.799173   304A      3.833580   305A      3.871675  
     306A      3.875533   307A      3.953310   308A      3.982283  
     309A      3.998301   310A      4.051059   311A      4.072561  
     312A      4.134532   313A      4.168487   314A      4.198363  
     315A      4.230324   316A      4.291791   317A      4.343513  
     318A      4.374008   319A      4.396334   320A      4.407451  
     321A      4.421618   322A      4.425481   323A      4.439915  
     324A      4.451329   325A      4.464294   326A      4.477174  
     327A      4.489673   328A      4.492583   329A      4.524314  
     330A      4.528944   331A      4.541357   332A      4.570424  
     333A      4.586040   334A      4.590929   335A      4.607928  
     336A      4.630321   337A      4.657357   338A      4.666634  
     339A      4.681051   340A      4.696815   341A      4.724570  
     342A      4.732716   343A      4.765177   344A      4.771147  
     345A      4.781339   346A      4.826294   347A      4.849144  
     348A      4.885298   349A      4.909496   350A      4.928050  
     351A      4.931795   352A      4.955380   353A      4.973914  
     354A      4.986563   355A      4.988277   356A      5.022769  
     357A      5.041795   358A      5.064257   359A      5.078162  
     360A      5.112105   361A      5.118367   362A      5.175598  
     363A      5.185694   364A      5.235985   365A      5.278486  
     366A      5.302647   367A      5.322083   368A      5.352550  
     369A      5.377509   370A      5.410952   371A      5.475891  
     372A      5.546570   373A      5.552925   374A      5.577870  
     375A      5.590208   376A      5.612904   377A      5.627366  
     378A      5.634013   379A      5.669509   380A      5.677684  
     381A      5.705055   382A      5.718986   383A      5.747773  
     384A      5.783741   385A      5.830483   386A      5.899567  
     387A      5.910686   388A      5.960764   389A      5.972195  
     390A      6.058578   391A      6.157400   392A      6.211911  
     393A      6.265847   394A      6.290684   395A      6.365357  
     396A      6.432932   397A      6.494463   398A      6.526683  
     399A      6.553674   400A      6.592736   401A      6.628965  
     402A      6.713341   403A      6.719551   404A      6.816431  
     405A      6.883873   406A      6.975562   407A      7.088732  
     408A      7.116620   409A      7.135232   410A      7.227866  
     411A      7.237552   412A      7.369734   413A      7.399644  
     414A      7.420745   415A      7.542904   416A      7.569467  
     417A      7.752377   418A      7.754391   419A      7.799476  
     420A      7.830815   421A      7.844883   422A      7.872148  
     423A      7.882736   424A      7.906120   425A      7.951550  
     426A      8.048095   427A      8.082862   428A      8.094572  
     429A      8.107044   430A      8.168403   431A      8.175046  
     432A      8.209952   433A      8.290190   434A      8.300606  
     435A      8.305253   436A      8.322090   437A      8.346710  
     438A      8.369141   439A      8.381185   440A      8.742674  
     441A      8.824579   442A      8.850394   443A      8.913456  
     444A      8.951392   445A      8.993664   446A      9.003404  
     447A      9.043497   448A      9.248624   449A      9.739525  
     450A      9.756691   451A      9.768443   452A      9.816894  
     453A      9.892266   454A      9.906953   455A      9.934248  
     456A      9.949615   457A     10.078363   458A     10.099018  
     459A     10.128642   460A     10.156212   461A     10.294378  
     462A     10.312595   463A     10.368400   464A     10.384912  
     465A     10.390082   466A     10.480370   467A     10.509580  
     468A     10.562031   469A     10.641966   470A     10.729055  
     471A     10.871570   472A     11.185332   473A     11.231959  
     474A     11.263181   475A     11.310309   476A     11.728495  
     477A     11.788442   478A     11.816058   479A     11.955616  
     480A     12.018096   481A     12.202490   482A     12.284852  
     483A     12.406306   484A     12.421900   485A     13.178600  
     486A     13.271068   487A     13.304215   488A     13.432182  
     489A     13.506072   490A     13.638803   491A     13.658074  
     492A     13.751229   493A     13.814755   494A     13.976499  
     495A     13.980032   496A     14.016185   497A     14.116638  
     498A     15.120743   499A     15.204452   500A     15.408392  
     501A     18.210565   502A     66.360907   503A     66.732654  
     504A     67.142879   505A     68.313667   506A     74.723987  

    Final Occupation by Irrep:
              A 
    DOCC [     5 ]
    NA   [     5 ]
    NB   [     5 ]

  @DF-RHF Final Energy:   -76.06103542097053

   => Energetics <=

    Nuclear Repulsion Energy =              9.3821126904183245
    One-Electron Energy =                -123.3847232144839836
    Two-Electron Energy =                  37.9415751030951327
    Total Energy =                        -76.0610354209705264

Computation Completed


Properties will be evaluated at   0.000000,   0.000000,   0.000000 [a0]

Properties computed using the SCF density matrix


 Multipole Moments:

 ------------------------------------------------------------------------------------
     Multipole            Electronic (a.u.)      Nuclear  (a.u.)        Total (a.u.)
 ------------------------------------------------------------------------------------

 L = 1.  Multiply by 2.5417464519 to convert [e a0] to [Debye]
 Dipole X            :          3.0441413           -3.3927406           -0.3485992
 Dipole Y            :        -39.9999466           39.3572126           -0.6427340
 Dipole Z            :        -29.5554096           29.6847931            0.1293835
 Magnitude           :                                                    0.7425419

 ------------------------------------------------------------------------------------

*** tstop() called on ddmfs1 at Mon Jan 22 17:02:12 2024
Module time:
	user time   =      86.65 seconds =       1.44 minutes
	system time =       4.39 seconds =       0.07 minutes
	total time  =          6 seconds =       0.10 minutes
Total time:
	user time   =      86.65 seconds =       1.44 minutes
	system time =       4.39 seconds =       0.07 minutes
	total time  =          6 seconds =       0.10 minutes

*** tstart() called on ddmfs1
*** at Mon Jan 22 17:02:12 2024


  //>>>>>>>>>>>>>>>>>>>>>>>>>>>>>>>>>>>//
  //               DFMP2               //
  //<<<<<<<<<<<<<<<<<<<<<<<<<<<<<<<<<<<//

   => Loading Basis Set <=

    Name: (AUG-CC-PVTZ AUX)
    Role: RIFIT
    Keyword: DF_BASIS_MP2
    atoms 1                            entry F          line   322 file /ddmfs1b/softs/psi4conda/share/psi4/basis/aug-cc-pvtz-ri.gbs 
    atoms 2, 5, 8, 11, 14              entry O          line   264 file /ddmfs1b/softs/psi4conda/share/psi4/basis/aug-cc-pvtz-ri.gbs 
    atoms 3-4, 6-7, 9-10, 12-13, 15-16 entry H          line    30 file /ddmfs1b/softs/psi4conda/share/psi4/basis/aug-cc-pvtz-ri.gbs 

	 --------------------------------------------------------
	                          DF-MP2                         
	      2nd-Order Density-Fitted Moller-Plesset Theory     
	              RMP2 Wavefunction,  20 Threads             
	                                                         
	        Rob Parrish, Justin Turney, Andy Simmonett,      
	           Ed Hohenstein, and C. David Sherrill          
	 --------------------------------------------------------

   => Auxiliary Basis Set <=

  Basis Set: (AUG-CC-PVTZ AUX)
    Blend: AUG-CC-PVTZ-RI
    Number of shells: 308
    Number of basis functions: 1096
    Number of Cartesian functions: 1366
    Spherical Harmonics?: true
    Max angular momentum: 4

	 --------------------------------------------------------
	                 NBF =   506, NAUX =  1096
	 --------------------------------------------------------
	   CLASS    FOCC     OCC    AOCC    AVIR     VIR    FVIR
	   PAIRS       0       5       5     501     501       0
	 --------------------------------------------------------

	-----------------------------------------------------------
	 ==================> DF-MP2 Energies <==================== 
	-----------------------------------------------------------
	 Reference Energy          =     -76.0610354209705264 [Eh]
	 Singles Energy            =      -0.0000000000000000 [Eh]
	 Same-Spin Energy          =      -0.0680045451359771 [Eh]
	 Opposite-Spin Energy      =      -0.2149666591195156 [Eh]
	 Correlation Energy        =      -0.2829712042554926 [Eh]
	 Total Energy              =     -76.3440066252260152 [Eh]
	-----------------------------------------------------------
	 ================> DF-SCS-MP2 Energies <================== 
	-----------------------------------------------------------
	 SCS Same-Spin Scale       =       0.3333333333333333 [-]
	 SCS Opposite-Spin Scale   =       1.2000000000000000 [-]
	 SCS Same-Spin Energy      =      -0.0226681817119924 [Eh]
	 SCS Opposite-Spin Energy  =      -0.2579599909434186 [Eh]
	 SCS Correlation Energy    =      -0.2806281726554110 [Eh]
	 SCS Total Energy          =     -76.3416635936259382 [Eh]
	-----------------------------------------------------------


*** tstop() called on ddmfs1 at Mon Jan 22 17:02:16 2024
Module time:
	user time   =      24.30 seconds =       0.40 minutes
	system time =       1.27 seconds =       0.02 minutes
	total time  =          4 seconds =       0.07 minutes
Total time:
	user time   =     110.97 seconds =       1.85 minutes
	system time =       5.66 seconds =       0.09 minutes
	total time  =         10 seconds =       0.17 minutes

    Psi4 stopped on: Monday, 22 January 2024 05:02PM
    Psi4 wall time for execution: 0:00:09.17

*** Psi4 exiting successfully. Buy a developer a beer!
