
    -----------------------------------------------------------------------
          Psi4: An Open-Source Ab Initio Electronic Structure Package
                               Psi4 1.8.2 release

                         Git: Rev {} zzzzzzz 


    D. G. A. Smith, L. A. Burns, A. C. Simmonett, R. M. Parrish,
    M. C. Schieber, R. Galvelis, P. Kraus, H. Kruse, R. Di Remigio,
    A. Alenaizan, A. M. James, S. Lehtola, J. P. Misiewicz, M. Scheurer,
    R. A. Shaw, J. B. Schriber, Y. Xie, Z. L. Glick, D. A. Sirianni,
    J. S. O'Brien, J. M. Waldrop, A. Kumar, E. G. Hohenstein,
    B. P. Pritchard, B. R. Brooks, H. F. Schaefer III, A. Yu. Sokolov,
    K. Patkowski, A. E. DePrince III, U. Bozkaya, R. A. King,
    F. A. Evangelista, J. M. Turney, T. D. Crawford, C. D. Sherrill,
    J. Chem. Phys. 152(18) 184108 (2020). https://doi.org/10.1063/5.0006002

                            Additional Code Authors
    E. T. Seidl, C. L. Janssen, E. F. Valeev, M. L. Leininger,
    J. F. Gonthier, R. M. Richard, H. R. McAlexander, M. Saitow, X. Wang,
    P. Verma, M. H. Lechner, A. Jiang, S. Behnle, A. G. Heide,
    M. F. Herbst, and D. L. Poole

             Previous Authors, Complete List of Code Contributors,
                       and Citations for Specific Modules
    https://github.com/psi4/psi4/blob/master/codemeta.json
    https://github.com/psi4/psi4/graphs/contributors
    http://psicode.org/psi4manual/master/introduction.html#citing-psifour

    -----------------------------------------------------------------------


    Psi4 started on: Monday, 22 January 2024 07:01PM

    Process ID: 94408
    Host:       ddmfs1
    PSIDATADIR: /ddmfs1b/softs/psi4conda/share/psi4
    Memory:     500.0 MiB
    Threads:    20
    
  ==> Input File <==

--------------------------------------------------------------------------
MEMORY 60 GB

molecule dimer {
0 1
Gh(F)      0.000000     0.000000     0.000000
O         -1.815093    -1.909151    -1.378201
H         -1.403991    -2.276259    -2.165990
H         -1.261117    -1.228137    -1.060890
Gh(O)     -2.290972     1.058239     1.136022
Gh(H)     -1.623090     0.540782     0.668743
Gh(H)     -1.945953     1.955729     1.153331
Gh(O)      0.991195     2.121049     1.492154
Gh(H)      0.917310     1.817853     2.425342
Gh(H)      0.600819     1.313217     1.073674
Gh(O)      0.163617    -2.054169     1.849337
Gh(H)     -0.065307    -1.308779     1.260088
Gh(H)     -0.495621    -2.762095     1.646170

units ang
no_reorient
no_com
symmetry c1
}

set {
basis        aug-cc-pVTZ
scf_type     df
}

energy("mp2")
--------------------------------------------------------------------------

  Memory set to  55.879 GiB by Python driver.

Scratch directory: /ddmfs1a/scratch/
   => Libint2 <=

    Primary   basis highest AM E, G, H:  5, 4, 3
    Auxiliary basis highest AM E, G, H:  6, 5, 4
    Onebody   basis highest AM E, G, H:  6, 5, 4
    Solid Harmonics ordering:            gaussian

*** tstart() called on ddmfs1
*** at Mon Jan 22 19:01:31 2024

   => Loading Basis Set <=

    Name: AUG-CC-PVTZ
    Role: ORBITAL
    Keyword: BASIS
    atoms 1                     entry F          line   377 file /ddmfs1b/softs/psi4conda/share/psi4/basis/aug-cc-pvtz.gbs 
    atoms 2, 5, 8, 11           entry O          line   331 file /ddmfs1b/softs/psi4conda/share/psi4/basis/aug-cc-pvtz.gbs 
    atoms 3-4, 6-7, 9-10, 12-13 entry H          line    40 file /ddmfs1b/softs/psi4conda/share/psi4/basis/aug-cc-pvtz.gbs 


         ---------------------------------------------------------
                                   SCF
               by Justin Turney, Rob Parrish, Andy Simmonett
                          and Daniel G. A. Smith
                              RHF Reference
                       20 Threads,  57220 MiB Core
         ---------------------------------------------------------

  ==> Geometry <==

    Molecular point group: c1
    Full point group: C1

    Geometry (in Angstrom), charge = 0, multiplicity = 1:

       Center              X                  Y                   Z               Mass       
    ------------   -----------------  -----------------  -----------------  -----------------
      Gh(F)           0.000000000000     0.000000000000     0.000000000000    18.998403162730
         O           -1.815093000000    -1.909151000000    -1.378201000000    15.994914619570
         H           -1.403991000000    -2.276259000000    -2.165990000000     1.007825032230
         H           -1.261117000000    -1.228137000000    -1.060890000000     1.007825032230
      Gh(O)          -2.290972000000     1.058239000000     1.136022000000    15.994914619570
      Gh(H)          -1.623090000000     0.540782000000     0.668743000000     1.007825032230
      Gh(H)          -1.945953000000     1.955729000000     1.153331000000     1.007825032230
      Gh(O)           0.991195000000     2.121049000000     1.492154000000    15.994914619570
      Gh(H)           0.917310000000     1.817853000000     2.425342000000     1.007825032230
      Gh(H)           0.600819000000     1.313217000000     1.073674000000     1.007825032230
      Gh(O)           0.163617000000    -2.054169000000     1.849337000000    15.994914619570
      Gh(H)          -0.065307000000    -1.308779000000     1.260088000000     1.007825032230
      Gh(H)          -0.495621000000    -2.762095000000     1.646170000000     1.007825032230

  Running in c1 symmetry.

  Rotational constants: A =      0.06281  B =      0.03965  C =      0.03849 [cm^-1]
  Rotational constants: A =   1883.13911  B =   1188.54775  C =   1153.95109 [MHz]
  Nuclear repulsion =    9.284248645748201

  Charge       = 0
  Multiplicity = 1
  Electrons    = 10
  Nalpha       = 5
  Nbeta        = 5

  ==> Algorithm <==

  SCF Algorithm Type is DF.
  DIIS enabled.
  MOM disabled.
  Fractional occupation disabled.
  Guess Type is SAD.
  Energy threshold   = 1.00e-08
  Density threshold  = 1.00e-08
  Integral threshold = 1.00e-12

  ==> Primary Basis <==

  Basis Set: AUG-CC-PVTZ
    Blend: AUG-CC-PVTZ
    Number of shells: 142
    Number of basis functions: 414
    Number of Cartesian functions: 475
    Spherical Harmonics?: true
    Max angular momentum: 3

   => Loading Basis Set <=

    Name: (AUG-CC-PVTZ AUX)
    Role: JKFIT
    Keyword: DF_BASIS_SCF
    atoms 1                     entry F          line   348 file /ddmfs1b/softs/psi4conda/share/psi4/basis/aug-cc-pvtz-jkfit.gbs 
    atoms 2, 5, 8, 11           entry O          line   286 file /ddmfs1b/softs/psi4conda/share/psi4/basis/aug-cc-pvtz-jkfit.gbs 
    atoms 3-4, 6-7, 9-10, 12-13 entry H          line    70 file /ddmfs1b/softs/psi4conda/share/psi4/basis/aug-cc-pvtz-jkfit.gbs 

  ==> Integral Setup <==

  DFHelper Memory: AOs need 1.110 GiB; user supplied 41.910 GiB. 
  Using in-core AOs.

  ==> MemDFJK: Density-Fitted J/K Matrices <==

    J tasked:                   Yes
    K tasked:                   Yes
    wK tasked:                   No
    OpenMP threads:              20
    Memory [MiB]:             42915
    Algorithm:                 Core
    Schwarz Cutoff:           1E-12
    Mask sparsity (%):       7.9337
    Fitting Condition:        1E-10

   => Auxiliary Basis Set <=

  Basis Set: (AUG-CC-PVTZ AUX)
    Blend: AUG-CC-PVTZ-JKFIT
    Number of shells: 262
    Number of basis functions: 888
    Number of Cartesian functions: 1095
    Spherical Harmonics?: true
    Max angular momentum: 4

  Minimum eigenvalue in the overlap matrix is 1.4095812330E-04.
  Reciprocal condition number of the overlap matrix is 1.1288723311E-05.
    Using symmetric orthogonalization.

  ==> Pre-Iterations <==

  SCF Guess: Superposition of Atomic Densities via on-the-fly atomic UHF (no occupation information).

   -------------------------
    Irrep   Nso     Nmo    
   -------------------------
     A        414     414 
   -------------------------
    Total     414     414
   -------------------------

  ==> Iterations <==

                           Total Energy        Delta E     RMS |[F,P]|

   @DF-RHF iter SAD:   -75.48578313227573   -7.54858e+01   0.00000e+00 
   @DF-RHF iter   1:   -75.97699647442373   -4.91213e-01   1.13539e-03 ADIIS/DIIS
   @DF-RHF iter   2:   -76.02986375487939   -5.28673e-02   7.61561e-04 ADIIS/DIIS
   @DF-RHF iter   3:   -76.06028378254670   -3.04200e-02   5.17271e-05 DIIS
   @DF-RHF iter   4:   -76.06066207049894   -3.78288e-04   1.20559e-05 DIIS
   @DF-RHF iter   5:   -76.06068418144351   -2.21109e-05   2.69859e-06 DIIS
   @DF-RHF iter   6:   -76.06068596387563   -1.78243e-06   5.98712e-07 DIIS
   @DF-RHF iter   7:   -76.06068606198080   -9.81052e-08   1.13500e-07 DIIS
   @DF-RHF iter   8:   -76.06068606512447   -3.14367e-09   1.86051e-08 DIIS
   @DF-RHF iter   9:   -76.06068606519055   -6.60805e-11   4.55898e-09 DIIS
  Energy and wave function converged.


  ==> Post-Iterations <==

    Orbital Energies [Eh]
    ---------------------

    Doubly Occupied:                                                      

       1A    -20.563988     2A     -1.356611     3A     -0.729388  
       4A     -0.580555     5A     -0.510279  

    Virtual:                                                              

       6A      0.019511     7A      0.034401     8A      0.042380  
       9A      0.045941    10A      0.054169    11A      0.067144  
      12A      0.072110    13A      0.088229    14A      0.104962  
      15A      0.129143    16A      0.134673    17A      0.140962  
      18A      0.142784    19A      0.147552    20A      0.158791  
      21A      0.162452    22A      0.168105    23A      0.177985  
      24A      0.183696    25A      0.185181    26A      0.200106  
      27A      0.203919    28A      0.207300    29A      0.218205  
      30A      0.241268    31A      0.251536    32A      0.253468  
      33A      0.267982    34A      0.281432    35A      0.290598  
      36A      0.295544    37A      0.303116    38A      0.313892  
      39A      0.323750    40A      0.333881    41A      0.340673  
      42A      0.343452    43A      0.350280    44A      0.362489  
      45A      0.370297    46A      0.377296    47A      0.384868  
      48A      0.393167    49A      0.402850    50A      0.411217  
      51A      0.419373    52A      0.434967    53A      0.439396  
      54A      0.451502    55A      0.453545    56A      0.477401  
      57A      0.481073    58A      0.494270    59A      0.514081  
      60A      0.522960    61A      0.524752    62A      0.568499  
      63A      0.584334    64A      0.600641    65A      0.622414  
      66A      0.672938    67A      0.674105    68A      0.695708  
      69A      0.706159    70A      0.716604    71A      0.722194  
      72A      0.733051    73A      0.743140    74A      0.747424  
      75A      0.761104    76A      0.771032    77A      0.776515  
      78A      0.784996    79A      0.795155    80A      0.801961  
      81A      0.806583    82A      0.819410    83A      0.825951  
      84A      0.831720    85A      0.842351    86A      0.854880  
      87A      0.858098    88A      0.871200    89A      0.877623  
      90A      0.883597    91A      0.897052    92A      0.900240  
      93A      0.905685    94A      0.913774    95A      0.920153  
      96A      0.925440    97A      0.932379    98A      0.939834  
      99A      0.950659   100A      0.963213   101A      0.968146  
     102A      0.972391   103A      0.982178   104A      0.987853  
     105A      1.001621   106A      1.007226   107A      1.023580  
     108A      1.025220   109A      1.033486   110A      1.043998  
     111A      1.058646   112A      1.067678   113A      1.077288  
     114A      1.081331   115A      1.089957   116A      1.094925  
     117A      1.110330   118A      1.137059   119A      1.152843  
     120A      1.161446   121A      1.166449   122A      1.172815  
     123A      1.181403   124A      1.203946   125A      1.210908  
     126A      1.235814   127A      1.237266   128A      1.242828  
     129A      1.264471   130A      1.275826   131A      1.286666  
     132A      1.300353   133A      1.326460   134A      1.331397  
     135A      1.361838   136A      1.368789   137A      1.388535  
     138A      1.405407   139A      1.444012   140A      1.451076  
     141A      1.463487   142A      1.492113   143A      1.500171  
     144A      1.509910   145A      1.537999   146A      1.574346  
     147A      1.583855   148A      1.608775   149A      1.616409  
     150A      1.626386   151A      1.661520   152A      1.675672  
     153A      1.678568   154A      1.692053   155A      1.707462  
     156A      1.728207   157A      1.731350   158A      1.744470  
     159A      1.748618   160A      1.774869   161A      1.780793  
     162A      1.800816   163A      1.811113   164A      1.830737  
     165A      1.847593   166A      1.863866   167A      1.879704  
     168A      1.898628   169A      1.922212   170A      1.931252  
     171A      1.946535   172A      1.983778   173A      2.007154  
     174A      2.029873   175A      2.055533   176A      2.063349  
     177A      2.082695   178A      2.169069   179A      2.219026  
     180A      2.256219   181A      2.313736   182A      2.341085  
     183A      2.415005   184A      2.431202   185A      2.459345  
     186A      2.467759   187A      2.478999   188A      2.483935  
     189A      2.491769   190A      2.508971   191A      2.516109  
     192A      2.531040   193A      2.541562   194A      2.554974  
     195A      2.572378   196A      2.581531   197A      2.611510  
     198A      2.627881   199A      2.640595   200A      2.643408  
     201A      2.673250   202A      2.682790   203A      2.696872  
     204A      2.716753   205A      2.722110   206A      2.738388  
     207A      2.754329   208A      2.755181   209A      2.791729  
     210A      2.793376   211A      2.808734   212A      2.838189  
     213A      2.849870   214A      2.877758   215A      2.891485  
     216A      2.923927   217A      2.976573   218A      2.992823  
     219A      3.015844   220A      3.035170   221A      3.046664  
     222A      3.130319   223A      3.173155   224A      3.182242  
     225A      3.196180   226A      3.206113   227A      3.214330  
     228A      3.240981   229A      3.253858   230A      3.284397  
     231A      3.299130   232A      3.393602   233A      3.415294  
     234A      3.437530   235A      3.442699   236A      3.465104  
     237A      3.505867   238A      3.540706   239A      3.553642  
     240A      3.566751   241A      3.605460   242A      3.619382  
     243A      3.655610   244A      3.676381   245A      3.694485  
     246A      3.718475   247A      3.765208   248A      3.788881  
     249A      3.811747   250A      3.853091   251A      3.937533  
     252A      3.973082   253A      4.004258   254A      4.032256  
     255A      4.070223   256A      4.079614   257A      4.107119  
     258A      4.216413   259A      4.265160   260A      4.285611  
     261A      4.289955   262A      4.321508   263A      4.342522  
     264A      4.367934   265A      4.384814   266A      4.415855  
     267A      4.438522   268A      4.451836   269A      4.465472  
     270A      4.480947   271A      4.489727   272A      4.498479  
     273A      4.510355   274A      4.519399   275A      4.553985  
     276A      4.581353   277A      4.593767   278A      4.603621  
     279A      4.642879   280A      4.685677   281A      4.692602  
     282A      4.722013   283A      4.754349   284A      4.799791  
     285A      4.816375   286A      4.864093   287A      4.887481  
     288A      4.910026   289A      4.920406   290A      4.938116  
     291A      4.972762   292A      4.985991   293A      5.000397  
     294A      5.025140   295A      5.060064   296A      5.086207  
     297A      5.108007   298A      5.143016   299A      5.220459  
     300A      5.227695   301A      5.311951   302A      5.352925  
     303A      5.366196   304A      5.388313   305A      5.486656  
     306A      5.516815   307A      5.552940   308A      5.559937  
     309A      5.582344   310A      5.598865   311A      5.601367  
     312A      5.624114   313A      5.660450   314A      5.675232  
     315A      5.708865   316A      5.837836   317A      5.882814  
     318A      5.950305   319A      5.978147   320A      6.209530  
     321A      6.229706   322A      6.250336   323A      6.277111  
     324A      6.340962   325A      6.467544   326A      6.503042  
     327A      6.577826   328A      6.627356   329A      6.628471  
     330A      6.724811   331A      6.794104   332A      6.968910  
     333A      7.007200   334A      7.041395   335A      7.126740  
     336A      7.182223   337A      7.289701   338A      7.370420  
     339A      7.390070   340A      7.463998   341A      7.509882  
     342A      7.712766   343A      7.726452   344A      7.785701  
     345A      7.835482   346A      7.838921   347A      7.883339  
     348A      7.923094   349A      7.991989   350A      8.009883  
     351A      8.065026   352A      8.086083   353A      8.099004  
     354A      8.146471   355A      8.216565   356A      8.266456  
     357A      8.274645   358A      8.290444   359A      8.326714  
     360A      8.712544   361A      8.734663   362A      8.818241  
     363A      8.867314   364A      8.892009   365A      8.924114  
     366A      9.019608   367A      9.700950   368A      9.723490  
     369A      9.732237   370A      9.868109   371A      9.886159  
     372A      9.932627   373A     10.078797   374A     10.101810  
     375A     10.133647   376A     10.245626   377A     10.307566  
     378A     10.344022   379A     10.355017   380A     10.456925  
     381A     10.478741   382A     10.553544   383A     10.621564  
     384A     10.660577   385A     10.725064   386A     11.099657  
     387A     11.189558   388A     11.280705   389A     11.489507  
     390A     11.765523   391A     11.772096   392A     11.910915  
     393A     12.090778   394A     12.248105   395A     12.415732  
     396A     13.156867   397A     13.165667   398A     13.205848  
     399A     13.268207   400A     13.395159   401A     13.541265  
     402A     13.623937   403A     13.691859   404A     13.979577  
     405A     13.994545   406A     14.013443   407A     15.021624  
     408A     15.171335   409A     15.291527   410A     17.363433  
     411A     65.426038   412A     65.623149   413A     66.807139  
     414A     74.228819  

    Final Occupation by Irrep:
              A 
    DOCC [     5 ]
    NA   [     5 ]
    NB   [     5 ]

  @DF-RHF Final Energy:   -76.06068606519055

   => Energetics <=

    Nuclear Repulsion Energy =              9.2842486457482014
    One-Electron Energy =                -123.2082219337379883
    Two-Electron Energy =                  37.8632872227992294
    Total Energy =                        -76.0606860651905521

Computation Completed


Properties will be evaluated at   0.000000,   0.000000,   0.000000 [a0]

Properties computed using the SCF density matrix


 Multipole Moments:

 ------------------------------------------------------------------------------------
     Multipole            Electronic (a.u.)      Nuclear  (a.u.)        Total (a.u.)
 ------------------------------------------------------------------------------------

 L = 1.  Multiply by 2.5417464519 to convert [e a0] to [Debye]
 Dipole X            :         33.1295577          -32.4765535            0.6530042
 Dipole Y            :         35.7002723          -35.4845289            0.2157434
 Dipole Z            :         26.6181846          -26.9332989           -0.3151144
 Magnitude           :                                                    0.7564765

 ------------------------------------------------------------------------------------

*** tstop() called on ddmfs1 at Mon Jan 22 19:01:35 2024
Module time:
	user time   =      53.77 seconds =       0.90 minutes
	system time =       2.46 seconds =       0.04 minutes
	total time  =          4 seconds =       0.07 minutes
Total time:
	user time   =      53.77 seconds =       0.90 minutes
	system time =       2.46 seconds =       0.04 minutes
	total time  =          4 seconds =       0.07 minutes

*** tstart() called on ddmfs1
*** at Mon Jan 22 19:01:35 2024


  //>>>>>>>>>>>>>>>>>>>>>>>>>>>>>>>>>>>//
  //               DFMP2               //
  //<<<<<<<<<<<<<<<<<<<<<<<<<<<<<<<<<<<//

   => Loading Basis Set <=

    Name: (AUG-CC-PVTZ AUX)
    Role: RIFIT
    Keyword: DF_BASIS_MP2
    atoms 1                     entry F          line   322 file /ddmfs1b/softs/psi4conda/share/psi4/basis/aug-cc-pvtz-ri.gbs 
    atoms 2, 5, 8, 11           entry O          line   264 file /ddmfs1b/softs/psi4conda/share/psi4/basis/aug-cc-pvtz-ri.gbs 
    atoms 3-4, 6-7, 9-10, 12-13 entry H          line    30 file /ddmfs1b/softs/psi4conda/share/psi4/basis/aug-cc-pvtz-ri.gbs 

	 --------------------------------------------------------
	                          DF-MP2                         
	      2nd-Order Density-Fitted Moller-Plesset Theory     
	              RMP2 Wavefunction,  20 Threads             
	                                                         
	        Rob Parrish, Justin Turney, Andy Simmonett,      
	           Ed Hohenstein, and C. David Sherrill          
	 --------------------------------------------------------

   => Auxiliary Basis Set <=

  Basis Set: (AUG-CC-PVTZ AUX)
    Blend: AUG-CC-PVTZ-RI
    Number of shells: 252
    Number of basis functions: 898
    Number of Cartesian functions: 1120
    Spherical Harmonics?: true
    Max angular momentum: 4

	 --------------------------------------------------------
	                 NBF =   414, NAUX =   898
	 --------------------------------------------------------
	   CLASS    FOCC     OCC    AOCC    AVIR     VIR    FVIR
	   PAIRS       0       5       5     409     409       0
	 --------------------------------------------------------

	-----------------------------------------------------------
	 ==================> DF-MP2 Energies <==================== 
	-----------------------------------------------------------
	 Reference Energy          =     -76.0606860651905521 [Eh]
	 Singles Energy            =      -0.0000000000000000 [Eh]
	 Same-Spin Energy          =      -0.0681734630379423 [Eh]
	 Opposite-Spin Energy      =      -0.2152472409748334 [Eh]
	 Correlation Energy        =      -0.2834207040127757 [Eh]
	 Total Energy              =     -76.3441067692033215 [Eh]
	-----------------------------------------------------------
	 ================> DF-SCS-MP2 Energies <================== 
	-----------------------------------------------------------
	 SCS Same-Spin Scale       =       0.3333333333333333 [-]
	 SCS Opposite-Spin Scale   =       1.2000000000000000 [-]
	 SCS Same-Spin Energy      =      -0.0227244876793141 [Eh]
	 SCS Opposite-Spin Energy  =      -0.2582966891698000 [Eh]
	 SCS Correlation Energy    =      -0.2810211768491142 [Eh]
	 SCS Total Energy          =     -76.3417072420396607 [Eh]
	-----------------------------------------------------------


*** tstop() called on ddmfs1 at Mon Jan 22 19:01:37 2024
Module time:
	user time   =      16.54 seconds =       0.28 minutes
	system time =       0.87 seconds =       0.01 minutes
	total time  =          2 seconds =       0.03 minutes
Total time:
	user time   =      70.33 seconds =       1.17 minutes
	system time =       3.33 seconds =       0.06 minutes
	total time  =          6 seconds =       0.10 minutes

    Psi4 stopped on: Monday, 22 January 2024 07:01PM
    Psi4 wall time for execution: 0:00:05.71

*** Psi4 exiting successfully. Buy a developer a beer!
