
    -----------------------------------------------------------------------
          Psi4: An Open-Source Ab Initio Electronic Structure Package
                               Psi4 1.8.2 release

                         Git: Rev {} zzzzzzz 


    D. G. A. Smith, L. A. Burns, A. C. Simmonett, R. M. Parrish,
    M. C. Schieber, R. Galvelis, P. Kraus, H. Kruse, R. Di Remigio,
    A. Alenaizan, A. M. James, S. Lehtola, J. P. Misiewicz, M. Scheurer,
    R. A. Shaw, J. B. Schriber, Y. Xie, Z. L. Glick, D. A. Sirianni,
    J. S. O'Brien, J. M. Waldrop, A. Kumar, E. G. Hohenstein,
    B. P. Pritchard, B. R. Brooks, H. F. Schaefer III, A. Yu. Sokolov,
    K. Patkowski, A. E. DePrince III, U. Bozkaya, R. A. King,
    F. A. Evangelista, J. M. Turney, T. D. Crawford, C. D. Sherrill,
    J. Chem. Phys. 152(18) 184108 (2020). https://doi.org/10.1063/5.0006002

                            Additional Code Authors
    E. T. Seidl, C. L. Janssen, E. F. Valeev, M. L. Leininger,
    J. F. Gonthier, R. M. Richard, H. R. McAlexander, M. Saitow, X. Wang,
    P. Verma, M. H. Lechner, A. Jiang, S. Behnle, A. G. Heide,
    M. F. Herbst, and D. L. Poole

             Previous Authors, Complete List of Code Contributors,
                       and Citations for Specific Modules
    https://github.com/psi4/psi4/blob/master/codemeta.json
    https://github.com/psi4/psi4/graphs/contributors
    http://psicode.org/psi4manual/master/introduction.html#citing-psifour

    -----------------------------------------------------------------------


    Psi4 started on: Monday, 22 January 2024 06:02PM

    Process ID: 87870
    Host:       ddmfs1
    PSIDATADIR: /ddmfs1b/softs/psi4conda/share/psi4
    Memory:     500.0 MiB
    Threads:    20
    
  ==> Input File <==

--------------------------------------------------------------------------
MEMORY 60 GB

molecule dimer {
-1 1
F          0.000000     0.000000     0.000000
O          0.201552     2.379442     1.269283
H          1.013565     2.687047     0.939558
H          0.155342     1.525594     0.845189
O          0.236368    -1.899810    -2.155158
H          0.057747    -2.671067    -1.620418
H          0.039340    -1.225771    -1.496507
O         -1.902528    -1.173327     1.751797
H         -2.408246    -0.467276     2.231861
H         -1.241179    -0.782759     1.178792
O         -2.154508     1.404000    -1.305374
H         -1.492883     0.912606    -0.734862
H         -1.805542     2.277133    -1.424237
O          1.499428    -1.231164     1.872563
H          0.915236    -1.644768     2.531361
H          1.009227    -0.739951     1.204952

units ang
no_reorient
no_com
symmetry c1
}

set {
basis        aug-cc-pVTZ
scf_type     df
}

energy("mp2")
--------------------------------------------------------------------------

  Memory set to  55.879 GiB by Python driver.

Scratch directory: /ddmfs1a/scratch/
   => Libint2 <=

    Primary   basis highest AM E, G, H:  5, 4, 3
    Auxiliary basis highest AM E, G, H:  6, 5, 4
    Onebody   basis highest AM E, G, H:  6, 5, 4
    Solid Harmonics ordering:            gaussian

*** tstart() called on ddmfs1
*** at Mon Jan 22 18:02:16 2024

   => Loading Basis Set <=

    Name: AUG-CC-PVTZ
    Role: ORBITAL
    Keyword: BASIS
    atoms 1                            entry F          line   377 file /ddmfs1b/softs/psi4conda/share/psi4/basis/aug-cc-pvtz.gbs 
    atoms 2, 5, 8, 11, 14              entry O          line   331 file /ddmfs1b/softs/psi4conda/share/psi4/basis/aug-cc-pvtz.gbs 
    atoms 3-4, 6-7, 9-10, 12-13, 15-16 entry H          line    40 file /ddmfs1b/softs/psi4conda/share/psi4/basis/aug-cc-pvtz.gbs 


         ---------------------------------------------------------
                                   SCF
               by Justin Turney, Rob Parrish, Andy Simmonett
                          and Daniel G. A. Smith
                              RHF Reference
                       20 Threads,  57220 MiB Core
         ---------------------------------------------------------

  ==> Geometry <==

    Molecular point group: c1
    Full point group: C1

    Geometry (in Angstrom), charge = -1, multiplicity = 1:

       Center              X                  Y                   Z               Mass       
    ------------   -----------------  -----------------  -----------------  -----------------
         F            0.000000000000     0.000000000000     0.000000000000    18.998403162730
         O            0.201552000000     2.379442000000     1.269283000000    15.994914619570
         H            1.013565000000     2.687047000000     0.939558000000     1.007825032230
         H            0.155342000000     1.525594000000     0.845189000000     1.007825032230
         O            0.236368000000    -1.899810000000    -2.155158000000    15.994914619570
         H            0.057747000000    -2.671067000000    -1.620418000000     1.007825032230
         H            0.039340000000    -1.225771000000    -1.496507000000     1.007825032230
         O           -1.902528000000    -1.173327000000     1.751797000000    15.994914619570
         H           -2.408246000000    -0.467276000000     2.231861000000     1.007825032230
         H           -1.241179000000    -0.782759000000     1.178792000000     1.007825032230
         O           -2.154508000000     1.404000000000    -1.305374000000    15.994914619570
         H           -1.492883000000     0.912606000000    -0.734862000000     1.007825032230
         H           -1.805542000000     2.277133000000    -1.424237000000     1.007825032230
         O            1.499428000000    -1.231164000000     1.872563000000    15.994914619570
         H            0.915236000000    -1.644768000000     2.531361000000     1.007825032230
         H            1.009227000000    -0.739951000000     1.204952000000     1.007825032230

  Running in c1 symmetry.

  Rotational constants: A =      0.04024  B =      0.03938  C =      0.03093 [cm^-1]
  Rotational constants: A =   1206.48611  B =   1180.45352  C =    927.20068 [MHz]
  Nuclear repulsion =  263.635479919700856

  Charge       = -1
  Multiplicity = 1
  Electrons    = 60
  Nalpha       = 30
  Nbeta        = 30

  ==> Algorithm <==

  SCF Algorithm Type is DF.
  DIIS enabled.
  MOM disabled.
  Fractional occupation disabled.
  Guess Type is SAD.
  Energy threshold   = 1.00e-08
  Density threshold  = 1.00e-08
  Integral threshold = 1.00e-12

  ==> Primary Basis <==

  Basis Set: AUG-CC-PVTZ
    Blend: AUG-CC-PVTZ
    Number of shells: 174
    Number of basis functions: 506
    Number of Cartesian functions: 580
    Spherical Harmonics?: true
    Max angular momentum: 3

   => Loading Basis Set <=

    Name: (AUG-CC-PVTZ AUX)
    Role: JKFIT
    Keyword: DF_BASIS_SCF
    atoms 1                            entry F          line   348 file /ddmfs1b/softs/psi4conda/share/psi4/basis/aug-cc-pvtz-jkfit.gbs 
    atoms 2, 5, 8, 11, 14              entry O          line   286 file /ddmfs1b/softs/psi4conda/share/psi4/basis/aug-cc-pvtz-jkfit.gbs 
    atoms 3-4, 6-7, 9-10, 12-13, 15-16 entry H          line    70 file /ddmfs1b/softs/psi4conda/share/psi4/basis/aug-cc-pvtz-jkfit.gbs 

  ==> Integral Setup <==

  DFHelper Memory: AOs need 1.970 GiB; user supplied 41.910 GiB. 
  Using in-core AOs.

  ==> MemDFJK: Density-Fitted J/K Matrices <==

    J tasked:                   Yes
    K tasked:                   Yes
    wK tasked:                   No
    OpenMP threads:              20
    Memory [MiB]:             42915
    Algorithm:                 Core
    Schwarz Cutoff:           1E-12
    Mask sparsity (%):       9.4994
    Fitting Condition:        1E-10

   => Auxiliary Basis Set <=

  Basis Set: (AUG-CC-PVTZ AUX)
    Blend: AUG-CC-PVTZ-JKFIT
    Number of shells: 320
    Number of basis functions: 1084
    Number of Cartesian functions: 1336
    Spherical Harmonics?: true
    Max angular momentum: 4

  Minimum eigenvalue in the overlap matrix is 6.7876803614E-05.
  Reciprocal condition number of the overlap matrix is 4.8476211122E-06.
    Using symmetric orthogonalization.

  ==> Pre-Iterations <==

  SCF Guess: Superposition of Atomic Densities via on-the-fly atomic UHF (no occupation information).

   -------------------------
    Irrep   Nso     Nmo    
   -------------------------
     A        506     506 
   -------------------------
    Total     506     506
   -------------------------

  ==> Iterations <==

                           Total Energy        Delta E     RMS |[F,P]|

   @DF-RHF iter SAD:  -476.63444241765643   -4.76634e+02   0.00000e+00 
   @DF-RHF iter   1:  -479.42826321695065   -2.79382e+00   2.15760e-03 DIIS/ADIIS
   @DF-RHF iter   2:  -479.70890936041206   -2.80646e-01   1.43998e-03 DIIS/ADIIS
   @DF-RHF iter   3:  -479.86648893061073   -1.57580e-01   9.32485e-05 DIIS
   @DF-RHF iter   4:  -479.86834927652416   -1.86035e-03   2.45136e-05 DIIS
   @DF-RHF iter   5:  -479.86844880873298   -9.95322e-05   1.07592e-05 DIIS
   @DF-RHF iter   6:  -479.86846404395351   -1.52352e-05   2.97652e-06 DIIS
   @DF-RHF iter   7:  -479.86846617554522   -2.13159e-06   7.39104e-07 DIIS
   @DF-RHF iter   8:  -479.86846633971243   -1.64167e-07   2.99160e-07 DIIS
   @DF-RHF iter   9:  -479.86846635310127   -1.33888e-08   6.99530e-08 DIIS
   @DF-RHF iter  10:  -479.86846635449638   -1.39511e-09   1.14483e-08 DIIS
   @DF-RHF iter  11:  -479.86846635453895   -4.25757e-11   3.58170e-09 DIIS
  Energy and wave function converged.


  ==> Post-Iterations <==

    Orbital Energies [Eh]
    ---------------------

    Doubly Occupied:                                                      

       1A    -26.007120     2A    -20.414370     3A    -20.404708  
       4A    -20.404032     5A    -20.402633     6A    -20.391671  
       7A     -1.276603     8A     -1.206131     9A     -1.194061  
      10A     -1.190669    11A     -1.183504    12A     -1.173671  
      13A     -0.573205    14A     -0.566722    15A     -0.565091  
      16A     -0.552291    17A     -0.543435    18A     -0.451351  
      19A     -0.440054    20A     -0.430151    21A     -0.429050  
      22A     -0.411438    23A     -0.365322    24A     -0.362220  
      25A     -0.358847    26A     -0.357128    27A     -0.354879  
      28A     -0.348407    29A     -0.345401    30A     -0.337636  

    Virtual:                                                              

      31A      0.118734    32A      0.127664    33A      0.136267  
      34A      0.138392    35A      0.145122    36A      0.173609  
      37A      0.180323    38A      0.181906    39A      0.193617  
      40A      0.197188    41A      0.257650    42A      0.265238  
      43A      0.268953    44A      0.274342    45A      0.279770  
      46A      0.285598    47A      0.290912    48A      0.294264  
      49A      0.295841    50A      0.306847    51A      0.316882  
      52A      0.322401    53A      0.328400    54A      0.336590  
      55A      0.344333    56A      0.349273    57A      0.353089  
      58A      0.359989    59A      0.361062    60A      0.368528  
      61A      0.375582    62A      0.383502    63A      0.392744  
      64A      0.397586    65A      0.422974    66A      0.428875  
      67A      0.443405    68A      0.445389    69A      0.454904  
      70A      0.461908    71A      0.474108    72A      0.476030  
      73A      0.481671    74A      0.488081    75A      0.494592  
      76A      0.506930    77A      0.515116    78A      0.522437  
      79A      0.536057    80A      0.545793    81A      0.551893  
      82A      0.563875    83A      0.564484    84A      0.575406  
      85A      0.581389    86A      0.586068    87A      0.592686  
      88A      0.600074    89A      0.607834    90A      0.627626  
      91A      0.643282    92A      0.655936    93A      0.667289  
      94A      0.674831    95A      0.680731    96A      0.697689  
      97A      0.713749    98A      0.724624    99A      0.729805  
     100A      0.740056   101A      0.757122   102A      0.761113  
     103A      0.772094   104A      0.810540   105A      0.821711  
     106A      0.825441   107A      0.829227   108A      0.849013  
     109A      0.852022   110A      0.860066   111A      0.862937  
     112A      0.870162   113A      0.877594   114A      0.888609  
     115A      0.895323   116A      0.901251   117A      0.905535  
     118A      0.912907   119A      0.918762   120A      0.924372  
     121A      0.930315   122A      0.938424   123A      0.945269  
     124A      0.955527   125A      0.971153   126A      0.985388  
     127A      0.987354   128A      0.993222   129A      1.018323  
     130A      1.022659   131A      1.032592   132A      1.038204  
     133A      1.047944   134A      1.052849   135A      1.058352  
     136A      1.064959   137A      1.082625   138A      1.087007  
     139A      1.089980   140A      1.097662   141A      1.103339  
     142A      1.106289   143A      1.114805   144A      1.130007  
     145A      1.134538   146A      1.137802   147A      1.139847  
     148A      1.152941   149A      1.156986   150A      1.159009  
     151A      1.172264   152A      1.179174   153A      1.183388  
     154A      1.193304   155A      1.194713   156A      1.197161  
     157A      1.206294   158A      1.217329   159A      1.224891  
     160A      1.236115   161A      1.245935   162A      1.262905  
     163A      1.270878   164A      1.278801   165A      1.281948  
     166A      1.294990   167A      1.316336   168A      1.323564  
     169A      1.328593   170A      1.345938   171A      1.359148  
     172A      1.372957   173A      1.376581   174A      1.393079  
     175A      1.401959   176A      1.403742   177A      1.417911  
     178A      1.424714   179A      1.432182   180A      1.447753  
     181A      1.462917   182A      1.465859   183A      1.471959  
     184A      1.486279   185A      1.493282   186A      1.500292  
     187A      1.503083   188A      1.526559   189A      1.535391  
     190A      1.560596   191A      1.573760   192A      1.581297  
     193A      1.596271   194A      1.609936   195A      1.617372  
     196A      1.635752   197A      1.660565   198A      1.666097  
     199A      1.675619   200A      1.685565   201A      1.690670  
     202A      1.713606   203A      1.715898   204A      1.720375  
     205A      1.730616   206A      1.742908   207A      1.747487  
     208A      1.763778   209A      1.782892   210A      1.803807  
     211A      1.804711   212A      1.829135   213A      1.841600  
     214A      1.854971   215A      1.859915   216A      1.894872  
     217A      1.902049   218A      1.932011   219A      1.934051  
     220A      1.944038   221A      1.967035   222A      1.985749  
     223A      2.007029   224A      2.011506   225A      2.017140  
     226A      2.062374   227A      2.083681   228A      2.089595  
     229A      2.098327   230A      2.118109   231A      2.164355  
     232A      2.168228   233A      2.181376   234A      2.188270  
     235A      2.201151   236A      2.207993   237A      2.249650  
     238A      2.273901   239A      2.383609   240A      2.427733  
     241A      2.437898   242A      2.448773   243A      2.454503  
     244A      2.475922   245A      2.486087   246A      2.498770  
     247A      2.513051   248A      2.526924   249A      2.537210  
     250A      2.555224   251A      2.582094   252A      2.588383  
     253A      2.591417   254A      2.609022   255A      2.620935  
     256A      2.624015   257A      2.636894   258A      2.644160  
     259A      2.651079   260A      2.652674   261A      2.662427  
     262A      2.671371   263A      2.679857   264A      2.688732  
     265A      2.710248   266A      2.712799   267A      2.724584  
     268A      2.749165   269A      2.769328   270A      2.774715  
     271A      2.780761   272A      2.796923   273A      2.812732  
     274A      2.820105   275A      2.833720   276A      2.848579  
     277A      2.861190   278A      2.889878   279A      2.897695  
     280A      2.905549   281A      2.922594   282A      2.933295  
     283A      2.939908   284A      2.953981   285A      2.962538  
     286A      2.979968   287A      2.990017   288A      3.004430  
     289A      3.015412   290A      3.030608   291A      3.038515  
     292A      3.049196   293A      3.065026   294A      3.068884  
     295A      3.095815   296A      3.134394   297A      3.148627  
     298A      3.167915   299A      3.191380   300A      3.223668  
     301A      3.243538   302A      3.261098   303A      3.271052  
     304A      3.300000   305A      3.310624   306A      3.331251  
     307A      3.367553   308A      3.509071   309A      3.559853  
     310A      3.569068   311A      3.668925   312A      3.689647  
     313A      3.739263   314A      3.772154   315A      3.797676  
     316A      3.823763   317A      3.873075   318A      3.908707  
     319A      3.916196   320A      3.935341   321A      3.954351  
     322A      3.985558   323A      3.996247   324A      4.040626  
     325A      4.155197   326A      4.217102   327A      4.226431  
     328A      4.231184   329A      4.233541   330A      4.241105  
     331A      4.273810   332A      4.287259   333A      4.299515  
     334A      4.314419   335A      4.342909   336A      4.358120  
     337A      4.383638   338A      4.402777   339A      4.420792  
     340A      4.431661   341A      4.438349   342A      4.448293  
     343A      4.465761   344A      4.470467   345A      4.484190  
     346A      4.491158   347A      4.500925   348A      4.512892  
     349A      4.521231   350A      4.538461   351A      4.547097  
     352A      4.554577   353A      4.563353   354A      4.577031  
     355A      4.583165   356A      4.590613   357A      4.596269  
     358A      4.610789   359A      4.619452   360A      4.629239  
     361A      4.652525   362A      4.654349   363A      4.666912  
     364A      4.677175   365A      4.689914   366A      4.713654  
     367A      4.724992   368A      4.760182   369A      4.782115  
     370A      4.803206   371A      4.814872   372A      4.829249  
     373A      4.856192   374A      4.864563   375A      4.893106  
     376A      4.944733   377A      4.966800   378A      5.002721  
     379A      5.021035   380A      5.062790   381A      5.121787  
     382A      5.139188   383A      5.189672   384A      5.202469  
     385A      5.289264   386A      5.312359   387A      5.321301  
     388A      5.341731   389A      5.349795   390A      5.364447  
     391A      5.378885   392A      5.414744   393A      5.428514  
     394A      5.456147   395A      5.493513   396A      5.510500  
     397A      5.523007   398A      5.544118   399A      5.558842  
     400A      5.568290   401A      5.588052   402A      5.599755  
     403A      5.636455   404A      5.664050   405A      5.687863  
     406A      5.725404   407A      5.746244   408A      5.761978  
     409A      5.795641   410A      5.827586   411A      5.859579  
     412A      5.935183   413A      5.990447   414A      5.997671  
     415A      6.091398   416A      6.317218   417A      6.361314  
     418A      6.388624   419A      6.450994   420A      6.487916  
     421A      6.568249   422A      6.603863   423A      6.701692  
     424A      6.708770   425A      6.732965   426A      6.761687  
     427A      6.768709   428A      6.790809   429A      6.932224  
     430A      6.955133   431A      6.972384   432A      7.000371  
     433A      7.003908   434A      7.033675   435A      7.084332  
     436A      7.112696   437A      7.214990   438A      7.266069  
     439A      7.322449   440A      7.325375   441A      7.333698  
     442A      7.355955   443A      7.366937   444A      7.424895  
     445A      7.426075   446A      7.450360   447A      7.470236  
     448A      7.471222   449A      7.496478   450A      7.501342  
     451A      7.511551   452A      7.515913   453A      7.523099  
     454A      7.528703   455A      7.542952   456A      7.546195  
     457A      7.558920   458A      7.586899   459A      7.611724  
     460A      7.621935   461A      7.634058   462A      7.656524  
     463A      7.680819   464A      7.710664   465A      7.732210  
     466A      7.737424   467A      7.777850   468A      7.802164  
     469A      7.895876   470A      7.920169   471A      7.972781  
     472A      7.986049   473A      8.041044   474A      8.085210  
     475A      8.109191   476A      8.118492   477A      8.155202  
     478A      8.190776   479A      8.203717   480A      8.233940  
     481A      8.252412   482A      8.286908   483A      8.306768  
     484A      8.888544   485A      8.918498   486A      8.952745  
     487A      9.059405   488A      9.174691   489A      9.298109  
     490A      9.450000   491A      9.477983   492A      9.593724  
     493A      9.740684   494A      9.923224   495A      9.958278  
     496A      9.994087   497A     10.066242   498A     10.075476  
     499A     10.152398   500A     10.266056   501A     14.933996  
     502A     16.671612   503A     17.215897   504A     17.323308  
     505A     17.621714   506A     18.228905  

    Final Occupation by Irrep:
              A 
    DOCC [    30 ]
    NA   [    30 ]
    NB   [    30 ]

  @DF-RHF Final Energy:  -479.86846635453895

   => Energetics <=

    Nuclear Repulsion Energy =            263.6354799197008560
    One-Electron Energy =               -1200.9242828989047212
    Two-Electron Energy =                 457.4203366246649125
    Total Energy =                       -479.8684663545389526

Computation Completed


Properties will be evaluated at   0.000000,   0.000000,   0.000000 [a0]

Properties computed using the SCF density matrix


 Multipole Moments:

 ------------------------------------------------------------------------------------
     Multipole            Electronic (a.u.)      Nuclear  (a.u.)        Total (a.u.)
 ------------------------------------------------------------------------------------

 L = 1.  Multiply by 2.5417464519 to convert [e a0] to [Debye]
 Dipole X            :         39.6503590          -39.1454820            0.5048770
 Dipole Y            :          8.7527461           -8.1184222            0.6343240
 Dipole Z            :        -28.3362485           28.5737494            0.2375009
 Magnitude           :                                                    0.8447925

 ------------------------------------------------------------------------------------

*** tstop() called on ddmfs1 at Mon Jan 22 18:02:23 2024
Module time:
	user time   =     124.36 seconds =       2.07 minutes
	system time =       6.46 seconds =       0.11 minutes
	total time  =          7 seconds =       0.12 minutes
Total time:
	user time   =     124.36 seconds =       2.07 minutes
	system time =       6.46 seconds =       0.11 minutes
	total time  =          7 seconds =       0.12 minutes

*** tstart() called on ddmfs1
*** at Mon Jan 22 18:02:23 2024


  //>>>>>>>>>>>>>>>>>>>>>>>>>>>>>>>>>>>//
  //               DFMP2               //
  //<<<<<<<<<<<<<<<<<<<<<<<<<<<<<<<<<<<//

   => Loading Basis Set <=

    Name: (AUG-CC-PVTZ AUX)
    Role: RIFIT
    Keyword: DF_BASIS_MP2
    atoms 1                            entry F          line   322 file /ddmfs1b/softs/psi4conda/share/psi4/basis/aug-cc-pvtz-ri.gbs 
    atoms 2, 5, 8, 11, 14              entry O          line   264 file /ddmfs1b/softs/psi4conda/share/psi4/basis/aug-cc-pvtz-ri.gbs 
    atoms 3-4, 6-7, 9-10, 12-13, 15-16 entry H          line    30 file /ddmfs1b/softs/psi4conda/share/psi4/basis/aug-cc-pvtz-ri.gbs 

	 --------------------------------------------------------
	                          DF-MP2                         
	      2nd-Order Density-Fitted Moller-Plesset Theory     
	              RMP2 Wavefunction,  20 Threads             
	                                                         
	        Rob Parrish, Justin Turney, Andy Simmonett,      
	           Ed Hohenstein, and C. David Sherrill          
	 --------------------------------------------------------

   => Auxiliary Basis Set <=

  Basis Set: (AUG-CC-PVTZ AUX)
    Blend: AUG-CC-PVTZ-RI
    Number of shells: 308
    Number of basis functions: 1096
    Number of Cartesian functions: 1366
    Spherical Harmonics?: true
    Max angular momentum: 4

	 --------------------------------------------------------
	                 NBF =   506, NAUX =  1096
	 --------------------------------------------------------
	   CLASS    FOCC     OCC    AOCC    AVIR     VIR    FVIR
	   PAIRS       0      30      30     476     476       0
	 --------------------------------------------------------

	-----------------------------------------------------------
	 ==================> DF-MP2 Energies <==================== 
	-----------------------------------------------------------
	 Reference Energy          =    -479.8684663545389526 [Eh]
	 Singles Energy            =      -0.0000000000000000 [Eh]
	 Same-Spin Energy          =      -0.4320574368420200 [Eh]
	 Opposite-Spin Energy      =      -1.3140156733239958 [Eh]
	 Correlation Energy        =      -1.7460731101660159 [Eh]
	 Total Energy              =    -481.6145394647049898 [Eh]
	-----------------------------------------------------------
	 ================> DF-SCS-MP2 Energies <================== 
	-----------------------------------------------------------
	 SCS Same-Spin Scale       =       0.3333333333333333 [-]
	 SCS Opposite-Spin Scale   =       1.2000000000000000 [-]
	 SCS Same-Spin Energy      =      -0.1440191456140067 [Eh]
	 SCS Opposite-Spin Energy  =      -1.5768188079887950 [Eh]
	 SCS Correlation Energy    =      -1.7208379536028018 [Eh]
	 SCS Total Energy          =    -481.5893043081417773 [Eh]
	-----------------------------------------------------------


*** tstop() called on ddmfs1 at Mon Jan 22 18:02:28 2024
Module time:
	user time   =      38.99 seconds =       0.65 minutes
	system time =       1.78 seconds =       0.03 minutes
	total time  =          5 seconds =       0.08 minutes
Total time:
	user time   =     163.37 seconds =       2.72 minutes
	system time =       8.24 seconds =       0.14 minutes
	total time  =         12 seconds =       0.20 minutes

    Psi4 stopped on: Monday, 22 January 2024 06:02PM
    Psi4 wall time for execution: 0:00:11.98

*** Psi4 exiting successfully. Buy a developer a beer!
