
    -----------------------------------------------------------------------
          Psi4: An Open-Source Ab Initio Electronic Structure Package
                               Psi4 1.8.2 release

                         Git: Rev {} zzzzzzz 


    D. G. A. Smith, L. A. Burns, A. C. Simmonett, R. M. Parrish,
    M. C. Schieber, R. Galvelis, P. Kraus, H. Kruse, R. Di Remigio,
    A. Alenaizan, A. M. James, S. Lehtola, J. P. Misiewicz, M. Scheurer,
    R. A. Shaw, J. B. Schriber, Y. Xie, Z. L. Glick, D. A. Sirianni,
    J. S. O'Brien, J. M. Waldrop, A. Kumar, E. G. Hohenstein,
    B. P. Pritchard, B. R. Brooks, H. F. Schaefer III, A. Yu. Sokolov,
    K. Patkowski, A. E. DePrince III, U. Bozkaya, R. A. King,
    F. A. Evangelista, J. M. Turney, T. D. Crawford, C. D. Sherrill,
    J. Chem. Phys. 152(18) 184108 (2020). https://doi.org/10.1063/5.0006002

                            Additional Code Authors
    E. T. Seidl, C. L. Janssen, E. F. Valeev, M. L. Leininger,
    J. F. Gonthier, R. M. Richard, H. R. McAlexander, M. Saitow, X. Wang,
    P. Verma, M. H. Lechner, A. Jiang, S. Behnle, A. G. Heide,
    M. F. Herbst, and D. L. Poole

             Previous Authors, Complete List of Code Contributors,
                       and Citations for Specific Modules
    https://github.com/psi4/psi4/blob/master/codemeta.json
    https://github.com/psi4/psi4/graphs/contributors
    http://psicode.org/psi4manual/master/introduction.html#citing-psifour

    -----------------------------------------------------------------------


    Psi4 started on: Monday, 22 January 2024 06:35PM

    Process ID: 91352
    Host:       ddmfs1
    PSIDATADIR: /ddmfs1b/softs/psi4conda/share/psi4
    Memory:     500.0 MiB
    Threads:    20
    
  ==> Input File <==

--------------------------------------------------------------------------
MEMORY 60 GB

molecule dimer {
-1 1
F          0.000000     0.000000     0.000000
O          0.680826    -0.939261    -2.565720
H          0.776711    -0.509976    -1.665094
H          1.177620    -0.426589    -3.141786
O          2.494322     1.215623     0.856945
H          3.185249     1.015423     1.522625
H          1.828253     0.531859     0.918648
O          0.310218    -2.799566     0.371117
H          0.088505    -1.923298     0.173876
H          0.230665    -3.288922    -0.432281
O         -1.077882     0.253175     2.550768
H         -0.802564     0.336791     1.574496
H         -0.449028    -0.396209     2.897838
O         -0.031927     3.083942    -0.157883
H          0.456398     3.797739    -0.602452
H          0.246498     2.223721    -0.550204
O         -2.743171    -0.297210    -0.425433
H         -1.827612    -0.242352    -0.365725
H         -3.147919     0.492464     0.012583

units ang
no_reorient
no_com
symmetry c1
}

set {
basis        aug-cc-pVTZ
scf_type     df
}

energy("mp2")
--------------------------------------------------------------------------

  Memory set to  55.879 GiB by Python driver.

Scratch directory: /ddmfs1a/scratch/
   => Libint2 <=

    Primary   basis highest AM E, G, H:  5, 4, 3
    Auxiliary basis highest AM E, G, H:  6, 5, 4
    Onebody   basis highest AM E, G, H:  6, 5, 4
    Solid Harmonics ordering:            gaussian

*** tstart() called on ddmfs1
*** at Mon Jan 22 18:35:28 2024

   => Loading Basis Set <=

    Name: AUG-CC-PVTZ
    Role: ORBITAL
    Keyword: BASIS
    atoms 1                                   entry F          line   377 file /ddmfs1b/softs/psi4conda/share/psi4/basis/aug-cc-pvtz.gbs 
    atoms 2, 5, 8, 11, 14, 17                 entry O          line   331 file /ddmfs1b/softs/psi4conda/share/psi4/basis/aug-cc-pvtz.gbs 
    atoms 3-4, 6-7, 9-10, 12-13, 15-16, 18-19 entry H          line    40 file /ddmfs1b/softs/psi4conda/share/psi4/basis/aug-cc-pvtz.gbs 


         ---------------------------------------------------------
                                   SCF
               by Justin Turney, Rob Parrish, Andy Simmonett
                          and Daniel G. A. Smith
                              RHF Reference
                       20 Threads,  57220 MiB Core
         ---------------------------------------------------------

  ==> Geometry <==

    Molecular point group: c1
    Full point group: C1

    Geometry (in Angstrom), charge = -1, multiplicity = 1:

       Center              X                  Y                   Z               Mass       
    ------------   -----------------  -----------------  -----------------  -----------------
         F            0.000000000000     0.000000000000     0.000000000000    18.998403162730
         O            0.680826000000    -0.939261000000    -2.565720000000    15.994914619570
         H            0.776711000000    -0.509976000000    -1.665094000000     1.007825032230
         H            1.177620000000    -0.426589000000    -3.141786000000     1.007825032230
         O            2.494322000000     1.215623000000     0.856945000000    15.994914619570
         H            3.185249000000     1.015423000000     1.522625000000     1.007825032230
         H            1.828253000000     0.531859000000     0.918648000000     1.007825032230
         O            0.310218000000    -2.799566000000     0.371117000000    15.994914619570
         H            0.088505000000    -1.923298000000     0.173876000000     1.007825032230
         H            0.230665000000    -3.288922000000    -0.432281000000     1.007825032230
         O           -1.077882000000     0.253175000000     2.550768000000    15.994914619570
         H           -0.802564000000     0.336791000000     1.574496000000     1.007825032230
         H           -0.449028000000    -0.396209000000     2.897838000000     1.007825032230
         O           -0.031927000000     3.083942000000    -0.157883000000    15.994914619570
         H            0.456398000000     3.797739000000    -0.602452000000     1.007825032230
         H            0.246498000000     2.223721000000    -0.550204000000     1.007825032230
         O           -2.743171000000    -0.297210000000    -0.425433000000    15.994914619570
         H           -1.827612000000    -0.242352000000    -0.365725000000     1.007825032230
         H           -3.147919000000     0.492464000000     0.012583000000     1.007825032230

  Running in c1 symmetry.

  Rotational constants: A =      0.03319  B =      0.02812  C =      0.02534 [cm^-1]
  Rotational constants: A =    995.09045  B =    843.11803  C =    759.72257 [MHz]
  Nuclear repulsion =  347.174119078484011

  Charge       = -1
  Multiplicity = 1
  Electrons    = 70
  Nalpha       = 35
  Nbeta        = 35

  ==> Algorithm <==

  SCF Algorithm Type is DF.
  DIIS enabled.
  MOM disabled.
  Fractional occupation disabled.
  Guess Type is SAD.
  Energy threshold   = 1.00e-08
  Density threshold  = 1.00e-08
  Integral threshold = 1.00e-12

  ==> Primary Basis <==

  Basis Set: AUG-CC-PVTZ
    Blend: AUG-CC-PVTZ
    Number of shells: 206
    Number of basis functions: 598
    Number of Cartesian functions: 685
    Spherical Harmonics?: true
    Max angular momentum: 3

   => Loading Basis Set <=

    Name: (AUG-CC-PVTZ AUX)
    Role: JKFIT
    Keyword: DF_BASIS_SCF
    atoms 1                                   entry F          line   348 file /ddmfs1b/softs/psi4conda/share/psi4/basis/aug-cc-pvtz-jkfit.gbs 
    atoms 2, 5, 8, 11, 14, 17                 entry O          line   286 file /ddmfs1b/softs/psi4conda/share/psi4/basis/aug-cc-pvtz-jkfit.gbs 
    atoms 3-4, 6-7, 9-10, 12-13, 15-16, 18-19 entry H          line    70 file /ddmfs1b/softs/psi4conda/share/psi4/basis/aug-cc-pvtz-jkfit.gbs 

  ==> Integral Setup <==

  DFHelper Memory: AOs need 3.138 GiB; user supplied 41.910 GiB. 
  Using in-core AOs.

  ==> MemDFJK: Density-Fitted J/K Matrices <==

    J tasked:                   Yes
    K tasked:                   Yes
    wK tasked:                   No
    OpenMP threads:              20
    Memory [MiB]:             42915
    Algorithm:                 Core
    Schwarz Cutoff:           1E-12
    Mask sparsity (%):      12.0088
    Fitting Condition:        1E-10

   => Auxiliary Basis Set <=

  Basis Set: (AUG-CC-PVTZ AUX)
    Blend: AUG-CC-PVTZ-JKFIT
    Number of shells: 378
    Number of basis functions: 1280
    Number of Cartesian functions: 1577
    Spherical Harmonics?: true
    Max angular momentum: 4

  Minimum eigenvalue in the overlap matrix is 2.7683943440E-05.
  Reciprocal condition number of the overlap matrix is 1.8880409103E-06.
    Using symmetric orthogonalization.

  ==> Pre-Iterations <==

  SCF Guess: Superposition of Atomic Densities via on-the-fly atomic UHF (no occupation information).

   -------------------------
    Irrep   Nso     Nmo    
   -------------------------
     A        598     598 
   -------------------------
    Total     598     598
   -------------------------

  ==> Iterations <==

                           Total Energy        Delta E     RMS |[F,P]|

   @DF-RHF iter SAD:  -552.05900671764994   -5.52059e+02   0.00000e+00 
   @DF-RHF iter   1:  -555.38256352869473   -3.32356e+00   1.99476e-03 DIIS/ADIIS
   @DF-RHF iter   2:  -555.72076154551314   -3.38198e-01   1.34281e-03 DIIS/ADIIS
   @DF-RHF iter   3:  -555.91324351739695   -1.92482e-01   8.86056e-05 DIIS
   @DF-RHF iter   4:  -555.91557809606843   -2.33458e-03   2.31727e-05 DIIS
   @DF-RHF iter   5:  -555.91571500491114   -1.36909e-04   9.09738e-06 DIIS
   @DF-RHF iter   6:  -555.91573326145362   -1.82565e-05   2.82700e-06 DIIS
   @DF-RHF iter   7:  -555.91573592851478   -2.66706e-06   6.47419e-07 DIIS
   @DF-RHF iter   8:  -555.91573613830849   -2.09794e-07   2.24872e-07 DIIS
   @DF-RHF iter   9:  -555.91573614824722   -9.93873e-09   7.30957e-08 DIIS
   @DF-RHF iter  10:  -555.91573614985930   -1.61208e-09   1.16838e-08 DIIS
   @DF-RHF iter  11:  -555.91573614991205   -5.27507e-11   4.70675e-09 DIIS
  Energy and wave function converged.


  ==> Post-Iterations <==

    Orbital Energies [Eh]
    ---------------------

    Doubly Occupied:                                                      

       1A    -25.994430     2A    -20.426859     3A    -20.422886  
       4A    -20.412678     5A    -20.399169     6A    -20.392327  
       7A    -20.389158     8A     -1.260537     9A     -1.206313  
      10A     -1.203304    11A     -1.202626    12A     -1.194555  
      13A     -1.179938    14A     -1.161546    15A     -0.580033  
      16A     -0.577855    17A     -0.571565    18A     -0.566982  
      19A     -0.559895    20A     -0.525497    21A     -0.442280  
      22A     -0.438572    23A     -0.431263    24A     -0.428733  
      25A     -0.418794    26A     -0.412498    27A     -0.372253  
      28A     -0.364417    29A     -0.360133    30A     -0.355193  
      31A     -0.354766    32A     -0.347410    33A     -0.342409  
      34A     -0.337884    35A     -0.329753  

    Virtual:                                                              

      36A      0.109611    37A      0.118400    38A      0.123819  
      39A      0.133371    40A      0.141141    41A      0.147692  
      42A      0.179195    43A      0.182083    44A      0.188674  
      45A      0.192081    46A      0.202016    47A      0.208829  
      48A      0.243235    49A      0.255171    50A      0.260320  
      51A      0.265215    52A      0.266145    53A      0.277789  
      54A      0.280697    55A      0.283726    56A      0.290222  
      57A      0.296448    58A      0.303243    59A      0.315484  
      60A      0.320327    61A      0.325314    62A      0.329888  
      63A      0.339197    64A      0.342181    65A      0.348554  
      66A      0.353121    67A      0.363979    68A      0.370002  
      69A      0.371572    70A      0.380405    71A      0.383791  
      72A      0.392776    73A      0.400162    74A      0.409820  
      75A      0.412118    76A      0.420579    77A      0.432420  
      78A      0.437507    79A      0.448678    80A      0.457162  
      81A      0.464343    82A      0.466260    83A      0.476220  
      84A      0.478654    85A      0.483478    86A      0.486552  
      87A      0.495680    88A      0.502774    89A      0.508728  
      90A      0.512109    91A      0.527796    92A      0.532250  
      93A      0.534842    94A      0.544853    95A      0.551543  
      96A      0.555161    97A      0.560419    98A      0.568266  
      99A      0.570226   100A      0.579185   101A      0.588645  
     102A      0.601841   103A      0.603582   104A      0.609715  
     105A      0.616263   106A      0.622961   107A      0.644270  
     108A      0.647261   109A      0.660600   110A      0.665822  
     111A      0.673092   112A      0.696722   113A      0.701570  
     114A      0.719975   115A      0.720409   116A      0.727465  
     117A      0.731600   118A      0.736830   119A      0.753549  
     120A      0.764838   121A      0.789242   122A      0.794163  
     123A      0.806379   124A      0.815658   125A      0.834470  
     126A      0.844900   127A      0.851061   128A      0.854117  
     129A      0.861192   130A      0.866804   131A      0.874516  
     132A      0.877308   133A      0.885248   134A      0.888116  
     135A      0.891471   136A      0.897941   137A      0.905662  
     138A      0.909820   139A      0.916345   140A      0.924941  
     141A      0.928968   142A      0.932568   143A      0.947832  
     144A      0.951162   145A      0.957199   146A      0.963052  
     147A      0.971698   148A      0.980425   149A      0.990953  
     150A      0.998803   151A      1.008830   152A      1.014709  
     153A      1.019060   154A      1.024251   155A      1.031603  
     156A      1.032103   157A      1.043245   158A      1.048957  
     159A      1.049777   160A      1.065077   161A      1.070261  
     162A      1.075301   163A      1.083544   164A      1.090796  
     165A      1.094117   166A      1.097908   167A      1.109029  
     168A      1.113468   169A      1.115167   170A      1.122330  
     171A      1.131205   172A      1.134590   173A      1.140389  
     174A      1.145913   175A      1.148504   176A      1.155877  
     177A      1.167164   178A      1.171032   179A      1.177672  
     180A      1.181178   181A      1.191215   182A      1.193028  
     183A      1.201875   184A      1.213656   185A      1.215269  
     186A      1.221437   187A      1.225582   188A      1.234262  
     189A      1.245299   190A      1.250832   191A      1.263948  
     192A      1.267358   193A      1.276589   194A      1.284293  
     195A      1.288535   196A      1.301396   197A      1.307785  
     198A      1.314863   199A      1.330533   200A      1.334728  
     201A      1.342500   202A      1.348927   203A      1.359947  
     204A      1.368272   205A      1.370193   206A      1.384526  
     207A      1.393402   208A      1.395540   209A      1.413026  
     210A      1.429051   211A      1.438670   212A      1.442167  
     213A      1.457144   214A      1.458945   215A      1.468252  
     216A      1.471920   217A      1.484408   218A      1.496449  
     219A      1.500573   220A      1.511541   221A      1.527004  
     222A      1.538703   223A      1.541547   224A      1.552323  
     225A      1.558237   226A      1.562984   227A      1.577586  
     228A      1.581768   229A      1.591069   230A      1.597499  
     231A      1.616883   232A      1.620119   233A      1.645029  
     234A      1.650734   235A      1.654155   236A      1.667681  
     237A      1.686675   238A      1.698108   239A      1.705094  
     240A      1.709394   241A      1.729392   242A      1.736902  
     243A      1.754021   244A      1.767709   245A      1.773551  
     246A      1.779818   247A      1.794472   248A      1.803812  
     249A      1.808790   250A      1.820521   251A      1.825896  
     252A      1.832443   253A      1.850232   254A      1.864252  
     255A      1.868138   256A      1.878812   257A      1.896676  
     258A      1.903068   259A      1.931682   260A      1.939719  
     261A      1.955861   262A      1.965556   263A      1.982693  
     264A      1.997448   265A      2.017190   266A      2.028372  
     267A      2.044440   268A      2.073246   269A      2.077832  
     270A      2.085551   271A      2.102141   272A      2.108970  
     273A      2.133741   274A      2.137009   275A      2.175039  
     276A      2.188173   277A      2.199235   278A      2.207452  
     279A      2.221316   280A      2.226725   281A      2.265681  
     282A      2.269286   283A      2.335857   284A      2.360877  
     285A      2.394874   286A      2.414073   287A      2.443952  
     288A      2.455318   289A      2.468097   290A      2.477790  
     291A      2.487428   292A      2.492302   293A      2.503488  
     294A      2.506482   295A      2.515865   296A      2.544485  
     297A      2.550799   298A      2.565085   299A      2.572640  
     300A      2.582556   301A      2.593979   302A      2.599156  
     303A      2.608811   304A      2.617422   305A      2.624205  
     306A      2.632433   307A      2.642979   308A      2.651296  
     309A      2.655828   310A      2.662103   311A      2.679218  
     312A      2.682219   313A      2.689547   314A      2.698663  
     315A      2.705812   316A      2.708207   317A      2.713574  
     318A      2.733193   319A      2.745333   320A      2.761982  
     321A      2.772454   322A      2.776127   323A      2.793078  
     324A      2.805204   325A      2.822015   326A      2.835530  
     327A      2.843195   328A      2.855450   329A      2.862542  
     330A      2.877394   331A      2.897550   332A      2.909137  
     333A      2.914310   334A      2.927416   335A      2.936326  
     336A      2.950313   337A      2.960998   338A      2.966241  
     339A      2.980133   340A      2.983064   341A      2.988824  
     342A      3.010665   343A      3.023216   344A      3.032051  
     345A      3.053374   346A      3.060506   347A      3.076706  
     348A      3.078861   349A      3.084554   350A      3.098865  
     351A      3.111775   352A      3.127238   353A      3.133500  
     354A      3.154399   355A      3.170850   356A      3.180983  
     357A      3.202657   358A      3.225555   359A      3.249920  
     360A      3.256330   361A      3.261320   362A      3.278865  
     363A      3.307647   364A      3.314477   365A      3.338739  
     366A      3.431005   367A      3.487988   368A      3.616769  
     369A      3.658711   370A      3.695398   371A      3.732399  
     372A      3.759263   373A      3.762091   374A      3.794691  
     375A      3.853044   376A      3.866523   377A      3.881895  
     378A      3.939343   379A      3.952535   380A      3.971182  
     381A      3.994142   382A      4.041865   383A      4.058163  
     384A      4.069167   385A      4.126792   386A      4.193651  
     387A      4.215274   388A      4.227641   389A      4.234665  
     390A      4.265669   391A      4.269802   392A      4.291074  
     393A      4.297255   394A      4.315019   395A      4.324934  
     396A      4.336868   397A      4.364324   398A      4.379470  
     399A      4.408662   400A      4.424914   401A      4.431570  
     402A      4.437540   403A      4.456805   404A      4.461650  
     405A      4.468057   406A      4.481872   407A      4.492597  
     408A      4.495096   409A      4.515525   410A      4.523366  
     411A      4.532108   412A      4.542600   413A      4.548882  
     414A      4.554835   415A      4.563680   416A      4.572424  
     417A      4.579677   418A      4.583427   419A      4.590492  
     420A      4.598282   421A      4.603274   422A      4.616553  
     423A      4.631682   424A      4.640908   425A      4.645155  
     426A      4.651469   427A      4.664718   428A      4.672667  
     429A      4.684125   430A      4.690532   431A      4.702102  
     432A      4.707142   433A      4.709256   434A      4.728172  
     435A      4.749435   436A      4.762053   437A      4.775339  
     438A      4.794756   439A      4.805206   440A      4.836764  
     441A      4.843943   442A      4.875744   443A      4.891022  
     444A      4.919817   445A      4.936004   446A      4.962077  
     447A      4.985240   448A      5.010430   449A      5.041984  
     450A      5.052559   451A      5.072366   452A      5.114613  
     453A      5.167292   454A      5.198705   455A      5.214444  
     456A      5.259958   457A      5.269981   458A      5.277542  
     459A      5.288120   460A      5.309666   461A      5.317704  
     462A      5.344605   463A      5.349901   464A      5.363551  
     465A      5.370209   466A      5.401704   467A      5.439461  
     468A      5.450477   469A      5.464072   470A      5.489493  
     471A      5.502978   472A      5.512217   473A      5.540864  
     474A      5.563048   475A      5.570132   476A      5.575229  
     477A      5.601136   478A      5.616172   479A      5.649407  
     480A      5.663783   481A      5.671625   482A      5.731587  
     483A      5.763426   484A      5.793964   485A      5.797873  
     486A      5.815577   487A      5.902576   488A      5.936975  
     489A      5.946791   490A      5.959171   491A      6.033257  
     492A      6.077274   493A      6.352475   494A      6.361601  
     495A      6.367844   496A      6.421677   497A      6.433308  
     498A      6.470953   499A      6.504109   500A      6.591730  
     501A      6.700703   502A      6.739848   503A      6.757017  
     504A      6.761969   505A      6.768319   506A      6.775270  
     507A      6.805537   508A      6.936553   509A      6.942682  
     510A      6.972853   511A      7.005337   512A      7.027143  
     513A      7.047272   514A      7.057494   515A      7.080310  
     516A      7.120494   517A      7.136644   518A      7.158410  
     519A      7.172186   520A      7.288676   521A      7.304958  
     522A      7.323437   523A      7.348856   524A      7.385253  
     525A      7.394703   526A      7.414958   527A      7.434774  
     528A      7.455795   529A      7.467718   530A      7.473835  
     531A      7.482220   532A      7.489654   533A      7.493900  
     534A      7.505934   535A      7.508826   536A      7.519111  
     537A      7.526694   538A      7.537836   539A      7.544363  
     540A      7.553734   541A      7.559994   542A      7.568896  
     543A      7.578769   544A      7.586171   545A      7.592985  
     546A      7.598683   547A      7.611736   548A      7.626267  
     549A      7.639963   550A      7.675727   551A      7.677035  
     552A      7.704871   553A      7.736087   554A      7.751515  
     555A      7.801342   556A      7.836522   557A      7.888456  
     558A      7.915151   559A      7.959199   560A      8.030882  
     561A      8.049308   562A      8.082546   563A      8.092947  
     564A      8.113993   565A      8.137343   566A      8.140609  
     567A      8.169309   568A      8.179319   569A      8.213043  
     570A      8.236790   571A      8.249424   572A      8.345393  
     573A      8.366943   574A      8.859426   575A      8.884602  
     576A      8.925620   577A      8.975553   578A      9.003704  
     579A      9.112327   580A      9.252029   581A      9.422006  
     582A      9.476198   583A      9.500066   584A      9.695755  
     585A      9.777118   586A      9.995009   587A     10.017498  
     588A     10.050701   589A     10.083419   590A     10.275618  
     591A     10.312304   592A     14.779626   593A     15.897220  
     594A     16.267260   595A     16.417778   596A     16.665243  
     597A     18.178671   598A     18.298105  

    Final Occupation by Irrep:
              A 
    DOCC [    35 ]
    NA   [    35 ]
    NB   [    35 ]

  @DF-RHF Final Energy:  -555.91573614991205

   => Energetics <=

    Nuclear Repulsion Energy =            347.1741190784840114
    One-Electron Energy =               -1474.2506789539690999
    Two-Electron Energy =                 571.1608237255730955
    Total Energy =                       -555.9157361499120498

Computation Completed


Properties will be evaluated at   0.000000,   0.000000,   0.000000 [a0]

Properties computed using the SCF density matrix


 Multipole Moments:

 ------------------------------------------------------------------------------------
     Multipole            Electronic (a.u.)      Nuclear  (a.u.)        Total (a.u.)
 ------------------------------------------------------------------------------------

 L = 1.  Multiply by 2.5417464519 to convert [e a0] to [Debye]
 Dipole X            :          3.9547180           -2.2263544            1.7283636
 Dipole Y            :        -10.3557477           10.8551065            0.4993588
 Dipole Z            :        -10.8790454           10.1683820           -0.7106634
 Magnitude           :                                                    1.9343326

 ------------------------------------------------------------------------------------

*** tstop() called on ddmfs1 at Mon Jan 22 18:35:40 2024
Module time:
	user time   =     192.50 seconds =       3.21 minutes
	system time =      10.42 seconds =       0.17 minutes
	total time  =         12 seconds =       0.20 minutes
Total time:
	user time   =     192.50 seconds =       3.21 minutes
	system time =      10.42 seconds =       0.17 minutes
	total time  =         12 seconds =       0.20 minutes

*** tstart() called on ddmfs1
*** at Mon Jan 22 18:35:40 2024


  //>>>>>>>>>>>>>>>>>>>>>>>>>>>>>>>>>>>//
  //               DFMP2               //
  //<<<<<<<<<<<<<<<<<<<<<<<<<<<<<<<<<<<//

   => Loading Basis Set <=

    Name: (AUG-CC-PVTZ AUX)
    Role: RIFIT
    Keyword: DF_BASIS_MP2
    atoms 1                                   entry F          line   322 file /ddmfs1b/softs/psi4conda/share/psi4/basis/aug-cc-pvtz-ri.gbs 
    atoms 2, 5, 8, 11, 14, 17                 entry O          line   264 file /ddmfs1b/softs/psi4conda/share/psi4/basis/aug-cc-pvtz-ri.gbs 
    atoms 3-4, 6-7, 9-10, 12-13, 15-16, 18-19 entry H          line    30 file /ddmfs1b/softs/psi4conda/share/psi4/basis/aug-cc-pvtz-ri.gbs 

	 --------------------------------------------------------
	                          DF-MP2                         
	      2nd-Order Density-Fitted Moller-Plesset Theory     
	              RMP2 Wavefunction,  20 Threads             
	                                                         
	        Rob Parrish, Justin Turney, Andy Simmonett,      
	           Ed Hohenstein, and C. David Sherrill          
	 --------------------------------------------------------

   => Auxiliary Basis Set <=

  Basis Set: (AUG-CC-PVTZ AUX)
    Blend: AUG-CC-PVTZ-RI
    Number of shells: 364
    Number of basis functions: 1294
    Number of Cartesian functions: 1612
    Spherical Harmonics?: true
    Max angular momentum: 4

	 --------------------------------------------------------
	                 NBF =   598, NAUX =  1294
	 --------------------------------------------------------
	   CLASS    FOCC     OCC    AOCC    AVIR     VIR    FVIR
	   PAIRS       0      35      35     563     563       0
	 --------------------------------------------------------

	-----------------------------------------------------------
	 ==================> DF-MP2 Energies <==================== 
	-----------------------------------------------------------
	 Reference Energy          =    -555.9157361499120498 [Eh]
	 Singles Energy            =      -0.0000000000000000 [Eh]
	 Same-Spin Energy          =      -0.5011068210966488 [Eh]
	 Opposite-Spin Energy      =      -1.5307025452421092 [Eh]
	 Correlation Energy        =      -2.0318093663387580 [Eh]
	 Total Energy              =    -557.9475455162507842 [Eh]
	-----------------------------------------------------------
	 ================> DF-SCS-MP2 Energies <================== 
	-----------------------------------------------------------
	 SCS Same-Spin Scale       =       0.3333333333333333 [-]
	 SCS Opposite-Spin Scale   =       1.2000000000000000 [-]
	 SCS Same-Spin Energy      =      -0.1670356070322163 [Eh]
	 SCS Opposite-Spin Energy  =      -1.8368430542905310 [Eh]
	 SCS Correlation Energy    =      -2.0038786613227471 [Eh]
	 SCS Total Energy          =    -557.9196148112348510 [Eh]
	-----------------------------------------------------------


*** tstop() called on ddmfs1 at Mon Jan 22 18:35:47 2024
Module time:
	user time   =      63.48 seconds =       1.06 minutes
	system time =       2.47 seconds =       0.04 minutes
	total time  =          7 seconds =       0.12 minutes
Total time:
	user time   =     256.00 seconds =       4.27 minutes
	system time =      12.90 seconds =       0.21 minutes
	total time  =         19 seconds =       0.32 minutes

    Psi4 stopped on: Monday, 22 January 2024 06:35PM
    Psi4 wall time for execution: 0:00:18.70

*** Psi4 exiting successfully. Buy a developer a beer!
