
    -----------------------------------------------------------------------
          Psi4: An Open-Source Ab Initio Electronic Structure Package
                               Psi4 1.9 release

                         Git: Rev {} zzzzzzz 


    D. G. A. Smith, L. A. Burns, A. C. Simmonett, R. M. Parrish,
    M. C. Schieber, R. Galvelis, P. Kraus, H. Kruse, R. Di Remigio,
    A. Alenaizan, A. M. James, S. Lehtola, J. P. Misiewicz, M. Scheurer,
    R. A. Shaw, J. B. Schriber, Y. Xie, Z. L. Glick, D. A. Sirianni,
    J. S. O'Brien, J. M. Waldrop, A. Kumar, E. G. Hohenstein,
    B. P. Pritchard, B. R. Brooks, H. F. Schaefer III, A. Yu. Sokolov,
    K. Patkowski, A. E. DePrince III, U. Bozkaya, R. A. King,
    F. A. Evangelista, J. M. Turney, T. D. Crawford, C. D. Sherrill,
    J. Chem. Phys. 152(18) 184108 (2020). https://doi.org/10.1063/5.0006002

                            Additional Code Authors
    E. T. Seidl, C. L. Janssen, E. F. Valeev, M. L. Leininger,
    J. F. Gonthier, R. M. Richard, H. R. McAlexander, M. Saitow, X. Wang,
    P. Verma, M. H. Lechner, A. Jiang, S. Behnle, A. G. Heide,
    M. F. Herbst, and D. L. Poole

             Previous Authors, Complete List of Code Contributors,
                       and Citations for Specific Modules
    https://github.com/psi4/psi4/blob/master/codemeta.json
    https://github.com/psi4/psi4/graphs/contributors
    http://psicode.org/psi4manual/master/introduction.html#citing-psifour

    -----------------------------------------------------------------------


    Psi4 started on: Saturday, 06 January 2024 10:41PM

    Process ID: 558540
    Host:       moses-razer
    PSIDATADIR: /home/kchung25/anaconda3/envs/psi4_19/share/psi4
    Memory:     500.0 MiB
    Threads:    6
    
  ==> Input File <==

--------------------------------------------------------------------------
MEMORY 60 GB

molecule dimer {
-1 1
F      0.000000     0.000000     0.000000
--
0 1
O      0.740022     2.738323    -0.742341
H      0.140598     3.165775    -1.345208
H      0.324060     1.954101    -0.472573
O     -1.637000    -2.128907     1.209056
H     -1.409631    -2.982770     0.710761
H     -1.194739    -1.404565     0.713641
O     -2.586717     0.892440     0.631559
H     -1.647489     0.669471     0.494403
H     -3.184785     0.268742     0.256299
O      1.343206    -2.399485    -0.414928
H      0.998170    -2.994359     0.252667
H      1.012370    -1.551086    -0.254296
O     -1.062745     0.103470    -2.464943
H     -0.642973    -0.084048    -1.611420
H     -1.936889     0.466257    -2.189501
O      0.542504    -0.109357     2.673800
H      0.307584     0.028412     1.703925
H      0.033945     0.531994     3.170652

units ang
no_reorient
no_com
symmetry c1
}

set {
basis        aug-cc-pVTZ
scf_type     df
}

energy("mp2", bsse_type="cp")
--------------------------------------------------------------------------

  Memory set to  55.879 GiB by Python driver.

Scratch directory: /scratch/

  //>>>>>>>>>>>>>>>>>>>>>>>>>>>>>>>>>>>>>//
  // ManyBody Setup: N-Body Levels [1, 2]//
  //<<<<<<<<<<<<<<<<<<<<<<<<<<<<<<<<<<<<<//

        Number of 1-body computations:     2
        Number of 2-body computations:     1

    -----------------------------------------------------------------------
          Psi4: An Open-Source Ab Initio Electronic Structure Package
                               Psi4 1.9 release

                         Git: Rev {} zzzzzzz 


    D. G. A. Smith, L. A. Burns, A. C. Simmonett, R. M. Parrish,
    M. C. Schieber, R. Galvelis, P. Kraus, H. Kruse, R. Di Remigio,
    A. Alenaizan, A. M. James, S. Lehtola, J. P. Misiewicz, M. Scheurer,
    R. A. Shaw, J. B. Schriber, Y. Xie, Z. L. Glick, D. A. Sirianni,
    J. S. O'Brien, J. M. Waldrop, A. Kumar, E. G. Hohenstein,
    B. P. Pritchard, B. R. Brooks, H. F. Schaefer III, A. Yu. Sokolov,
    K. Patkowski, A. E. DePrince III, U. Bozkaya, R. A. King,
    F. A. Evangelista, J. M. Turney, T. D. Crawford, C. D. Sherrill,
    J. Chem. Phys. 152(18) 184108 (2020). https://doi.org/10.1063/5.0006002

                            Additional Code Authors
    E. T. Seidl, C. L. Janssen, E. F. Valeev, M. L. Leininger,
    J. F. Gonthier, R. M. Richard, H. R. McAlexander, M. Saitow, X. Wang,
    P. Verma, M. H. Lechner, A. Jiang, S. Behnle, A. G. Heide,
    M. F. Herbst, and D. L. Poole

             Previous Authors, Complete List of Code Contributors,
                       and Citations for Specific Modules
    https://github.com/psi4/psi4/blob/master/codemeta.json
    https://github.com/psi4/psi4/graphs/contributors
    http://psicode.org/psi4manual/master/introduction.html#citing-psifour

    -----------------------------------------------------------------------


    Psi4 started on: Saturday, 06 January 2024 10:41PM

    Process ID: 558540
    Host:       moses-razer
    PSIDATADIR: /home/kchung25/anaconda3/envs/psi4_19/share/psi4
    Memory:     55.9 GiB
    Threads:    6
    
  ==> Input QCSchema <==

--------------------------------------------------------------------------
{'driver': 'energy',
 'extras': {'psiapi': True, 'wfn_qcvars_only': True},
 'id': None,
 'keywords': {'SCF_TYPE': 'DF', 'function_kwargs': {}},
 'model': {'basis': 'aug-cc-pvtz', 'method': 'mp2'},
 'molecule': {'atom_labels': ['', '', '', '', '', '', '', '', '', '', '', '', '', '', '', '', '', '', ''],
              'atomic_numbers': [9, 8, 1, 1, 8, 1, 1, 8, 1, 1, 8, 1, 1, 8, 1, 1, 8, 1, 1],
              'extras': {},
              'fix_com': True,
              'fix_orientation': True,
              'fix_symmetry': 'c1',
              'fragment_charges': [0.0, 0.0],
              'fragment_multiplicities': [1, 1],
              'fragments': [[0], [1, 2, 3, 4, 5, 6, 7, 8, 9, 10, 11, 12, 13, 14, 15, 16, 17, 18]],
              'geometry': [0.0, 0.0, 0.0, 1.3984389068135528, 5.174680513042056, -1.4028211816984897,
                           0.26569171378711964, 5.982447724821256, -2.542074701774874, 0.6123846482158638,
                           3.6927157114832676, -0.8930335442859823, -3.0934816673744647, -4.023051176570048,
                           2.2847847103415395, -2.6638165279552433, -5.636618395231846, 1.3431436306565314,
                           -2.25772950140336, -2.6542431754036744, 1.34858604189785, -4.888186694065897,
                           1.6864671834035843, 1.1934735420680205, -3.1133030047043917, 1.2651168389363778,
                           0.9342862656047266, -6.018371418466209, 0.5078487784077876, 0.4843349162287159,
                           2.5382914700717074, -4.534369492144177, -0.7841002817839657, 1.8862679266482403,
                           -5.658518431299777, 0.47747143094105304, 1.9131020376297414, -2.931127737031881,
                           -0.4805497947994239, -2.0082969911996797, 0.19552996220112148, -4.658067184864395,
                           -1.2150428760639962, -0.15882770139247954, -3.0451424730852534, -3.6601897454118872,
                           0.8810980340775906, -4.13755724141604, 1.0251839819653736, -0.2066547799016917,
                           5.052749714249141, 0.5812495205728206, 0.053690898676507816, 3.2199515883207295,
                           0.06414675332866598, 1.0053229603868117, 5.991663919135114],
              'mass_numbers': [19, 16, 1, 1, 16, 1, 1, 16, 1, 1, 16, 1, 1, 16, 1, 1, 16, 1, 1],
              'masses': [18.99840316273, 15.99491461957, 1.00782503223, 1.00782503223, 15.99491461957, 1.00782503223,
                         1.00782503223, 15.99491461957, 1.00782503223, 1.00782503223, 15.99491461957, 1.00782503223,
                         1.00782503223, 15.99491461957, 1.00782503223, 1.00782503223, 15.99491461957, 1.00782503223,
                         1.00782503223],
              'molecular_charge': 0.0,
              'molecular_multiplicity': 1,
              'name': 'dimer',
              'provenance': {'creator': 'QCElemental',
                             'routine': 'qcelemental.molparse.from_string',
                             'version': '0.27.1'},
              'real': [False, True, True, True, True, True, True, True, True, True, True, True, True, True, True, True,
                       True, True, True],
              'schema_name': 'qcschema_molecule',
              'schema_version': 2,
              'symbols': ['F', 'O', 'H', 'H', 'O', 'H', 'H', 'O', 'H', 'H', 'O', 'H', 'H', 'O', 'H', 'H', 'O', 'H',
                          'H'],
              'validated': True},
 'protocols': {'stdout': True},
 'provenance': {'creator': 'QCElemental', 'routine': 'qcelemental.models.results', 'version': '0.27.1'},
 'schema_name': 'qcschema_input',
 'schema_version': 1}
--------------------------------------------------------------------------

Scratch directory: /scratch/
   => Libint2 <=

    Primary   basis highest AM E, G, H:  5, 4, 3
    Auxiliary basis highest AM E, G, H:  6, 5, 4
    Onebody   basis highest AM E, G, H:  6, 5, 4
    Solid Harmonics ordering:            gaussian

*** tstart() called on moses-razer
*** at Sat Jan  6 22:41:41 2024

   => Loading Basis Set <=

    Name: AUG-CC-PVTZ
    Role: ORBITAL
    Keyword: BASIS
    atoms 1                                   entry F          line   377 file /home/kchung25/anaconda3/envs/p415env/share/psi4/basis/aug-cc-pvtz.gbs 
    atoms 2, 5, 8, 11, 14, 17                 entry O          line   331 file /home/kchung25/anaconda3/envs/p415env/share/psi4/basis/aug-cc-pvtz.gbs 
    atoms 3-4, 6-7, 9-10, 12-13, 15-16, 18-19 entry H          line    40 file /home/kchung25/anaconda3/envs/p415env/share/psi4/basis/aug-cc-pvtz.gbs 


         ---------------------------------------------------------
                                   SCF
               by Justin Turney, Rob Parrish, Andy Simmonett
                          and Daniel G. A. Smith
                              RHF Reference
                        6 Threads,  57220 MiB Core
         ---------------------------------------------------------

  ==> Geometry <==

    Molecular point group: c1
    Full point group: C1

    Geometry (in Bohr), charge = 0, multiplicity = 1:

       Center              X                  Y                   Z               Mass       
    ------------   -----------------  -----------------  -----------------  -----------------
      Gh(F)           0.000000000000     0.000000000000     0.000000000000    18.998403162730
         O            1.398438906814     5.174680513042    -1.402821181698    15.994914619570
         H            0.265691713787     5.982447724821    -2.542074701775     1.007825032230
         H            0.612384648216     3.692715711483    -0.893033544286     1.007825032230
         O           -3.093481667374    -4.023051176570     2.284784710342    15.994914619570
         H           -2.663816527955    -5.636618395232     1.343143630657     1.007825032230
         H           -2.257729501403    -2.654243175404     1.348586041898     1.007825032230
         O           -4.888186694066     1.686467183404     1.193473542068    15.994914619570
         H           -3.113303004704     1.265116838936     0.934286265605     1.007825032230
         H           -6.018371418466     0.507848778408     0.484334916229     1.007825032230
         O            2.538291470072    -4.534369492144    -0.784100281784    15.994914619570
         H            1.886267926648    -5.658518431300     0.477471430941     1.007825032230
         H            1.913102037630    -2.931127737032    -0.480549794799     1.007825032230
         O           -2.008296991200     0.195529962201    -4.658067184864    15.994914619570
         H           -1.215042876064    -0.158827701392    -3.045142473085     1.007825032230
         H           -3.660189745412     0.881098034078    -4.137557241416     1.007825032230
         O            1.025183981965    -0.206654779902     5.052749714249    15.994914619570
         H            0.581249520573     0.053690898677     3.219951588321     1.007825032230
         H            0.064146753329     1.005322960387     5.991663919135     1.007825032230

  Running in c1 symmetry.

  Rotational constants: A =      0.03603  B =      0.02799  C =      0.02719 [cm^-1]
  Rotational constants: A =   1080.13562  B =    839.16120  C =    815.19060 [MHz]
  Nuclear repulsion =  254.532727857716026

  Charge       = 0
  Multiplicity = 1
  Electrons    = 60
  Nalpha       = 30
  Nbeta        = 30

  ==> Algorithm <==

  SCF Algorithm Type is DF.
  DIIS enabled.
  MOM disabled.
  Fractional occupation disabled.
  Guess Type is SAD.
  Energy threshold   = 1.00e-08
  Density threshold  = 1.00e-08
  Integral threshold = 1.00e-12

  ==> Primary Basis <==

  Basis Set: AUG-CC-PVTZ
    Blend: AUG-CC-PVTZ
    Number of shells: 206
    Number of basis functions: 598
    Number of Cartesian functions: 685
    Spherical Harmonics?: true
    Max angular momentum: 3

   => Loading Basis Set <=

    Name: (AUG-CC-PVTZ AUX)
    Role: JKFIT
    Keyword: DF_BASIS_SCF
    atoms 1                                   entry F          line   348 file /home/kchung25/anaconda3/envs/p415env/share/psi4/basis/aug-cc-pvtz-jkfit.gbs 
    atoms 2, 5, 8, 11, 14, 17                 entry O          line   286 file /home/kchung25/anaconda3/envs/p415env/share/psi4/basis/aug-cc-pvtz-jkfit.gbs 
    atoms 3-4, 6-7, 9-10, 12-13, 15-16, 18-19 entry H          line    70 file /home/kchung25/anaconda3/envs/p415env/share/psi4/basis/aug-cc-pvtz-jkfit.gbs 

  ==> Integral Setup <==

  DFHelper Memory: AOs need 3.178 GiB; user supplied 41.910 GiB. 
  Using in-core AOs.

  ==> MemDFJK: Density-Fitted J/K Matrices <==

    J tasked:                   Yes
    K tasked:                   Yes
    wK tasked:                   No
    OpenMP threads:               6
    Memory [MiB]:             42915
    Algorithm:                 Core
    Schwarz Cutoff:           1E-12
    Mask sparsity (%):       9.7409
    Fitting Condition:        1E-10

   => Auxiliary Basis Set <=

  Basis Set: (AUG-CC-PVTZ AUX)
    Blend: AUG-CC-PVTZ-JKFIT
    Number of shells: 378
    Number of basis functions: 1280
    Number of Cartesian functions: 1577
    Spherical Harmonics?: true
    Max angular momentum: 4

  Minimum eigenvalue in the overlap matrix is 1.7059147494E-05.
  Reciprocal condition number of the overlap matrix is 1.0446380205E-06.
    Using symmetric orthogonalization.

  ==> Pre-Iterations <==

  SCF Guess: Superposition of Atomic Densities via on-the-fly atomic UHF (no occupation information).

   -------------------------
    Irrep   Nso     Nmo    
   -------------------------
     A        598     598 
   -------------------------
    Total     598     598
   -------------------------

  ==> Iterations <==

                           Total Energy        Delta E     RMS |[F,P]|

   @DF-RHF iter SAD:  -453.06901124827584   -4.53069e+02   0.00000e+00 
   @DF-RHF iter   1:  -455.81303707894875   -2.74403e+00   1.90490e-03 DIIS/ADIIS
   @DF-RHF iter   2:  -456.12710714913237   -3.14070e-01   1.30665e-03 DIIS/ADIIS
   @DF-RHF iter   3:  -456.31893982612246   -1.91833e-01   9.55579e-05 DIIS
   @DF-RHF iter   4:  -456.32172093186290   -2.78111e-03   2.56751e-05 DIIS
   @DF-RHF iter   5:  -456.32189709590784   -1.76164e-04   9.48507e-06 DIIS
   @DF-RHF iter   6:  -456.32191885959270   -2.17637e-05   3.23399e-06 DIIS
   @DF-RHF iter   7:  -456.32192201972424   -3.16013e-06   6.63677e-07 DIIS
   @DF-RHF iter   8:  -456.32192225702391   -2.37300e-07   1.44577e-07 DIIS
   @DF-RHF iter   9:  -456.32192226565303   -8.62912e-09   5.85811e-08 DIIS
   @DF-RHF iter  10:  -456.32192226649636   -8.43329e-10   1.75347e-08 DIIS
   @DF-RHF iter  11:  -456.32192226660453   -1.08173e-10   5.51615e-09 DIIS
  Energy and wave function converged.


  ==> Post-Iterations <==

    Orbital Energies [Eh]
    ---------------------

    Doubly Occupied:                                                      

       1A    -20.606339     2A    -20.606098     3A    -20.605390  
       4A    -20.592588     5A    -20.587439     6A    -20.579950  
       7A     -1.391074     8A     -1.384729     9A     -1.379267  
      10A     -1.377619    11A     -1.365899    12A     -1.361284  
      13A     -0.779664    14A     -0.761223    15A     -0.748990  
      16A     -0.736879    17A     -0.734787    18A     -0.726344  
      19A     -0.623327    20A     -0.613793    21A     -0.605058  
      22A     -0.600660    23A     -0.596524    24A     -0.595801  
      25A     -0.550406    26A     -0.542581    27A     -0.541060  
      28A     -0.534137    29A     -0.526661    30A     -0.524809  

    Virtual:                                                              

      31A      0.004631    32A      0.030093    33A      0.032429  
      34A      0.041212    35A      0.044255    36A      0.056701  
      37A      0.061208    38A      0.068869    39A      0.076510  
      40A      0.080820    41A      0.094595    42A      0.100516  
      43A      0.105256    44A      0.124150    45A      0.128843  
      46A      0.133762    47A      0.149127    48A      0.150576  
      49A      0.161915    50A      0.169310    51A      0.169895  
      52A      0.175576    53A      0.180191    54A      0.182732  
      55A      0.191763    56A      0.195649    57A      0.200260  
      58A      0.205347    59A      0.212585    60A      0.215654  
      61A      0.220274    62A      0.224221    63A      0.237997  
      64A      0.240341    65A      0.244415    66A      0.246951  
      67A      0.257290    68A      0.258737    69A      0.264987  
      70A      0.266716    71A      0.271065    72A      0.281413  
      73A      0.290122    74A      0.302670    75A      0.303966  
      76A      0.306051    77A      0.316309    78A      0.327984  
      79A      0.329777    80A      0.335005    81A      0.339126  
      82A      0.352966    83A      0.359602    84A      0.373627  
      85A      0.374670    86A      0.385200    87A      0.389269  
      88A      0.396912    89A      0.401126    90A      0.408507  
      91A      0.413521    92A      0.421104    93A      0.426574  
      94A      0.435669    95A      0.443452    96A      0.449361  
      97A      0.451538    98A      0.458029    99A      0.464577  
     100A      0.469853   101A      0.479153   102A      0.482085  
     103A      0.489467   104A      0.495163   105A      0.502709  
     106A      0.506978   107A      0.514776   108A      0.531624  
     109A      0.554893   110A      0.560539   111A      0.565002  
     112A      0.576321   113A      0.579584   114A      0.597343  
     115A      0.603262   116A      0.623289   117A      0.634464  
     118A      0.641020   119A      0.654060   120A      0.660359  
     121A      0.673010   122A      0.681970   123A      0.684019  
     124A      0.693481   125A      0.702443   126A      0.704484  
     127A      0.716285   128A      0.719865   129A      0.730126  
     130A      0.734677   131A      0.738478   132A      0.749751  
     133A      0.757984   134A      0.758809   135A      0.769128  
     136A      0.774178   137A      0.780008   138A      0.792332  
     139A      0.793294   140A      0.797971   141A      0.807689  
     142A      0.811700   143A      0.819982   144A      0.823910  
     145A      0.831699   146A      0.838580   147A      0.852082  
     148A      0.865340   149A      0.870680   150A      0.872865  
     151A      0.878058   152A      0.885837   153A      0.891726  
     154A      0.900137   155A      0.904884   156A      0.911044  
     157A      0.913572   158A      0.926527   159A      0.933808  
     160A      0.943031   161A      0.945944   162A      0.953375  
     163A      0.961721   164A      0.968698   165A      0.972693  
     166A      0.985453   167A      0.991089   168A      0.992979  
     169A      1.001927   170A      1.015761   171A      1.020039  
     172A      1.021956   173A      1.034364   174A      1.042698  
     175A      1.044447   176A      1.049472   177A      1.058938  
     178A      1.067869   179A      1.076760   180A      1.081513  
     181A      1.086340   182A      1.086690   183A      1.093450  
     184A      1.104808   185A      1.108165   186A      1.112776  
     187A      1.119809   188A      1.132082   189A      1.136711  
     190A      1.152177   191A      1.153091   192A      1.166649  
     193A      1.168852   194A      1.182990   195A      1.187750  
     196A      1.201022   197A      1.208628   198A      1.212858  
     199A      1.216624   200A      1.237751   201A      1.240312  
     202A      1.249040   203A      1.257779   204A      1.269546  
     205A      1.277541   206A      1.280450   207A      1.285103  
     208A      1.302743   209A      1.309987   210A      1.316935  
     211A      1.323269   212A      1.334294   213A      1.348786  
     214A      1.350586   215A      1.361345   216A      1.370961  
     217A      1.390106   218A      1.393645   219A      1.408253  
     220A      1.408444   221A      1.421808   222A      1.427249  
     223A      1.432732   224A      1.444960   225A      1.456208  
     226A      1.471575   227A      1.473431   228A      1.496669  
     229A      1.505509   230A      1.520339   231A      1.533148  
     232A      1.543109   233A      1.556532   234A      1.567143  
     235A      1.571418   236A      1.581213   237A      1.594025  
     238A      1.597964   239A      1.615067   240A      1.621952  
     241A      1.634392   242A      1.638585   243A      1.653869  
     244A      1.668761   245A      1.670657   246A      1.680412  
     247A      1.700798   248A      1.701133   249A      1.716934  
     250A      1.733409   251A      1.740842   252A      1.749473  
     253A      1.760650   254A      1.769569   255A      1.782666  
     256A      1.787113   257A      1.807526   258A      1.810476  
     259A      1.838246   260A      1.839858   261A      1.867768  
     262A      1.873246   263A      1.876507   264A      1.887728  
     265A      1.904691   266A      1.923739   267A      1.941842  
     268A      1.960797   269A      1.972175   270A      1.997459  
     271A      2.004228   272A      2.014830   273A      2.019368  
     274A      2.037465   275A      2.049006   276A      2.056047  
     277A      2.103302   278A      2.122264   279A      2.137590  
     280A      2.157036   281A      2.187127   282A      2.217932  
     283A      2.235088   284A      2.309499   285A      2.312823  
     286A      2.324244   287A      2.344283   288A      2.357943  
     289A      2.371199   290A      2.403365   291A      2.405016  
     292A      2.420352   293A      2.426365   294A      2.432124  
     295A      2.451485   296A      2.452738   297A      2.459856  
     298A      2.468740   299A      2.475082   300A      2.485564  
     301A      2.490311   302A      2.499458   303A      2.505281  
     304A      2.516034   305A      2.519439   306A      2.532371  
     307A      2.537205   308A      2.544014   309A      2.558876  
     310A      2.567583   311A      2.573987   312A      2.589563  
     313A      2.598147   314A      2.616802   315A      2.623224  
     316A      2.631478   317A      2.639313   318A      2.647067  
     319A      2.655751   320A      2.662483   321A      2.674799  
     322A      2.692922   323A      2.701817   324A      2.722769  
     325A      2.736693   326A      2.736943   327A      2.754615  
     328A      2.767671   329A      2.771128   330A      2.778387  
     331A      2.787395   332A      2.797651   333A      2.802460  
     334A      2.813749   335A      2.824565   336A      2.837400  
     337A      2.845714   338A      2.852044   339A      2.876131  
     340A      2.889145   341A      2.908402   342A      2.924166  
     343A      2.930458   344A      2.947771   345A      2.961831  
     346A      2.969929   347A      2.981672   348A      2.998925  
     349A      3.013808   350A      3.026288   351A      3.043097  
     352A      3.059983   353A      3.097984   354A      3.101021  
     355A      3.139952   356A      3.153403   357A      3.161791  
     358A      3.169202   359A      3.205377   360A      3.215524  
     361A      3.226272   362A      3.371034   363A      3.446595  
     364A      3.538720   365A      3.603740   366A      3.634182  
     367A      3.667835   368A      3.695257   369A      3.735564  
     370A      3.752391   371A      3.785851   372A      3.800783  
     373A      3.814606   374A      3.836852   375A      3.871264  
     376A      3.957333   377A      3.990766   378A      4.006148  
     379A      4.024009   380A      4.053183   381A      4.065941  
     382A      4.072480   383A      4.087669   384A      4.097304  
     385A      4.108931   386A      4.116289   387A      4.125632  
     388A      4.128953   389A      4.156038   390A      4.159176  
     391A      4.178083   392A      4.193220   393A      4.206587  
     394A      4.227811   395A      4.238935   396A      4.249135  
     397A      4.265176   398A      4.270439   399A      4.277862  
     400A      4.281897   401A      4.292764   402A      4.312694  
     403A      4.315232   404A      4.330574   405A      4.334187  
     406A      4.335651   407A      4.343370   408A      4.353815  
     409A      4.367928   410A      4.380165   411A      4.384264  
     412A      4.392716   413A      4.405029   414A      4.410442  
     415A      4.424868   416A      4.433754   417A      4.435738  
     418A      4.448866   419A      4.457624   420A      4.471605  
     421A      4.481730   422A      4.482738   423A      4.491144  
     424A      4.506770   425A      4.521074   426A      4.525620  
     427A      4.528397   428A      4.555822   429A      4.565198  
     430A      4.574243   431A      4.581053   432A      4.595403  
     433A      4.617472   434A      4.627714   435A      4.648634  
     436A      4.651652   437A      4.666485   438A      4.676502  
     439A      4.684914   440A      4.720396   441A      4.740239  
     442A      4.744178   443A      4.782563   444A      4.797521  
     445A      4.801149   446A      4.842461   447A      4.853821  
     448A      4.860220   449A      4.867579   450A      4.952171  
     451A      4.975793   452A      5.026057   453A      5.041698  
     454A      5.054249   455A      5.092028   456A      5.103537  
     457A      5.126711   458A      5.144257   459A      5.180464  
     460A      5.206620   461A      5.229968   462A      5.247461  
     463A      5.261304   464A      5.263037   465A      5.273474  
     466A      5.277757   467A      5.313166   468A      5.326856  
     469A      5.336339   470A      5.369598   471A      5.379999  
     472A      5.401722   473A      5.413406   474A      5.447531  
     475A      5.459934   476A      5.480047   477A      5.513359  
     478A      5.531489   479A      5.551664   480A      5.572545  
     481A      5.573842   482A      5.611818   483A      5.637079  
     484A      5.685512   485A      5.695304   486A      5.733123  
     487A      5.791718   488A      5.848996   489A      5.920487  
     490A      5.927301   491A      5.962285   492A      6.203844  
     493A      6.244726   494A      6.261912   495A      6.270900  
     496A      6.296409   497A      6.305789   498A      6.547346  
     499A      6.559616   500A      6.566261   501A      6.572097  
     502A      6.588084   503A      6.636230   504A      6.793109  
     505A      6.800516   506A      6.816668   507A      6.837912  
     508A      6.855703   509A      6.860239   510A      6.895704  
     511A      6.928796   512A      6.945819   513A      6.965899  
     514A      6.981907   515A      6.990563   516A      7.123934  
     517A      7.131609   518A      7.163190   519A      7.186311  
     520A      7.224633   521A      7.269192   522A      7.283529  
     523A      7.287406   524A      7.293797   525A      7.298992  
     526A      7.305385   527A      7.310457   528A      7.317380  
     529A      7.333281   530A      7.334557   531A      7.342878  
     532A      7.350593   533A      7.355853   534A      7.363483  
     535A      7.381164   536A      7.395675   537A      7.401922  
     538A      7.412801   539A      7.414100   540A      7.441558  
     541A      7.446978   542A      7.459151   543A      7.485539  
     544A      7.510524   545A      7.517551   546A      7.535819  
     547A      7.555136   548A      7.578845   549A      7.593249  
     550A      7.606410   551A      7.630026   552A      7.760617  
     553A      7.798262   554A      7.831966   555A      7.853452  
     556A      7.870487   557A      7.911852   558A      7.920790  
     559A      7.926604   560A      7.956577   561A      7.990122  
     562A      8.001455   563A      8.037573   564A      8.059016  
     565A      8.071162   566A      8.100186   567A      8.136423  
     568A      8.141598   569A      8.167933   570A      8.634045  
     571A      8.754056   572A      8.811472   573A      8.835624  
     574A      8.910263   575A      8.924988   576A     10.250240  
     577A     10.344379   578A     10.549891   579A     10.590108  
     580A     10.681471   581A     10.716478   582A     11.004098  
     583A     12.146064   584A     13.214344   585A     13.238121  
     586A     13.330330   587A     13.438770   588A     13.522449  
     589A     15.032205   590A     15.240468   591A     15.374592  
     592A     16.148442   593A     16.648276   594A     17.076427  
     595A     17.738091   596A     17.807421   597A     18.220942  
     598A     76.002067  

    Final Occupation by Irrep:
              A 
    DOCC [    30 ]
    NA   [    30 ]
    NB   [    30 ]

  @DF-RHF Final Energy:  -456.32192226660453

   => Energetics <=

    Nuclear Repulsion Energy =            254.5327278577160257
    One-Electron Energy =               -1135.3485404569232742
    Two-Electron Energy =                 424.4938903326026889
    Total Energy =                       -456.3219222666045312

Computation Completed


Properties will be evaluated at   0.000000,   0.000000,   0.000000 [a0]

Properties computed using the SCF density matrix


 Multipole Moments:

 ------------------------------------------------------------------------------------
     Multipole            Electronic (a.u.)      Nuclear  (a.u.)        Total (a.u.)
 ------------------------------------------------------------------------------------

 L = 1.  Multiply by 2.5417464519 to convert [e a0] to [Debye]
 Dipole X            :         52.4811494          -53.8300184           -1.3488690
 Dipole Y            :         17.1552786          -17.3102768           -0.1549983
 Dipole Z            :        -16.3052695           16.1892346           -0.1160349
 Magnitude           :                                                    1.3626944

 ------------------------------------------------------------------------------------

*** tstop() called on moses-razer at Sat Jan  6 22:41:55 2024
Module time:
	user time   =      78.53 seconds =       1.31 minutes
	system time =       2.74 seconds =       0.05 minutes
	total time  =         14 seconds =       0.23 minutes
Total time:
	user time   =      78.53 seconds =       1.31 minutes
	system time =       2.74 seconds =       0.05 minutes
	total time  =         14 seconds =       0.23 minutes

*** tstart() called on moses-razer
*** at Sat Jan  6 22:41:55 2024


  //>>>>>>>>>>>>>>>>>>>>>>>>>>>>>>>>>>>//
  //               DFMP2               //
  //<<<<<<<<<<<<<<<<<<<<<<<<<<<<<<<<<<<//

   => Loading Basis Set <=

    Name: (AUG-CC-PVTZ AUX)
    Role: RIFIT
    Keyword: DF_BASIS_MP2
    atoms 1                                   entry F          line   322 file /home/kchung25/anaconda3/envs/p415env/share/psi4/basis/aug-cc-pvtz-ri.gbs 
    atoms 2, 5, 8, 11, 14, 17                 entry O          line   264 file /home/kchung25/anaconda3/envs/p415env/share/psi4/basis/aug-cc-pvtz-ri.gbs 
    atoms 3-4, 6-7, 9-10, 12-13, 15-16, 18-19 entry H          line    30 file /home/kchung25/anaconda3/envs/p415env/share/psi4/basis/aug-cc-pvtz-ri.gbs 

	 --------------------------------------------------------
	                          DF-MP2                         
	      2nd-Order Density-Fitted Moller-Plesset Theory     
	              RMP2 Wavefunction,   6 Threads             
	                                                         
	        Rob Parrish, Justin Turney, Andy Simmonett,      
	           Ed Hohenstein, and C. David Sherrill          
	 --------------------------------------------------------

   => Auxiliary Basis Set <=

  Basis Set: (AUG-CC-PVTZ AUX)
    Blend: AUG-CC-PVTZ-RI
    Number of shells: 364
    Number of basis functions: 1294
    Number of Cartesian functions: 1612
    Spherical Harmonics?: true
    Max angular momentum: 4

	 --------------------------------------------------------
	                 NBF =   598, NAUX =  1294
	 --------------------------------------------------------
	   CLASS    FOCC     OCC    AOCC    AVIR     VIR    FVIR
	   PAIRS       0      30      30     568     568       0
	 --------------------------------------------------------

	-----------------------------------------------------------
	 ==================> DF-MP2 Energies <==================== 
	-----------------------------------------------------------
	 Reference Energy          =    -456.3219222666045312 [Eh]
	 Singles Energy            =      -0.0000000000000000 [Eh]
	 Same-Spin Energy          =      -0.4154413813825428 [Eh]
	 Opposite-Spin Energy      =      -1.3056725494093195 [Eh]
	 Correlation Energy        =      -1.7211139307918624 [Eh]
	 Total Energy              =    -458.0430361973964182 [Eh]
	-----------------------------------------------------------
	 ================> DF-SCS-MP2 Energies <================== 
	-----------------------------------------------------------
	 SCS Same-Spin Scale       =       0.3333333333333333 [-]
	 SCS Opposite-Spin Scale   =       1.2000000000000000 [-]
	 SCS Same-Spin Energy      =      -0.1384804604608476 [Eh]
	 SCS Opposite-Spin Energy  =      -1.5668070592911834 [Eh]
	 SCS Correlation Energy    =      -1.7052875197520310 [Eh]
	 SCS Total Energy          =    -458.0272097863565364 [Eh]
	-----------------------------------------------------------


*** tstop() called on moses-razer at Sat Jan  6 22:42:02 2024
Module time:
	user time   =      31.77 seconds =       0.53 minutes
	system time =       1.60 seconds =       0.03 minutes
	total time  =          7 seconds =       0.12 minutes
Total time:
	user time   =     110.30 seconds =       1.84 minutes
	system time =       4.34 seconds =       0.07 minutes
	total time  =         21 seconds =       0.35 minutes

    Psi4 stopped on: Saturday, 06 January 2024 10:42PM
    Psi4 wall time for execution: 0:00:21.23


    -----------------------------------------------------------------------
          Psi4: An Open-Source Ab Initio Electronic Structure Package
                               Psi4 1.9 release

                         Git: Rev {} zzzzzzz 


    D. G. A. Smith, L. A. Burns, A. C. Simmonett, R. M. Parrish,
    M. C. Schieber, R. Galvelis, P. Kraus, H. Kruse, R. Di Remigio,
    A. Alenaizan, A. M. James, S. Lehtola, J. P. Misiewicz, M. Scheurer,
    R. A. Shaw, J. B. Schriber, Y. Xie, Z. L. Glick, D. A. Sirianni,
    J. S. O'Brien, J. M. Waldrop, A. Kumar, E. G. Hohenstein,
    B. P. Pritchard, B. R. Brooks, H. F. Schaefer III, A. Yu. Sokolov,
    K. Patkowski, A. E. DePrince III, U. Bozkaya, R. A. King,
    F. A. Evangelista, J. M. Turney, T. D. Crawford, C. D. Sherrill,
    J. Chem. Phys. 152(18) 184108 (2020). https://doi.org/10.1063/5.0006002

                            Additional Code Authors
    E. T. Seidl, C. L. Janssen, E. F. Valeev, M. L. Leininger,
    J. F. Gonthier, R. M. Richard, H. R. McAlexander, M. Saitow, X. Wang,
    P. Verma, M. H. Lechner, A. Jiang, S. Behnle, A. G. Heide,
    M. F. Herbst, and D. L. Poole

             Previous Authors, Complete List of Code Contributors,
                       and Citations for Specific Modules
    https://github.com/psi4/psi4/blob/master/codemeta.json
    https://github.com/psi4/psi4/graphs/contributors
    http://psicode.org/psi4manual/master/introduction.html#citing-psifour

    -----------------------------------------------------------------------


    Psi4 started on: Saturday, 06 January 2024 10:41PM

    Process ID: 558540
    Host:       moses-razer
    PSIDATADIR: /home/kchung25/anaconda3/envs/psi4_19/share/psi4
    Memory:     55.9 GiB
    Threads:    6
    
  ==> Input QCSchema <==

--------------------------------------------------------------------------
{'driver': 'energy',
 'extras': {'psiapi': True, 'wfn_qcvars_only': True},
 'id': None,
 'keywords': {'SCF_TYPE': 'DF', 'function_kwargs': {}},
 'model': {'basis': 'aug-cc-pvtz', 'method': 'mp2'},
 'molecule': {'atom_labels': ['', '', '', '', '', '', '', '', '', '', '', '', '', '', '', '', '', '', ''],
              'atomic_numbers': [9, 8, 1, 1, 8, 1, 1, 8, 1, 1, 8, 1, 1, 8, 1, 1, 8, 1, 1],
              'extras': {},
              'fix_com': True,
              'fix_orientation': True,
              'fix_symmetry': 'c1',
              'fragment_charges': [-1.0, 0.0],
              'fragment_multiplicities': [1, 1],
              'fragments': [[0], [1, 2, 3, 4, 5, 6, 7, 8, 9, 10, 11, 12, 13, 14, 15, 16, 17, 18]],
              'geometry': [0.0, 0.0, 0.0, 1.3984389068135528, 5.174680513042056, -1.4028211816984897,
                           0.26569171378711964, 5.982447724821256, -2.542074701774874, 0.6123846482158638,
                           3.6927157114832676, -0.8930335442859823, -3.0934816673744647, -4.023051176570048,
                           2.2847847103415395, -2.6638165279552433, -5.636618395231846, 1.3431436306565314,
                           -2.25772950140336, -2.6542431754036744, 1.34858604189785, -4.888186694065897,
                           1.6864671834035843, 1.1934735420680205, -3.1133030047043917, 1.2651168389363778,
                           0.9342862656047266, -6.018371418466209, 0.5078487784077876, 0.4843349162287159,
                           2.5382914700717074, -4.534369492144177, -0.7841002817839657, 1.8862679266482403,
                           -5.658518431299777, 0.47747143094105304, 1.9131020376297414, -2.931127737031881,
                           -0.4805497947994239, -2.0082969911996797, 0.19552996220112148, -4.658067184864395,
                           -1.2150428760639962, -0.15882770139247954, -3.0451424730852534, -3.6601897454118872,
                           0.8810980340775906, -4.13755724141604, 1.0251839819653736, -0.2066547799016917,
                           5.052749714249141, 0.5812495205728206, 0.053690898676507816, 3.2199515883207295,
                           0.06414675332866598, 1.0053229603868117, 5.991663919135114],
              'mass_numbers': [19, 16, 1, 1, 16, 1, 1, 16, 1, 1, 16, 1, 1, 16, 1, 1, 16, 1, 1],
              'masses': [18.99840316273, 15.99491461957, 1.00782503223, 1.00782503223, 15.99491461957, 1.00782503223,
                         1.00782503223, 15.99491461957, 1.00782503223, 1.00782503223, 15.99491461957, 1.00782503223,
                         1.00782503223, 15.99491461957, 1.00782503223, 1.00782503223, 15.99491461957, 1.00782503223,
                         1.00782503223],
              'molecular_charge': -1.0,
              'molecular_multiplicity': 1,
              'name': 'dimer',
              'provenance': {'creator': 'QCElemental',
                             'routine': 'qcelemental.molparse.from_string',
                             'version': '0.27.1'},
              'real': [True, False, False, False, False, False, False, False, False, False, False, False, False, False,
                       False, False, False, False, False],
              'schema_name': 'qcschema_molecule',
              'schema_version': 2,
              'symbols': ['F', 'O', 'H', 'H', 'O', 'H', 'H', 'O', 'H', 'H', 'O', 'H', 'H', 'O', 'H', 'H', 'O', 'H',
                          'H'],
              'validated': True},
 'protocols': {'stdout': True},
 'provenance': {'creator': 'QCElemental', 'routine': 'qcelemental.models.results', 'version': '0.27.1'},
 'schema_name': 'qcschema_input',
 'schema_version': 1}
--------------------------------------------------------------------------

Scratch directory: /scratch/
   => Libint2 <=

    Primary   basis highest AM E, G, H:  5, 4, 3
    Auxiliary basis highest AM E, G, H:  6, 5, 4
    Onebody   basis highest AM E, G, H:  6, 5, 4
    Solid Harmonics ordering:            gaussian

*** tstart() called on moses-razer
*** at Sat Jan  6 22:42:02 2024

   => Loading Basis Set <=

    Name: AUG-CC-PVTZ
    Role: ORBITAL
    Keyword: BASIS
    atoms 1                                   entry F          line   377 file /home/kchung25/anaconda3/envs/p415env/share/psi4/basis/aug-cc-pvtz.gbs 
    atoms 2, 5, 8, 11, 14, 17                 entry O          line   331 file /home/kchung25/anaconda3/envs/p415env/share/psi4/basis/aug-cc-pvtz.gbs 
    atoms 3-4, 6-7, 9-10, 12-13, 15-16, 18-19 entry H          line    40 file /home/kchung25/anaconda3/envs/p415env/share/psi4/basis/aug-cc-pvtz.gbs 


         ---------------------------------------------------------
                                   SCF
               by Justin Turney, Rob Parrish, Andy Simmonett
                          and Daniel G. A. Smith
                              RHF Reference
                        6 Threads,  57220 MiB Core
         ---------------------------------------------------------

  ==> Geometry <==

    Molecular point group: c1
    Full point group: C1

    Geometry (in Bohr), charge = -1, multiplicity = 1:

       Center              X                  Y                   Z               Mass       
    ------------   -----------------  -----------------  -----------------  -----------------
         F            0.000000000000     0.000000000000     0.000000000000    18.998403162730
      Gh(O)           1.398438906814     5.174680513042    -1.402821181698    15.994914619570
      Gh(H)           0.265691713787     5.982447724821    -2.542074701775     1.007825032230
      Gh(H)           0.612384648216     3.692715711483    -0.893033544286     1.007825032230
      Gh(O)          -3.093481667374    -4.023051176570     2.284784710342    15.994914619570
      Gh(H)          -2.663816527955    -5.636618395232     1.343143630657     1.007825032230
      Gh(H)          -2.257729501403    -2.654243175404     1.348586041898     1.007825032230
      Gh(O)          -4.888186694066     1.686467183404     1.193473542068    15.994914619570
      Gh(H)          -3.113303004704     1.265116838936     0.934286265605     1.007825032230
      Gh(H)          -6.018371418466     0.507848778408     0.484334916229     1.007825032230
      Gh(O)           2.538291470072    -4.534369492144    -0.784100281784    15.994914619570
      Gh(H)           1.886267926648    -5.658518431300     0.477471430941     1.007825032230
      Gh(H)           1.913102037630    -2.931127737032    -0.480549794799     1.007825032230
      Gh(O)          -2.008296991200     0.195529962201    -4.658067184864    15.994914619570
      Gh(H)          -1.215042876064    -0.158827701392    -3.045142473085     1.007825032230
      Gh(H)          -3.660189745412     0.881098034078    -4.137557241416     1.007825032230
      Gh(O)           1.025183981965    -0.206654779902     5.052749714249    15.994914619570
      Gh(H)           0.581249520573     0.053690898677     3.219951588321     1.007825032230
      Gh(H)           0.064146753329     1.005322960387     5.991663919135     1.007825032230

  Running in c1 symmetry.

  Rotational constants: A =      0.03603  B =      0.02799  C =      0.02719 [cm^-1]
  Rotational constants: A =   1080.13562  B =    839.16120  C =    815.19060 [MHz]
  Nuclear repulsion =    0.000000000000000

  Charge       = -1
  Multiplicity = 1
  Electrons    = 10
  Nalpha       = 5
  Nbeta        = 5

  ==> Algorithm <==

  SCF Algorithm Type is DF.
  DIIS enabled.
  MOM disabled.
  Fractional occupation disabled.
  Guess Type is SAD.
  Energy threshold   = 1.00e-08
  Density threshold  = 1.00e-08
  Integral threshold = 1.00e-12

  ==> Primary Basis <==

  Basis Set: AUG-CC-PVTZ
    Blend: AUG-CC-PVTZ
    Number of shells: 206
    Number of basis functions: 598
    Number of Cartesian functions: 685
    Spherical Harmonics?: true
    Max angular momentum: 3

   => Loading Basis Set <=

    Name: (AUG-CC-PVTZ AUX)
    Role: JKFIT
    Keyword: DF_BASIS_SCF
    atoms 1                                   entry F          line   348 file /home/kchung25/anaconda3/envs/p415env/share/psi4/basis/aug-cc-pvtz-jkfit.gbs 
    atoms 2, 5, 8, 11, 14, 17                 entry O          line   286 file /home/kchung25/anaconda3/envs/p415env/share/psi4/basis/aug-cc-pvtz-jkfit.gbs 
    atoms 3-4, 6-7, 9-10, 12-13, 15-16, 18-19 entry H          line    70 file /home/kchung25/anaconda3/envs/p415env/share/psi4/basis/aug-cc-pvtz-jkfit.gbs 

  ==> Integral Setup <==

  DFHelper Memory: AOs need 3.178 GiB; user supplied 41.910 GiB. 
  Using in-core AOs.

  ==> MemDFJK: Density-Fitted J/K Matrices <==

    J tasked:                   Yes
    K tasked:                   Yes
    wK tasked:                   No
    OpenMP threads:               6
    Memory [MiB]:             42915
    Algorithm:                 Core
    Schwarz Cutoff:           1E-12
    Mask sparsity (%):       9.7409
    Fitting Condition:        1E-10

   => Auxiliary Basis Set <=

  Basis Set: (AUG-CC-PVTZ AUX)
    Blend: AUG-CC-PVTZ-JKFIT
    Number of shells: 378
    Number of basis functions: 1280
    Number of Cartesian functions: 1577
    Spherical Harmonics?: true
    Max angular momentum: 4

  Minimum eigenvalue in the overlap matrix is 1.7059147494E-05.
  Reciprocal condition number of the overlap matrix is 1.0446380205E-06.
    Using symmetric orthogonalization.

  ==> Pre-Iterations <==

  SCF Guess: Superposition of Atomic Densities via on-the-fly atomic UHF (no occupation information).

   -------------------------
    Irrep   Nso     Nmo    
   -------------------------
     A        598     598 
   -------------------------
    Total     598     598
   -------------------------

  ==> Iterations <==

                           Total Energy        Delta E     RMS |[F,P]|

   @DF-RHF iter SAD:   -98.82535103981442   -9.88254e+01   0.00000e+00 
   @DF-RHF iter   1:   -99.33806203032768   -5.12711e-01   9.12900e-04 DIIS/ADIIS
   @DF-RHF iter   2:   -99.37301467732183   -3.49526e-02   8.92688e-04 DIIS/ADIIS
   @DF-RHF iter   3:   -99.45108125146209   -7.80666e-02   3.18974e-05 DIIS
   @DF-RHF iter   4:   -99.45115975801620   -7.85066e-05   1.11250e-05 DIIS
   @DF-RHF iter   5:   -99.45117095602772   -1.11980e-05   6.95816e-07 DIIS
   @DF-RHF iter   6:   -99.45117105741808   -1.01390e-07   6.86309e-08 DIIS
   @DF-RHF iter   7:   -99.45117105857719   -1.15911e-09   8.35564e-09 DIIS
  Energy and wave function converged.


  ==> Post-Iterations <==

    Orbital Energies [Eh]
    ---------------------

    Doubly Occupied:                                                      

       1A    -25.833514     2A     -1.075853     3A     -0.180904  
       4A     -0.180888     5A     -0.180871  

    Virtual:                                                              

       6A      0.121300     7A      0.129693     8A      0.135051  
       9A      0.138037    10A      0.147498    11A      0.151537  
      12A      0.169770    13A      0.172406    14A      0.178590  
      15A      0.186813    16A      0.190742    17A      0.192178  
      18A      0.247118    19A      0.257539    20A      0.262497  
      21A      0.265779    22A      0.266306    23A      0.269876  
      24A      0.276264    25A      0.284208    26A      0.288559  
      27A      0.293760    28A      0.296178    29A      0.304489  
      30A      0.309502    31A      0.314925    32A      0.322012  
      33A      0.327578    34A      0.328340    35A      0.335069  
      36A      0.338031    37A      0.346648    38A      0.357398  
      39A      0.361167    40A      0.367003    41A      0.376544  
      42A      0.398983    43A      0.412124    44A      0.425333  
      45A      0.434100    46A      0.440688    47A      0.452695  
      48A      0.463065    49A      0.469318    50A      0.478990  
      51A      0.481736    52A      0.485099    53A      0.489427  
      54A      0.491180    55A      0.503156    56A      0.506973  
      57A      0.515380    58A      0.517514    59A      0.524277  
      60A      0.526766    61A      0.535224    62A      0.536153  
      63A      0.539641    64A      0.548141    65A      0.551448  
      66A      0.564687    67A      0.568368    68A      0.576994  
      69A      0.582026    70A      0.600757    71A      0.603053  
      72A      0.615634    73A      0.617791    74A      0.624880  
      75A      0.631858    76A      0.642119    77A      0.647616  
      78A      0.653363    79A      0.663363    80A      0.690684  
      81A      0.697432    82A      0.703314    83A      0.713149  
      84A      0.732861    85A      0.742295    86A      0.765641  
      87A      0.774910    88A      0.783913    89A      0.810387  
      90A      0.823121    91A      0.836035    92A      0.846325  
      93A      0.854834    94A      0.866064    95A      0.886899  
      96A      0.894207    97A      0.899148    98A      0.908625  
      99A      0.911270   100A      0.915479   101A      0.927050  
     102A      0.932078   103A      0.943223   104A      0.946078  
     105A      0.955542   106A      0.962439   107A      0.967658  
     108A      0.970333   109A      0.975963   110A      0.984561  
     111A      0.989735   112A      0.992868   113A      1.001847  
     114A      1.012815   115A      1.018597   116A      1.021548  
     117A      1.035195   118A      1.041334   119A      1.042875  
     120A      1.046152   121A      1.054488   122A      1.059812  
     123A      1.068200   124A      1.073935   125A      1.077718  
     126A      1.085175   127A      1.087002   128A      1.101726  
     129A      1.105802   130A      1.110563   131A      1.113640  
     132A      1.120375   133A      1.129274   134A      1.133619  
     135A      1.139577   136A      1.145081   137A      1.152931  
     138A      1.155146   139A      1.157063   140A      1.169769  
     141A      1.172089   142A      1.180484   143A      1.181612  
     144A      1.189530   145A      1.197212   146A      1.211978  
     147A      1.217897   148A      1.223704   149A      1.229792  
     150A      1.241252   151A      1.253206   152A      1.258370  
     153A      1.267950   154A      1.285070   155A      1.289470  
     156A      1.295850   157A      1.299057   158A      1.314719  
     159A      1.322151   160A      1.329081   161A      1.332989  
     162A      1.340949   163A      1.348118   164A      1.364278  
     165A      1.372069   166A      1.385631   167A      1.391395  
     168A      1.397220   169A      1.399810   170A      1.406485  
     171A      1.423870   172A      1.434131   173A      1.446202  
     174A      1.459142   175A      1.462272   176A      1.464880  
     177A      1.478572   178A      1.485010   179A      1.497799  
     180A      1.501906   181A      1.519235   182A      1.533230  
     183A      1.544864   184A      1.560250   185A      1.570800  
     186A      1.582710   187A      1.589521   188A      1.602001  
     189A      1.617968   190A      1.627205   191A      1.638749  
     192A      1.651753   193A      1.660058   194A      1.670702  
     195A      1.683198   196A      1.690910   197A      1.709895  
     198A      1.714351   199A      1.727817   200A      1.737310  
     201A      1.745949   202A      1.755271   203A      1.766218  
     204A      1.786514   205A      1.799959   206A      1.813690  
     207A      1.833668   208A      1.845019   209A      1.849491  
     210A      1.864067   211A      1.868634   212A      1.903996  
     213A      1.909657   214A      1.918151   215A      1.929459  
     216A      1.944430   217A      1.953422   218A      1.962675  
     219A      1.967977   220A      1.976992   221A      1.983714  
     222A      1.989054   223A      1.991194   224A      2.007788  
     225A      2.010943   226A      2.018492   227A      2.029147  
     228A      2.034027   229A      2.048478   230A      2.064570  
     231A      2.072461   232A      2.081139   233A      2.095331  
     234A      2.102709   235A      2.122795   236A      2.127553  
     237A      2.136799   238A      2.151712   239A      2.157782  
     240A      2.170074   241A      2.180869   242A      2.184487  
     243A      2.207693   244A      2.230038   245A      2.240266  
     246A      2.259585   247A      2.260722   248A      2.285829  
     249A      2.297206   250A      2.319817   251A      2.348566  
     252A      2.363104   253A      2.387603   254A      2.438077  
     255A      2.447630   256A      2.458513   257A      2.482926  
     258A      2.535452   259A      2.547295   260A      2.583189  
     261A      2.631351   262A      2.645356   263A      2.650044  
     264A      2.668750   265A      2.682138   266A      2.692059  
     267A      2.693259   268A      2.715072   269A      2.725661  
     270A      2.729735   271A      2.739563   272A      2.750529  
     273A      2.754689   274A      2.774367   275A      2.779033  
     276A      2.795380   277A      2.797745   278A      2.821225  
     279A      2.827134   280A      2.837712   281A      2.845683  
     282A      2.853051   283A      2.867005   284A      2.883970  
     285A      2.886490   286A      2.890004   287A      2.915334  
     288A      2.916859   289A      2.931444   290A      2.947394  
     291A      2.949640   292A      2.962856   293A      2.979230  
     294A      2.992083   295A      2.995795   296A      3.023915  
     297A      3.035530   298A      3.042656   299A      3.055409  
     300A      3.085364   301A      3.094655   302A      3.110659  
     303A      3.114752   304A      3.140851   305A      3.160222  
     306A      3.186324   307A      3.192028   308A      3.210337  
     309A      3.213240   310A      3.220758   311A      3.229680  
     312A      3.243707   313A      3.245719   314A      3.282895  
     315A      3.307524   316A      3.314390   317A      3.325059  
     318A      3.381438   319A      3.391391   320A      3.413592  
     321A      3.415199   322A      3.423461   323A      3.432792  
     324A      3.439315   325A      3.445373   326A      3.455473  
     327A      3.461580   328A      3.472532   329A      3.485972  
     330A      3.513307   331A      3.516098   332A      3.537720  
     333A      3.579065   334A      3.584105   335A      3.627051  
     336A      3.637505   337A      3.670233   338A      3.695235  
     339A      3.700503   340A      3.721185   341A      3.735616  
     342A      3.742433   343A      3.747236   344A      3.773182  
     345A      3.788476   346A      3.794344   347A      3.811239  
     348A      3.840641   349A      3.847745   350A      3.864854  
     351A      3.899421   352A      3.906541   353A      3.920429  
     354A      3.932698   355A      3.952001   356A      3.974096  
     357A      3.999158   358A      4.009277   359A      4.016310  
     360A      4.042364   361A      4.065397   362A      4.087465  
     363A      4.101064   364A      4.140111   365A      4.191868  
     366A      4.218541   367A      4.239977   368A      4.273297  
     369A      4.371980   370A      4.443592   371A      4.532418  
     372A      4.561686   373A      4.618838   374A      4.639830  
     375A      4.650350   376A      4.669570   377A      4.671811  
     378A      4.678297   379A      4.690365   380A      4.699494  
     381A      4.704166   382A      4.732909   383A      4.756933  
     384A      4.761354   385A      4.839054   386A      4.842703  
     387A      4.864928   388A      4.876601   389A      4.893319  
     390A      4.898690   391A      4.906691   392A      4.915287  
     393A      4.920017   394A      4.928262   395A      4.939143  
     396A      4.959145   397A      4.968753   398A      4.980617  
     399A      5.007355   400A      5.010523   401A      5.037475  
     402A      5.050556   403A      5.072972   404A      5.087329  
     405A      5.106398   406A      5.127681   407A      5.138572  
     408A      5.173340   409A      5.188252   410A      5.206067  
     411A      5.228391   412A      5.239377   413A      5.247267  
     414A      5.259700   415A      5.286392   416A      5.317888  
     417A      5.326159   418A      5.364930   419A      5.372411  
     420A      5.404753   421A      5.421480   422A      5.439134  
     423A      5.471009   424A      5.491225   425A      5.514614  
     426A      5.521321   427A      5.534926   428A      5.536339  
     429A      5.555301   430A      5.607912   431A      5.629142  
     432A      5.647376   433A      5.692160   434A      5.749261  
     435A      5.758714   436A      5.767412   437A      5.790331  
     438A      5.836814   439A      5.842228   440A      5.847474  
     441A      5.849792   442A      5.857787   443A      5.865882  
     444A      5.885495   445A      5.903555   446A      5.939803  
     447A      5.968564   448A      5.993473   449A      6.032575  
     450A      6.067679   451A      6.090405   452A      6.102438  
     453A      6.136163   454A      6.147307   455A      6.159806  
     456A      6.177826   457A      6.371690   458A      6.376011  
     459A      6.424046   460A      6.453949   461A      6.500048  
     462A      6.542508   463A      6.633603   464A      6.673964  
     465A      6.703250   466A      6.727285   467A      6.773068  
     468A      6.791079   469A      6.813939   470A      6.853858  
     471A      6.901955   472A      6.944540   473A      7.019754  
     474A      7.049598   475A      7.067328   476A      7.136397  
     477A      7.158822   478A      7.262082   479A      7.302316  
     480A      7.361642   481A      7.407850   482A      7.464634  
     483A      7.502778   484A      7.936458   485A      7.945748  
     486A      7.965811   487A      7.978841   488A      8.001478  
     489A      8.007972   490A      8.027778   491A      8.046502  
     492A      8.056724   493A      8.069797   494A      8.086753  
     495A      8.128790   496A      8.258283   497A      8.276473  
     498A      8.306228   499A      8.321305   500A      8.367775  
     501A      8.438133   502A      8.449059   503A      8.467117  
     504A      8.485803   505A      8.492907   506A      8.503874  
     507A      8.513246   508A      8.527865   509A      8.538748  
     510A      8.559003   511A      8.579610   512A      8.608820  
     513A      8.647844   514A      8.874720   515A      8.963745  
     516A      8.971986   517A      9.032227   518A      9.113688  
     519A      9.127535   520A      9.175738   521A      9.184000  
     522A      9.219235   523A      9.370958   524A      9.447130  
     525A      9.485391   526A      9.536522   527A      9.604980  
     528A      9.772746   529A      9.821433   530A      9.891189  
     531A      9.910623   532A      9.933575   533A      9.988733  
     534A      9.997960   535A     10.037498   536A     10.050532  
     537A     10.056673   538A     10.078172   539A     10.106548  
     540A     10.114604   541A     10.126727   542A     10.136577  
     543A     10.174032   544A     10.217456   545A     10.233614  
     546A     10.267870   547A     10.308039   548A     10.320490  
     549A     10.326800   550A     10.339670   551A     10.371099  
     552A     10.400044   553A     10.410183   554A     10.486256  
     555A     10.532943   556A     10.577439   557A     10.608493  
     558A     10.617950   559A     10.633741   560A     10.654231  
     561A     10.709428   562A     11.193180   563A     11.368804  
     564A     11.446466   565A     11.478747   566A     11.518078  
     567A     11.551529   568A     11.985325   569A     12.049963  
     570A     12.087133   571A     12.120765   572A     12.142093  
     573A     12.189738   574A     12.202412   575A     12.369393  
     576A     12.618338   577A     12.658649   578A     12.674360  
     579A     12.804783   580A     13.725152   581A     13.806516  
     582A     13.902891   583A     13.975905   584A     14.032774  
     585A     14.051042   586A     14.216364   587A     14.253813  
     588A     14.265619   589A     14.304946   590A     14.330754  
     591A     14.406728   592A     16.313964   593A     65.711312  
     594A     66.636523   595A     67.482041   596A     68.810705  
     597A     69.001689   598A     69.737833  

    Final Occupation by Irrep:
              A 
    DOCC [     5 ]
    NA   [     5 ]
    NB   [     5 ]

  @DF-RHF Final Energy:   -99.45117105857719

   => Energetics <=

    Nuclear Repulsion Energy =              0.0000000000000000
    One-Electron Energy =                -143.9982737138379036
    Two-Electron Energy =                  44.5471026552607015
    Total Energy =                        -99.4511710585772022

Computation Completed


Properties will be evaluated at   0.000000,   0.000000,   0.000000 [a0]

Properties computed using the SCF density matrix


 Multipole Moments:

 ------------------------------------------------------------------------------------
     Multipole            Electronic (a.u.)      Nuclear  (a.u.)        Total (a.u.)
 ------------------------------------------------------------------------------------

 L = 1.  Multiply by 2.5417464519 to convert [e a0] to [Debye]
 Dipole X            :         -0.0001555            0.0000000           -0.0001555
 Dipole Y            :         -0.0000239            0.0000000           -0.0000239
 Dipole Z            :          0.0000812            0.0000000            0.0000812
 Magnitude           :                                                    0.0001771

 ------------------------------------------------------------------------------------

*** tstop() called on moses-razer at Sat Jan  6 22:42:12 2024
Module time:
	user time   =      51.81 seconds =       0.86 minutes
	system time =       1.72 seconds =       0.03 minutes
	total time  =         10 seconds =       0.17 minutes
Total time:
	user time   =     162.59 seconds =       2.71 minutes
	system time =       6.06 seconds =       0.10 minutes
	total time  =         31 seconds =       0.52 minutes

*** tstart() called on moses-razer
*** at Sat Jan  6 22:42:12 2024


  //>>>>>>>>>>>>>>>>>>>>>>>>>>>>>>>>>>>//
  //               DFMP2               //
  //<<<<<<<<<<<<<<<<<<<<<<<<<<<<<<<<<<<//

   => Loading Basis Set <=

    Name: (AUG-CC-PVTZ AUX)
    Role: RIFIT
    Keyword: DF_BASIS_MP2
    atoms 1                                   entry F          line   322 file /home/kchung25/anaconda3/envs/p415env/share/psi4/basis/aug-cc-pvtz-ri.gbs 
    atoms 2, 5, 8, 11, 14, 17                 entry O          line   264 file /home/kchung25/anaconda3/envs/p415env/share/psi4/basis/aug-cc-pvtz-ri.gbs 
    atoms 3-4, 6-7, 9-10, 12-13, 15-16, 18-19 entry H          line    30 file /home/kchung25/anaconda3/envs/p415env/share/psi4/basis/aug-cc-pvtz-ri.gbs 

	 --------------------------------------------------------
	                          DF-MP2                         
	      2nd-Order Density-Fitted Moller-Plesset Theory     
	              RMP2 Wavefunction,   6 Threads             
	                                                         
	        Rob Parrish, Justin Turney, Andy Simmonett,      
	           Ed Hohenstein, and C. David Sherrill          
	 --------------------------------------------------------

   => Auxiliary Basis Set <=

  Basis Set: (AUG-CC-PVTZ AUX)
    Blend: AUG-CC-PVTZ-RI
    Number of shells: 364
    Number of basis functions: 1294
    Number of Cartesian functions: 1612
    Spherical Harmonics?: true
    Max angular momentum: 4

	 --------------------------------------------------------
	                 NBF =   598, NAUX =  1294
	 --------------------------------------------------------
	   CLASS    FOCC     OCC    AOCC    AVIR     VIR    FVIR
	   PAIRS       0       5       5     593     593       0
	 --------------------------------------------------------

	-----------------------------------------------------------
	 ==================> DF-MP2 Energies <==================== 
	-----------------------------------------------------------
	 Reference Energy          =     -99.4511710585771880 [Eh]
	 Singles Energy            =      -0.0000000000000000 [Eh]
	 Same-Spin Energy          =      -0.0821137909778903 [Eh]
	 Opposite-Spin Energy      =      -0.2306589267001181 [Eh]
	 Correlation Energy        =      -0.3127727176780084 [Eh]
	 Total Energy              =     -99.7639437762551893 [Eh]
	-----------------------------------------------------------
	 ================> DF-SCS-MP2 Energies <================== 
	-----------------------------------------------------------
	 SCS Same-Spin Scale       =       0.3333333333333333 [-]
	 SCS Opposite-Spin Scale   =       1.2000000000000000 [-]
	 SCS Same-Spin Energy      =      -0.0273712636592968 [Eh]
	 SCS Opposite-Spin Energy  =      -0.2767907120401417 [Eh]
	 SCS Correlation Energy    =      -0.3041619756994385 [Eh]
	 SCS Total Energy          =     -99.7553330342766316 [Eh]
	-----------------------------------------------------------


*** tstop() called on moses-razer at Sat Jan  6 22:42:16 2024
Module time:
	user time   =      15.88 seconds =       0.26 minutes
	system time =       0.95 seconds =       0.02 minutes
	total time  =          4 seconds =       0.07 minutes
Total time:
	user time   =     178.47 seconds =       2.97 minutes
	system time =       7.01 seconds =       0.12 minutes
	total time  =         35 seconds =       0.58 minutes

    Psi4 stopped on: Saturday, 06 January 2024 10:42PM
    Psi4 wall time for execution: 0:00:13.71


    -----------------------------------------------------------------------
          Psi4: An Open-Source Ab Initio Electronic Structure Package
                               Psi4 1.9 release

                         Git: Rev {} zzzzzzz 


    D. G. A. Smith, L. A. Burns, A. C. Simmonett, R. M. Parrish,
    M. C. Schieber, R. Galvelis, P. Kraus, H. Kruse, R. Di Remigio,
    A. Alenaizan, A. M. James, S. Lehtola, J. P. Misiewicz, M. Scheurer,
    R. A. Shaw, J. B. Schriber, Y. Xie, Z. L. Glick, D. A. Sirianni,
    J. S. O'Brien, J. M. Waldrop, A. Kumar, E. G. Hohenstein,
    B. P. Pritchard, B. R. Brooks, H. F. Schaefer III, A. Yu. Sokolov,
    K. Patkowski, A. E. DePrince III, U. Bozkaya, R. A. King,
    F. A. Evangelista, J. M. Turney, T. D. Crawford, C. D. Sherrill,
    J. Chem. Phys. 152(18) 184108 (2020). https://doi.org/10.1063/5.0006002

                            Additional Code Authors
    E. T. Seidl, C. L. Janssen, E. F. Valeev, M. L. Leininger,
    J. F. Gonthier, R. M. Richard, H. R. McAlexander, M. Saitow, X. Wang,
    P. Verma, M. H. Lechner, A. Jiang, S. Behnle, A. G. Heide,
    M. F. Herbst, and D. L. Poole

             Previous Authors, Complete List of Code Contributors,
                       and Citations for Specific Modules
    https://github.com/psi4/psi4/blob/master/codemeta.json
    https://github.com/psi4/psi4/graphs/contributors
    http://psicode.org/psi4manual/master/introduction.html#citing-psifour

    -----------------------------------------------------------------------


    Psi4 started on: Saturday, 06 January 2024 10:41PM

    Process ID: 558540
    Host:       moses-razer
    PSIDATADIR: /home/kchung25/anaconda3/envs/psi4_19/share/psi4
    Memory:     55.9 GiB
    Threads:    6
    
  ==> Input QCSchema <==

--------------------------------------------------------------------------
{'driver': 'energy',
 'extras': {'psiapi': True, 'wfn_qcvars_only': True},
 'id': None,
 'keywords': {'SCF_TYPE': 'DF', 'function_kwargs': {}},
 'model': {'basis': 'aug-cc-pvtz', 'method': 'mp2'},
 'molecule': {'atom_labels': ['', '', '', '', '', '', '', '', '', '', '', '', '', '', '', '', '', '', ''],
              'atomic_numbers': [9, 8, 1, 1, 8, 1, 1, 8, 1, 1, 8, 1, 1, 8, 1, 1, 8, 1, 1],
              'extras': {},
              'fix_com': True,
              'fix_orientation': True,
              'fix_symmetry': 'c1',
              'fragment_charges': [-1.0, 0.0],
              'fragment_multiplicities': [1, 1],
              'fragments': [[0], [1, 2, 3, 4, 5, 6, 7, 8, 9, 10, 11, 12, 13, 14, 15, 16, 17, 18]],
              'geometry': [0.0, 0.0, 0.0, 1.3984389068135528, 5.174680513042056, -1.4028211816984897,
                           0.26569171378711964, 5.982447724821256, -2.542074701774874, 0.6123846482158638,
                           3.6927157114832676, -0.8930335442859823, -3.0934816673744647, -4.023051176570048,
                           2.2847847103415395, -2.6638165279552433, -5.636618395231846, 1.3431436306565314,
                           -2.25772950140336, -2.6542431754036744, 1.34858604189785, -4.888186694065897,
                           1.6864671834035843, 1.1934735420680205, -3.1133030047043917, 1.2651168389363778,
                           0.9342862656047266, -6.018371418466209, 0.5078487784077876, 0.4843349162287159,
                           2.5382914700717074, -4.534369492144177, -0.7841002817839657, 1.8862679266482403,
                           -5.658518431299777, 0.47747143094105304, 1.9131020376297414, -2.931127737031881,
                           -0.4805497947994239, -2.0082969911996797, 0.19552996220112148, -4.658067184864395,
                           -1.2150428760639962, -0.15882770139247954, -3.0451424730852534, -3.6601897454118872,
                           0.8810980340775906, -4.13755724141604, 1.0251839819653736, -0.2066547799016917,
                           5.052749714249141, 0.5812495205728206, 0.053690898676507816, 3.2199515883207295,
                           0.06414675332866598, 1.0053229603868117, 5.991663919135114],
              'mass_numbers': [19, 16, 1, 1, 16, 1, 1, 16, 1, 1, 16, 1, 1, 16, 1, 1, 16, 1, 1],
              'masses': [18.99840316273, 15.99491461957, 1.00782503223, 1.00782503223, 15.99491461957, 1.00782503223,
                         1.00782503223, 15.99491461957, 1.00782503223, 1.00782503223, 15.99491461957, 1.00782503223,
                         1.00782503223, 15.99491461957, 1.00782503223, 1.00782503223, 15.99491461957, 1.00782503223,
                         1.00782503223],
              'molecular_charge': -1.0,
              'molecular_multiplicity': 1,
              'name': 'dimer',
              'provenance': {'creator': 'QCElemental',
                             'routine': 'qcelemental.molparse.from_string',
                             'version': '0.27.1'},
              'real': [True, True, True, True, True, True, True, True, True, True, True, True, True, True, True, True,
                       True, True, True],
              'schema_name': 'qcschema_molecule',
              'schema_version': 2,
              'symbols': ['F', 'O', 'H', 'H', 'O', 'H', 'H', 'O', 'H', 'H', 'O', 'H', 'H', 'O', 'H', 'H', 'O', 'H',
                          'H'],
              'validated': True},
 'protocols': {'stdout': True},
 'provenance': {'creator': 'QCElemental', 'routine': 'qcelemental.models.results', 'version': '0.27.1'},
 'schema_name': 'qcschema_input',
 'schema_version': 1}
--------------------------------------------------------------------------

Scratch directory: /scratch/
   => Libint2 <=

    Primary   basis highest AM E, G, H:  5, 4, 3
    Auxiliary basis highest AM E, G, H:  6, 5, 4
    Onebody   basis highest AM E, G, H:  6, 5, 4
    Solid Harmonics ordering:            gaussian

*** tstart() called on moses-razer
*** at Sat Jan  6 22:42:16 2024

   => Loading Basis Set <=

    Name: AUG-CC-PVTZ
    Role: ORBITAL
    Keyword: BASIS
    atoms 1                                   entry F          line   377 file /home/kchung25/anaconda3/envs/p415env/share/psi4/basis/aug-cc-pvtz.gbs 
    atoms 2, 5, 8, 11, 14, 17                 entry O          line   331 file /home/kchung25/anaconda3/envs/p415env/share/psi4/basis/aug-cc-pvtz.gbs 
    atoms 3-4, 6-7, 9-10, 12-13, 15-16, 18-19 entry H          line    40 file /home/kchung25/anaconda3/envs/p415env/share/psi4/basis/aug-cc-pvtz.gbs 


         ---------------------------------------------------------
                                   SCF
               by Justin Turney, Rob Parrish, Andy Simmonett
                          and Daniel G. A. Smith
                              RHF Reference
                        6 Threads,  57220 MiB Core
         ---------------------------------------------------------

  ==> Geometry <==

    Molecular point group: c1
    Full point group: C1

    Geometry (in Bohr), charge = -1, multiplicity = 1:

       Center              X                  Y                   Z               Mass       
    ------------   -----------------  -----------------  -----------------  -----------------
         F            0.000000000000     0.000000000000     0.000000000000    18.998403162730
         O            1.398438906814     5.174680513042    -1.402821181698    15.994914619570
         H            0.265691713787     5.982447724821    -2.542074701775     1.007825032230
         H            0.612384648216     3.692715711483    -0.893033544286     1.007825032230
         O           -3.093481667374    -4.023051176570     2.284784710342    15.994914619570
         H           -2.663816527955    -5.636618395232     1.343143630657     1.007825032230
         H           -2.257729501403    -2.654243175404     1.348586041898     1.007825032230
         O           -4.888186694066     1.686467183404     1.193473542068    15.994914619570
         H           -3.113303004704     1.265116838936     0.934286265605     1.007825032230
         H           -6.018371418466     0.507848778408     0.484334916229     1.007825032230
         O            2.538291470072    -4.534369492144    -0.784100281784    15.994914619570
         H            1.886267926648    -5.658518431300     0.477471430941     1.007825032230
         H            1.913102037630    -2.931127737032    -0.480549794799     1.007825032230
         O           -2.008296991200     0.195529962201    -4.658067184864    15.994914619570
         H           -1.215042876064    -0.158827701392    -3.045142473085     1.007825032230
         H           -3.660189745412     0.881098034078    -4.137557241416     1.007825032230
         O            1.025183981965    -0.206654779902     5.052749714249    15.994914619570
         H            0.581249520573     0.053690898677     3.219951588321     1.007825032230
         H            0.064146753329     1.005322960387     5.991663919135     1.007825032230

  Running in c1 symmetry.

  Rotational constants: A =      0.03603  B =      0.02799  C =      0.02719 [cm^-1]
  Rotational constants: A =   1080.13562  B =    839.16120  C =    815.19060 [MHz]
  Nuclear repulsion =  360.110635085890749

  Charge       = -1
  Multiplicity = 1
  Electrons    = 70
  Nalpha       = 35
  Nbeta        = 35

  ==> Algorithm <==

  SCF Algorithm Type is DF.
  DIIS enabled.
  MOM disabled.
  Fractional occupation disabled.
  Guess Type is SAD.
  Energy threshold   = 1.00e-08
  Density threshold  = 1.00e-08
  Integral threshold = 1.00e-12

  ==> Primary Basis <==

  Basis Set: AUG-CC-PVTZ
    Blend: AUG-CC-PVTZ
    Number of shells: 206
    Number of basis functions: 598
    Number of Cartesian functions: 685
    Spherical Harmonics?: true
    Max angular momentum: 3

   => Loading Basis Set <=

    Name: (AUG-CC-PVTZ AUX)
    Role: JKFIT
    Keyword: DF_BASIS_SCF
    atoms 1                                   entry F          line   348 file /home/kchung25/anaconda3/envs/p415env/share/psi4/basis/aug-cc-pvtz-jkfit.gbs 
    atoms 2, 5, 8, 11, 14, 17                 entry O          line   286 file /home/kchung25/anaconda3/envs/p415env/share/psi4/basis/aug-cc-pvtz-jkfit.gbs 
    atoms 3-4, 6-7, 9-10, 12-13, 15-16, 18-19 entry H          line    70 file /home/kchung25/anaconda3/envs/p415env/share/psi4/basis/aug-cc-pvtz-jkfit.gbs 

  ==> Integral Setup <==

  DFHelper Memory: AOs need 3.178 GiB; user supplied 41.910 GiB. 
  Using in-core AOs.

  ==> MemDFJK: Density-Fitted J/K Matrices <==

    J tasked:                   Yes
    K tasked:                   Yes
    wK tasked:                   No
    OpenMP threads:               6
    Memory [MiB]:             42915
    Algorithm:                 Core
    Schwarz Cutoff:           1E-12
    Mask sparsity (%):       9.7409
    Fitting Condition:        1E-10

   => Auxiliary Basis Set <=

  Basis Set: (AUG-CC-PVTZ AUX)
    Blend: AUG-CC-PVTZ-JKFIT
    Number of shells: 378
    Number of basis functions: 1280
    Number of Cartesian functions: 1577
    Spherical Harmonics?: true
    Max angular momentum: 4

  Minimum eigenvalue in the overlap matrix is 1.7059147494E-05.
  Reciprocal condition number of the overlap matrix is 1.0446380205E-06.
    Using symmetric orthogonalization.

  ==> Pre-Iterations <==

  SCF Guess: Superposition of Atomic Densities via on-the-fly atomic UHF (no occupation information).

   -------------------------
    Irrep   Nso     Nmo    
   -------------------------
     A        598     598 
   -------------------------
    Total     598     598
   -------------------------

  ==> Iterations <==

                           Total Energy        Delta E     RMS |[F,P]|

   @DF-RHF iter SAD:  -552.25987159322256   -5.52260e+02   0.00000e+00 
   @DF-RHF iter   1:  -555.40920236291299   -3.14933e+00   1.96864e-03 DIIS/ADIIS
   @DF-RHF iter   2:  -555.73949022518548   -3.30288e-01   1.31191e-03 DIIS/ADIIS
   @DF-RHF iter   3:  -555.92488946973526   -1.85399e-01   8.97709e-05 DIIS
   @DF-RHF iter   4:  -555.92726216782467   -2.37270e-03   2.95732e-05 DIIS
   @DF-RHF iter   5:  -555.92741592175935   -1.53754e-04   1.19159e-05 DIIS
   @DF-RHF iter   6:  -555.92744381990724   -2.78981e-05   2.65971e-06 DIIS
   @DF-RHF iter   7:  -555.92744680847341   -2.98857e-06   7.30288e-07 DIIS
   @DF-RHF iter   8:  -555.92744703532446   -2.26851e-07   3.09036e-07 DIIS
   @DF-RHF iter   9:  -555.92744705615178   -2.08273e-08   7.18081e-08 DIIS
   @DF-RHF iter  10:  -555.92744705826317   -2.11139e-09   1.39796e-08 DIIS
   @DF-RHF iter  11:  -555.92744705835185   -8.86757e-11   5.08858e-09 DIIS
  Energy and wave function converged.


  ==> Post-Iterations <==

    Orbital Energies [Eh]
    ---------------------

    Doubly Occupied:                                                      

       1A    -26.028943     2A    -20.431362     3A    -20.419799  
       4A    -20.413669     5A    -20.410669     6A    -20.407835  
       7A    -20.398570     8A     -1.301093     9A     -1.213449  
      10A     -1.208847    11A     -1.207226    12A     -1.193570  
      13A     -1.189030    14A     -1.174214    15A     -0.600885  
      16A     -0.587733    17A     -0.584058    18A     -0.565411  
      19A     -0.558313    20A     -0.543544    21A     -0.454157  
      22A     -0.451433    23A     -0.440926    24A     -0.438794  
      25A     -0.427375    26A     -0.420187    27A     -0.387485  
      28A     -0.380967    29A     -0.372428    30A     -0.370766  
      31A     -0.366554    32A     -0.362920    33A     -0.358508  
      34A     -0.352399    35A     -0.339845  

    Virtual:                                                              

      36A      0.114891    37A      0.123940    38A      0.132585  
      39A      0.133903    40A      0.145702    41A      0.150023  
      42A      0.172416    43A      0.177263    44A      0.181981  
      45A      0.194040    46A      0.196487    47A      0.200433  
      48A      0.244461    49A      0.254290    50A      0.259395  
      51A      0.268238    52A      0.273421    53A      0.280531  
      54A      0.285744    55A      0.292715    56A      0.299171  
      57A      0.303080    58A      0.306420    59A      0.312335  
      60A      0.317916    61A      0.327864    62A      0.335188  
      63A      0.338574    64A      0.342675    65A      0.346925  
      66A      0.357174    67A      0.359873    68A      0.363296  
      69A      0.369595    70A      0.374757    71A      0.379010  
      72A      0.385410    73A      0.389855    74A      0.399191  
      75A      0.409686    76A      0.421751    77A      0.431699  
      78A      0.435161    79A      0.452227    80A      0.456966  
      81A      0.463525    82A      0.472902    83A      0.474490  
      84A      0.482207    85A      0.483182    86A      0.498666  
      87A      0.503137    88A      0.512027    89A      0.519631  
      90A      0.523164    91A      0.535413    92A      0.538171  
      93A      0.544652    94A      0.548573    95A      0.554557  
      96A      0.557638    97A      0.562239    98A      0.575564  
      99A      0.582812   100A      0.591265   101A      0.599517  
     102A      0.604873   103A      0.612880   104A      0.623328  
     105A      0.628600   106A      0.637132   107A      0.650813  
     108A      0.658810   109A      0.668185   110A      0.677430  
     111A      0.685529   112A      0.692537   113A      0.700611  
     114A      0.707021   115A      0.718304   116A      0.723758  
     117A      0.735007   118A      0.737176   119A      0.750274  
     120A      0.759599   121A      0.787422   122A      0.795425  
     123A      0.799659   124A      0.814443   125A      0.820875  
     126A      0.831086   127A      0.838007   128A      0.847074  
     129A      0.854780   130A      0.859709   131A      0.867701  
     132A      0.873538   133A      0.883025   134A      0.889714  
     135A      0.895044   136A      0.903233   137A      0.912894  
     138A      0.922562   139A      0.928496   140A      0.933054  
     141A      0.944553   142A      0.945751   143A      0.951983  
     144A      0.958255   145A      0.966248   146A      0.976052  
     147A      0.982220   148A      0.983585   149A      0.985898  
     150A      0.999728   151A      1.006419   152A      1.015740  
     153A      1.027455   154A      1.030289   155A      1.039053  
     156A      1.044138   157A      1.049896   158A      1.057116  
     159A      1.060758   160A      1.073461   161A      1.079185  
     162A      1.088596   163A      1.095662   164A      1.097700  
     165A      1.110424   166A      1.113743   167A      1.118341  
     168A      1.127686   169A      1.135212   170A      1.144925  
     171A      1.151144   172A      1.154558   173A      1.167096  
     174A      1.172425   175A      1.175410   176A      1.188752  
     177A      1.194391   178A      1.202165   179A      1.211291  
     180A      1.213018   181A      1.221422   182A      1.228040  
     183A      1.234293   184A      1.239516   185A      1.246604  
     186A      1.257901   187A      1.264245   188A      1.266154  
     189A      1.278979   190A      1.290373   191A      1.298864  
     192A      1.315585   193A      1.318380   194A      1.323286  
     195A      1.335812   196A      1.341387   197A      1.354498  
     198A      1.359439   199A      1.368336   200A      1.375549  
     201A      1.377971   202A      1.391021   203A      1.395525  
     204A      1.406503   205A      1.412405   206A      1.430884  
     207A      1.432070   208A      1.440721   209A      1.448188  
     210A      1.455488   211A      1.470534   212A      1.476077  
     213A      1.483839   214A      1.484779   215A      1.501456  
     216A      1.507717   217A      1.519668   218A      1.530496  
     219A      1.535074   220A      1.556478   221A      1.562106  
     222A      1.570966   223A      1.576903   224A      1.585219  
     225A      1.587002   226A      1.601185   227A      1.612446  
     228A      1.621315   229A      1.641167   230A      1.646676  
     231A      1.656302   232A      1.664788   233A      1.675876  
     234A      1.682555   235A      1.701000   236A      1.716029  
     237A      1.723582   238A      1.729369   239A      1.747362  
     240A      1.754606   241A      1.766990   242A      1.779090  
     243A      1.793483   244A      1.797582   245A      1.811228  
     246A      1.812858   247A      1.824219   248A      1.838141  
     249A      1.849600   250A      1.854617   251A      1.866477  
     252A      1.889584   253A      1.893956   254A      1.902784  
     255A      1.908571   256A      1.933292   257A      1.938332  
     258A      1.943344   259A      1.951965   260A      1.978769  
     261A      1.990514   262A      2.000955   263A      2.012613  
     264A      2.035411   265A      2.041709   266A      2.059810  
     267A      2.065922   268A      2.078962   269A      2.095942  
     270A      2.098942   271A      2.116628   272A      2.149723  
     273A      2.171652   274A      2.181865   275A      2.182566  
     276A      2.188777   277A      2.191586   278A      2.214295  
     279A      2.234742   280A      2.245019   281A      2.297697  
     282A      2.308825   283A      2.366816   284A      2.387825  
     285A      2.420867   286A      2.434944   287A      2.474643  
     288A      2.480432   289A      2.493598   290A      2.496590  
     291A      2.523512   292A      2.534837   293A      2.548782  
     294A      2.569190   295A      2.583217   296A      2.590139  
     297A      2.606653   298A      2.608731   299A      2.613561  
     300A      2.622228   301A      2.630162   302A      2.637759  
     303A      2.648853   304A      2.657838   305A      2.661813  
     306A      2.672905   307A      2.679271   308A      2.681818  
     309A      2.686277   310A      2.708678   311A      2.722289  
     312A      2.731647   313A      2.736136   314A      2.743407  
     315A      2.754755   316A      2.769489   317A      2.782755  
     318A      2.784375   319A      2.798956   320A      2.804777  
     321A      2.811553   322A      2.824311   323A      2.831718  
     324A      2.836327   325A      2.863613   326A      2.872888  
     327A      2.890903   328A      2.895243   329A      2.906173  
     330A      2.916101   331A      2.929375   332A      2.940542  
     333A      2.944492   334A      2.957831   335A      2.963737  
     336A      2.967439   337A      2.986069   338A      2.990019  
     339A      2.997703   340A      3.016119   341A      3.039564  
     342A      3.045780   343A      3.059356   344A      3.065201  
     345A      3.075070   346A      3.099518   347A      3.116598  
     348A      3.128414   349A      3.145867   350A      3.155264  
     351A      3.166734   352A      3.179303   353A      3.184113  
     354A      3.198437   355A      3.222977   356A      3.236832  
     357A      3.268537   358A      3.281154   359A      3.316352  
     360A      3.317041   361A      3.335743   362A      3.347517  
     363A      3.382509   364A      3.391729   365A      3.405278  
     366A      3.509333   367A      3.617979   368A      3.653679  
     369A      3.686003   370A      3.726793   371A      3.768837  
     372A      3.822840   373A      3.826990   374A      3.868327  
     375A      3.902858   376A      3.923720   377A      3.947116  
     378A      3.966478   379A      3.984659   380A      3.992179  
     381A      4.049528   382A      4.070117   383A      4.089490  
     384A      4.186546   385A      4.211530   386A      4.239018  
     387A      4.254267   388A      4.268332   389A      4.280815  
     390A      4.292806   391A      4.300328   392A      4.315613  
     393A      4.336911   394A      4.347509   395A      4.357696  
     396A      4.376713   397A      4.400049   398A      4.412998  
     399A      4.433095   400A      4.442565   401A      4.448616  
     402A      4.459057   403A      4.466641   404A      4.472622  
     405A      4.485451   406A      4.493327   407A      4.501906  
     408A      4.502230   409A      4.517527   410A      4.526773  
     411A      4.530051   412A      4.540946   413A      4.544818  
     414A      4.566404   415A      4.575181   416A      4.581148  
     417A      4.593590   418A      4.595654   419A      4.604728  
     420A      4.618055   421A      4.640236   422A      4.642410  
     423A      4.654197   424A      4.658121   425A      4.670652  
     426A      4.678113   427A      4.688333   428A      4.693528  
     429A      4.704188   430A      4.730847   431A      4.736517  
     432A      4.747537   433A      4.763597   434A      4.788505  
     435A      4.798023   436A      4.808907   437A      4.824472  
     438A      4.839377   439A      4.844359   440A      4.850300  
     441A      4.882299   442A      4.895653   443A      4.910486  
     444A      4.956342   445A      4.971121   446A      4.977762  
     447A      5.005208   448A      5.029142   449A      5.039011  
     450A      5.047655   451A      5.125014   452A      5.155241  
     453A      5.200394   454A      5.212121   455A      5.222841  
     456A      5.258572   457A      5.265400   458A      5.299121  
     459A      5.319350   460A      5.355383   461A      5.374855  
     462A      5.391575   463A      5.397325   464A      5.416187  
     465A      5.423072   466A      5.446085   467A      5.452723  
     468A      5.481507   469A      5.495790   470A      5.499349  
     471A      5.543708   472A      5.556895   473A      5.572664  
     474A      5.588830   475A      5.609414   476A      5.616035  
     477A      5.644527   478A      5.660367   479A      5.689835  
     480A      5.698768   481A      5.720670   482A      5.744540  
     483A      5.772935   484A      5.796297   485A      5.815878  
     486A      5.838555   487A      5.881417   488A      5.966429  
     489A      5.998147   490A      6.029125   491A      6.076212  
     492A      6.095528   493A      6.383443   494A      6.405391  
     495A      6.415459   496A      6.442688   497A      6.457766  
     498A      6.483922   499A      6.582327   500A      6.712443  
     501A      6.722792   502A      6.739627   503A      6.745134  
     504A      6.750670   505A      6.768059   506A      6.799511  
     507A      6.821719   508A      6.967109   509A      6.983958  
     510A      6.999544   511A      7.008013   512A      7.032320  
     513A      7.051739   514A      7.069228   515A      7.104469  
     516A      7.127555   517A      7.142960   518A      7.148482  
     519A      7.181909   520A      7.294131   521A      7.314170  
     522A      7.346072   523A      7.352879   524A      7.400801  
     525A      7.447020   526A      7.459538   527A      7.464846  
     528A      7.465854   529A      7.474557   530A      7.488613  
     531A      7.488719   532A      7.492318   533A      7.509796  
     534A      7.518978   535A      7.520642   536A      7.530452  
     537A      7.532813   538A      7.545103   539A      7.554324  
     540A      7.572139   541A      7.581483   542A      7.586923  
     543A      7.596566   544A      7.617983   545A      7.636745  
     546A      7.649449   547A      7.660630   548A      7.695726  
     549A      7.698382   550A      7.714347   551A      7.728376  
     552A      7.767736   553A      7.772905   554A      7.786784  
     555A      7.811488   556A      7.946179   557A      7.984372  
     558A      8.009490   559A      8.033872   560A      8.045440  
     561A      8.083917   562A      8.094397   563A      8.110350  
     564A      8.144425   565A      8.164689   566A      8.180504  
     567A      8.221396   568A      8.224448   569A      8.246573  
     570A      8.283946   571A      8.305732   572A      8.317289  
     573A      8.348254   574A      8.800035   575A      8.928571  
     576A      8.954157   577A      8.984813   578A      9.058318  
     579A      9.081834   580A      9.302905   581A      9.413149  
     582A      9.623128   583A      9.684376   584A      9.748712  
     585A      9.840920   586A     10.022381   587A     10.063995  
     588A     10.140660   589A     10.259651   590A     10.287253  
     591A     10.359967   592A     15.172327   593A     16.303934  
     594A     17.089471   595A     17.251733   596A     17.914301  
     597A     17.986879   598A     18.441657  

    Final Occupation by Irrep:
              A 
    DOCC [    35 ]
    NA   [    35 ]
    NB   [    35 ]

  @DF-RHF Final Energy:  -555.92744705835185

   => Energetics <=

    Nuclear Repulsion Energy =            360.1106350858907490
    One-Electron Energy =               -1499.3502337077684388
    Two-Electron Energy =                 583.3121515635257310
    Total Energy =                       -555.9274470583518450

Computation Completed


Properties will be evaluated at   0.000000,   0.000000,   0.000000 [a0]

Properties computed using the SCF density matrix


 Multipole Moments:

 ------------------------------------------------------------------------------------
     Multipole            Electronic (a.u.)      Nuclear  (a.u.)        Total (a.u.)
 ------------------------------------------------------------------------------------

 L = 1.  Multiply by 2.5417464519 to convert [e a0] to [Debye]
 Dipole X            :         52.9916916          -53.8300184           -0.8383268
 Dipole Y            :         17.3240626          -17.3102768            0.0137858
 Dipole Z            :        -16.4825228           16.1892346           -0.2932882
 Magnitude           :                                                    0.8882567

 ------------------------------------------------------------------------------------

*** tstop() called on moses-razer at Sat Jan  6 22:42:31 2024
Module time:
	user time   =      82.43 seconds =       1.37 minutes
	system time =       2.74 seconds =       0.05 minutes
	total time  =         15 seconds =       0.25 minutes
Total time:
	user time   =     261.25 seconds =       4.35 minutes
	system time =       9.76 seconds =       0.16 minutes
	total time  =         50 seconds =       0.83 minutes

*** tstart() called on moses-razer
*** at Sat Jan  6 22:42:31 2024


  //>>>>>>>>>>>>>>>>>>>>>>>>>>>>>>>>>>>//
  //               DFMP2               //
  //<<<<<<<<<<<<<<<<<<<<<<<<<<<<<<<<<<<//

   => Loading Basis Set <=

    Name: (AUG-CC-PVTZ AUX)
    Role: RIFIT
    Keyword: DF_BASIS_MP2
    atoms 1                                   entry F          line   322 file /home/kchung25/anaconda3/envs/p415env/share/psi4/basis/aug-cc-pvtz-ri.gbs 
    atoms 2, 5, 8, 11, 14, 17                 entry O          line   264 file /home/kchung25/anaconda3/envs/p415env/share/psi4/basis/aug-cc-pvtz-ri.gbs 
    atoms 3-4, 6-7, 9-10, 12-13, 15-16, 18-19 entry H          line    30 file /home/kchung25/anaconda3/envs/p415env/share/psi4/basis/aug-cc-pvtz-ri.gbs 

	 --------------------------------------------------------
	                          DF-MP2                         
	      2nd-Order Density-Fitted Moller-Plesset Theory     
	              RMP2 Wavefunction,   6 Threads             
	                                                         
	        Rob Parrish, Justin Turney, Andy Simmonett,      
	           Ed Hohenstein, and C. David Sherrill          
	 --------------------------------------------------------

   => Auxiliary Basis Set <=

  Basis Set: (AUG-CC-PVTZ AUX)
    Blend: AUG-CC-PVTZ-RI
    Number of shells: 364
    Number of basis functions: 1294
    Number of Cartesian functions: 1612
    Spherical Harmonics?: true
    Max angular momentum: 4

	 --------------------------------------------------------
	                 NBF =   598, NAUX =  1294
	 --------------------------------------------------------
	   CLASS    FOCC     OCC    AOCC    AVIR     VIR    FVIR
	   PAIRS       0      35      35     563     563       0
	 --------------------------------------------------------

	-----------------------------------------------------------
	 ==================> DF-MP2 Energies <==================== 
	-----------------------------------------------------------
	 Reference Energy          =    -555.9274470583518450 [Eh]
	 Singles Energy            =      -0.0000000000000000 [Eh]
	 Same-Spin Energy          =      -0.5035632252749730 [Eh]
	 Opposite-Spin Energy      =      -1.5347930929375653 [Eh]
	 Correlation Energy        =      -2.0383563182125384 [Eh]
	 Total Energy              =    -557.9658033765643950 [Eh]
	-----------------------------------------------------------
	 ================> DF-SCS-MP2 Energies <================== 
	-----------------------------------------------------------
	 SCS Same-Spin Scale       =       0.3333333333333333 [-]
	 SCS Opposite-Spin Scale   =       1.2000000000000000 [-]
	 SCS Same-Spin Energy      =      -0.1678544084249910 [Eh]
	 SCS Opposite-Spin Energy  =      -1.8417517115250783 [Eh]
	 SCS Correlation Energy    =      -2.0096061199500692 [Eh]
	 SCS Total Energy          =    -557.9370531783018805 [Eh]
	-----------------------------------------------------------


*** tstop() called on moses-razer at Sat Jan  6 22:42:38 2024
Module time:
	user time   =      36.90 seconds =       0.61 minutes
	system time =       1.62 seconds =       0.03 minutes
	total time  =          7 seconds =       0.12 minutes
Total time:
	user time   =     298.15 seconds =       4.97 minutes
	system time =      11.38 seconds =       0.19 minutes
	total time  =         57 seconds =       0.95 minutes

    Psi4 stopped on: Saturday, 06 January 2024 10:42PM
    Psi4 wall time for execution: 0:00:22.74


  //>>>>>>>>>>>>>>>>>>>>>>>>>>>>>>>>>>>//
  //          ManyBody Results         //
  //<<<<<<<<<<<<<<<<<<<<<<<<<<<<<<<<<<<//


   ==> N-Body: Counterpoise Corrected (CP) energies <==

        n-Body     Total Energy            Interaction Energy                          N-body Contribution to Interaction Energy
                   [Eh]                    [Eh]                  [kcal/mol]            [Eh]                  [kcal/mol]
             1  N/A                         0.000000000000        0.000000000000        0.000000000000        0.000000000000
  FULL/RTN   2  N/A                        -0.158823402913      -99.663189985397       -0.158823402913      -99.663189985397


    Psi4 stopped on: Saturday, 06 January 2024 10:42PM
    Psi4 wall time for execution: 0:00:59.33

*** Psi4 exiting successfully. Buy a developer a beer!
