
    -----------------------------------------------------------------------
          Psi4: An Open-Source Ab Initio Electronic Structure Package
                               Psi4 1.8.2 release

                         Git: Rev {} zzzzzzz 


    D. G. A. Smith, L. A. Burns, A. C. Simmonett, R. M. Parrish,
    M. C. Schieber, R. Galvelis, P. Kraus, H. Kruse, R. Di Remigio,
    A. Alenaizan, A. M. James, S. Lehtola, J. P. Misiewicz, M. Scheurer,
    R. A. Shaw, J. B. Schriber, Y. Xie, Z. L. Glick, D. A. Sirianni,
    J. S. O'Brien, J. M. Waldrop, A. Kumar, E. G. Hohenstein,
    B. P. Pritchard, B. R. Brooks, H. F. Schaefer III, A. Yu. Sokolov,
    K. Patkowski, A. E. DePrince III, U. Bozkaya, R. A. King,
    F. A. Evangelista, J. M. Turney, T. D. Crawford, C. D. Sherrill,
    J. Chem. Phys. 152(18) 184108 (2020). https://doi.org/10.1063/5.0006002

                            Additional Code Authors
    E. T. Seidl, C. L. Janssen, E. F. Valeev, M. L. Leininger,
    J. F. Gonthier, R. M. Richard, H. R. McAlexander, M. Saitow, X. Wang,
    P. Verma, M. H. Lechner, A. Jiang, S. Behnle, A. G. Heide,
    M. F. Herbst, and D. L. Poole

             Previous Authors, Complete List of Code Contributors,
                       and Citations for Specific Modules
    https://github.com/psi4/psi4/blob/master/codemeta.json
    https://github.com/psi4/psi4/graphs/contributors
    http://psicode.org/psi4manual/master/introduction.html#citing-psifour

    -----------------------------------------------------------------------


    Psi4 started on: Monday, 22 January 2024 04:50PM

    Process ID: 80258
    Host:       ddmfs1
    PSIDATADIR: /ddmfs1b/softs/psi4conda/share/psi4
    Memory:     500.0 MiB
    Threads:    20
    
  ==> Input File <==

--------------------------------------------------------------------------
MEMORY 60 GB

molecule dimer {
0 1
Gh(F)      0.000000     0.000000     0.000000
Gh(O)     -2.200509     1.323634     0.710260
Gh(H)     -1.503891     0.683674     0.540733
Gh(H)     -2.315484     1.737995    -0.119068
Gh(O)     -1.967079    -2.020860    -0.122763
Gh(H)     -1.318963    -1.305195     0.136157
Gh(H)     -1.696741    -2.218317    -1.007498
Gh(O)      0.991465    -1.547512     2.500463
Gh(H)      0.667023    -1.154030     1.676389
Gh(H)      0.516695    -1.090567     3.200283
Gh(O)      2.410120     0.780079    -1.095237
Gh(H)      3.060268     0.046287    -0.902074
Gh(H)      1.654642     0.711894    -0.477528
Gh(O)      1.437300    -2.134809    -0.746584
Gh(H)      1.223810    -2.927188    -0.210324
Gh(H)      0.772852    -1.490569    -0.481987
O         -0.357139     2.126165    -1.924590
H         -0.018848     1.313137    -1.513999
H          0.141845     2.856791    -1.535479

units ang
no_reorient
no_com
symmetry c1
}

set {
basis        aug-cc-pVTZ
scf_type     df
}

energy("mp2")
--------------------------------------------------------------------------

  Memory set to  55.879 GiB by Python driver.

Scratch directory: /ddmfs1a/scratch/
   => Libint2 <=

    Primary   basis highest AM E, G, H:  5, 4, 3
    Auxiliary basis highest AM E, G, H:  6, 5, 4
    Onebody   basis highest AM E, G, H:  6, 5, 4
    Solid Harmonics ordering:            gaussian

*** tstart() called on ddmfs1
*** at Mon Jan 22 16:50:14 2024

   => Loading Basis Set <=

    Name: AUG-CC-PVTZ
    Role: ORBITAL
    Keyword: BASIS
    atoms 1                                   entry F          line   377 file /ddmfs1b/softs/psi4conda/share/psi4/basis/aug-cc-pvtz.gbs 
    atoms 2, 5, 8, 11, 14, 17                 entry O          line   331 file /ddmfs1b/softs/psi4conda/share/psi4/basis/aug-cc-pvtz.gbs 
    atoms 3-4, 6-7, 9-10, 12-13, 15-16, 18-19 entry H          line    40 file /ddmfs1b/softs/psi4conda/share/psi4/basis/aug-cc-pvtz.gbs 


         ---------------------------------------------------------
                                   SCF
               by Justin Turney, Rob Parrish, Andy Simmonett
                          and Daniel G. A. Smith
                              RHF Reference
                       20 Threads,  57220 MiB Core
         ---------------------------------------------------------

  ==> Geometry <==

    Molecular point group: c1
    Full point group: C1

    Geometry (in Angstrom), charge = 0, multiplicity = 1:

       Center              X                  Y                   Z               Mass       
    ------------   -----------------  -----------------  -----------------  -----------------
      Gh(F)           0.000000000000     0.000000000000     0.000000000000    18.998403162730
      Gh(O)          -2.200509000000     1.323634000000     0.710260000000    15.994914619570
      Gh(H)          -1.503891000000     0.683674000000     0.540733000000     1.007825032230
      Gh(H)          -2.315484000000     1.737995000000    -0.119068000000     1.007825032230
      Gh(O)          -1.967079000000    -2.020860000000    -0.122763000000    15.994914619570
      Gh(H)          -1.318963000000    -1.305195000000     0.136157000000     1.007825032230
      Gh(H)          -1.696741000000    -2.218317000000    -1.007498000000     1.007825032230
      Gh(O)           0.991465000000    -1.547512000000     2.500463000000    15.994914619570
      Gh(H)           0.667023000000    -1.154030000000     1.676389000000     1.007825032230
      Gh(H)           0.516695000000    -1.090567000000     3.200283000000     1.007825032230
      Gh(O)           2.410120000000     0.780079000000    -1.095237000000    15.994914619570
      Gh(H)           3.060268000000     0.046287000000    -0.902074000000     1.007825032230
      Gh(H)           1.654642000000     0.711894000000    -0.477528000000     1.007825032230
      Gh(O)           1.437300000000    -2.134809000000    -0.746584000000    15.994914619570
      Gh(H)           1.223810000000    -2.927188000000    -0.210324000000     1.007825032230
      Gh(H)           0.772852000000    -1.490569000000    -0.481987000000     1.007825032230
         O           -0.357139000000     2.126165000000    -1.924590000000    15.994914619570
         H           -0.018848000000     1.313137000000    -1.513999000000     1.007825032230
         H            0.141845000000     2.856791000000    -1.535479000000     1.007825032230

  Running in c1 symmetry.

  Rotational constants: A =      0.03699  B =      0.03187  C =      0.02374 [cm^-1]
  Rotational constants: A =   1109.03452  B =    955.51357  C =    711.81886 [MHz]
  Nuclear repulsion =    9.077970936817390

  Charge       = 0
  Multiplicity = 1
  Electrons    = 10
  Nalpha       = 5
  Nbeta        = 5

  ==> Algorithm <==

  SCF Algorithm Type is DF.
  DIIS enabled.
  MOM disabled.
  Fractional occupation disabled.
  Guess Type is SAD.
  Energy threshold   = 1.00e-08
  Density threshold  = 1.00e-08
  Integral threshold = 1.00e-12

  ==> Primary Basis <==

  Basis Set: AUG-CC-PVTZ
    Blend: AUG-CC-PVTZ
    Number of shells: 206
    Number of basis functions: 598
    Number of Cartesian functions: 685
    Spherical Harmonics?: true
    Max angular momentum: 3

   => Loading Basis Set <=

    Name: (AUG-CC-PVTZ AUX)
    Role: JKFIT
    Keyword: DF_BASIS_SCF
    atoms 1                                   entry F          line   348 file /ddmfs1b/softs/psi4conda/share/psi4/basis/aug-cc-pvtz-jkfit.gbs 
    atoms 2, 5, 8, 11, 14, 17                 entry O          line   286 file /ddmfs1b/softs/psi4conda/share/psi4/basis/aug-cc-pvtz-jkfit.gbs 
    atoms 3-4, 6-7, 9-10, 12-13, 15-16, 18-19 entry H          line    70 file /ddmfs1b/softs/psi4conda/share/psi4/basis/aug-cc-pvtz-jkfit.gbs 

  ==> Integral Setup <==

  DFHelper Memory: AOs need 3.192 GiB; user supplied 41.910 GiB. 
  Using in-core AOs.

  ==> MemDFJK: Density-Fitted J/K Matrices <==

    J tasked:                   Yes
    K tasked:                   Yes
    wK tasked:                   No
    OpenMP threads:              20
    Memory [MiB]:             42915
    Algorithm:                 Core
    Schwarz Cutoff:           1E-12
    Mask sparsity (%):      10.4395
    Fitting Condition:        1E-10

   => Auxiliary Basis Set <=

  Basis Set: (AUG-CC-PVTZ AUX)
    Blend: AUG-CC-PVTZ-JKFIT
    Number of shells: 378
    Number of basis functions: 1280
    Number of Cartesian functions: 1577
    Spherical Harmonics?: true
    Max angular momentum: 4

  Minimum eigenvalue in the overlap matrix is 4.6948285447E-05.
  Reciprocal condition number of the overlap matrix is 2.9323279821E-06.
    Using symmetric orthogonalization.

  ==> Pre-Iterations <==

  SCF Guess: Superposition of Atomic Densities via on-the-fly atomic UHF (no occupation information).

   -------------------------
    Irrep   Nso     Nmo    
   -------------------------
     A        598     598 
   -------------------------
    Total     598     598
   -------------------------

  ==> Iterations <==

                           Total Energy        Delta E     RMS |[F,P]|

   @DF-RHF iter SAD:   -75.46244348227765   -7.54624e+01   0.00000e+00 
   @DF-RHF iter   1:   -75.97511532590153   -5.12672e-01   7.81994e-04 ADIIS/DIIS
   @DF-RHF iter   2:   -76.02723249927161   -5.21172e-02   5.37745e-04 ADIIS/DIIS
   @DF-RHF iter   3:   -76.05923217112819   -3.19997e-02   3.66265e-05 DIIS
   @DF-RHF iter   4:   -76.05963715436695   -4.04983e-04   8.95723e-06 DIIS
   @DF-RHF iter   5:   -76.05966363977666   -2.64854e-05   2.04765e-06 DIIS
   @DF-RHF iter   6:   -76.05966584378176   -2.20401e-06   4.53760e-07 DIIS
   @DF-RHF iter   7:   -76.05966596295524   -1.19173e-07   8.33096e-08 DIIS
   @DF-RHF iter   8:   -76.05966596648096   -3.52573e-09   1.40846e-08 DIIS
   @DF-RHF iter   9:   -76.05966596656174   -8.07745e-11   3.56954e-09 DIIS
  Energy and wave function converged.


  ==> Post-Iterations <==

    Orbital Energies [Eh]
    ---------------------

    Doubly Occupied:                                                      

       1A    -20.568234     2A     -1.346113     3A     -0.714842  
       4A     -0.578864     5A     -0.508777  

    Virtual:                                                              

       6A      0.014631     7A      0.033423     8A      0.035193  
       9A      0.039476    10A      0.054874    11A      0.058909  
      12A      0.062081    13A      0.064663    14A      0.068262  
      15A      0.070556    16A      0.086740    17A      0.089772  
      18A      0.120103    19A      0.127113    20A      0.127660  
      21A      0.132991    22A      0.138829    23A      0.141884  
      24A      0.154706    25A      0.159264    26A      0.163622  
      27A      0.165088    28A      0.169994    29A      0.179303  
      30A      0.184566    31A      0.191276    32A      0.194842  
      33A      0.199538    34A      0.207763    35A      0.212438  
      36A      0.216445    37A      0.218009    38A      0.227287  
      39A      0.231484    40A      0.243423    41A      0.248064  
      42A      0.250868    43A      0.272124    44A      0.277185  
      45A      0.285847    46A      0.289970    47A      0.303001  
      48A      0.306902    49A      0.315156    50A      0.325294  
      51A      0.329779    52A      0.335341    53A      0.339890  
      54A      0.344764    55A      0.354041    56A      0.358863  
      57A      0.366009    58A      0.367277    59A      0.373152  
      60A      0.380564    61A      0.390541    62A      0.392299  
      63A      0.397846    64A      0.403385    65A      0.405903  
      66A      0.411729    67A      0.417249    68A      0.424099  
      69A      0.430468    70A      0.440137    71A      0.442078  
      72A      0.453693    73A      0.457056    74A      0.466880  
      75A      0.470826    76A      0.475724    77A      0.486729  
      78A      0.489486    79A      0.498796    80A      0.514242  
      81A      0.521971    82A      0.534948    83A      0.546088  
      84A      0.548233    85A      0.552037    86A      0.567183  
      87A      0.573002    88A      0.578280    89A      0.594705  
      90A      0.617862    91A      0.620532    92A      0.648829  
      93A      0.656483    94A      0.680101    95A      0.692697  
      96A      0.708099    97A      0.708997    98A      0.716617  
      99A      0.722486   100A      0.729708   101A      0.742247  
     102A      0.746439   103A      0.754427   104A      0.762887  
     105A      0.773126   106A      0.779272   107A      0.790115  
     108A      0.793802   109A      0.804650   110A      0.814648  
     111A      0.818826   112A      0.822223   113A      0.824982  
     114A      0.835150   115A      0.840642   116A      0.849013  
     117A      0.856859   118A      0.858468   119A      0.868714  
     120A      0.870077   121A      0.874323   122A      0.881290  
     123A      0.886946   124A      0.891665   125A      0.899864  
     126A      0.905105   127A      0.910032   128A      0.918794  
     129A      0.919259   130A      0.928209   131A      0.933621  
     132A      0.937129   133A      0.947239   134A      0.954731  
     135A      0.961115   136A      0.964739   137A      0.971233  
     138A      0.976610   139A      0.983779   140A      0.989840  
     141A      0.997626   142A      1.004810   143A      1.007355  
     144A      1.019712   145A      1.026839   146A      1.030076  
     147A      1.036321   148A      1.041950   149A      1.047803  
     150A      1.058074   151A      1.059609   152A      1.066937  
     153A      1.075926   154A      1.080561   155A      1.089607  
     156A      1.096573   157A      1.102613   158A      1.109679  
     159A      1.116457   160A      1.130955   161A      1.132677  
     162A      1.145732   163A      1.147679   164A      1.152433  
     165A      1.167774   166A      1.173812   167A      1.176610  
     168A      1.188905   169A      1.195896   170A      1.204623  
     171A      1.214716   172A      1.220755   173A      1.232884  
     174A      1.240398   175A      1.259961   176A      1.262487  
     177A      1.268327   178A      1.273464   179A      1.287320  
     180A      1.298311   181A      1.306905   182A      1.322912  
     183A      1.325223   184A      1.345788   185A      1.354466  
     186A      1.360617   187A      1.365092   188A      1.380291  
     189A      1.391353   190A      1.409207   191A      1.412627  
     192A      1.426592   193A      1.427307   194A      1.452019  
     195A      1.458419   196A      1.470497   197A      1.479740  
     198A      1.488984   199A      1.497253   200A      1.518835  
     201A      1.522925   202A      1.538779   203A      1.542930  
     204A      1.559917   205A      1.565723   206A      1.575740  
     207A      1.584539   208A      1.601445   209A      1.607546  
     210A      1.630710   211A      1.635310   212A      1.651774  
     213A      1.665421   214A      1.673683   215A      1.683431  
     216A      1.694786   217A      1.727281   218A      1.732633  
     219A      1.735039   220A      1.758105   221A      1.772805  
     222A      1.780654   223A      1.786687   224A      1.804054  
     225A      1.810273   226A      1.822585   227A      1.827409  
     228A      1.831589   229A      1.835891   230A      1.850455  
     231A      1.852889   232A      1.864568   233A      1.871152  
     234A      1.891683   235A      1.894956   236A      1.905752  
     237A      1.915585   238A      1.926208   239A      1.932578  
     240A      1.934951   241A      1.950540   242A      1.965664  
     243A      1.982649   244A      1.999316   245A      2.008441  
     246A      2.009223   247A      2.021652   248A      2.036312  
     249A      2.051554   250A      2.060996   251A      2.085928  
     252A      2.098648   253A      2.103086   254A      2.115579  
     255A      2.131384   256A      2.184839   257A      2.209441  
     258A      2.225371   259A      2.243579   260A      2.273394  
     261A      2.329035   262A      2.338777   263A      2.366280  
     264A      2.416297   265A      2.434220   266A      2.471827  
     267A      2.485256   268A      2.491167   269A      2.495526  
     270A      2.504110   271A      2.518719   272A      2.531107  
     273A      2.551612   274A      2.558024   275A      2.563772  
     276A      2.575549   277A      2.583068   278A      2.591195  
     279A      2.609567   280A      2.621122   281A      2.637015  
     282A      2.649519   283A      2.652970   284A      2.661246  
     285A      2.680870   286A      2.689757   287A      2.698219  
     288A      2.702671   289A      2.709884   290A      2.717036  
     291A      2.724323   292A      2.745366   293A      2.761312  
     294A      2.774100   295A      2.778606   296A      2.790868  
     297A      2.806130   298A      2.811359   299A      2.818292  
     300A      2.841911   301A      2.852135   302A      2.862351  
     303A      2.869832   304A      2.882328   305A      2.898259  
     306A      2.903587   307A      2.912363   308A      2.946044  
     309A      2.950684   310A      2.955839   311A      2.976781  
     312A      2.979942   313A      3.004120   314A      3.020872  
     315A      3.027473   316A      3.053439   317A      3.061202  
     318A      3.084484   319A      3.109082   320A      3.121947  
     321A      3.165291   322A      3.207734   323A      3.220750  
     324A      3.229123   325A      3.239992   326A      3.249673  
     327A      3.258901   328A      3.284972   329A      3.294850  
     330A      3.295839   331A      3.315282   332A      3.327866  
     333A      3.336560   334A      3.356425   335A      3.359484  
     336A      3.375548   337A      3.409991   338A      3.425762  
     339A      3.455381   340A      3.456850   341A      3.496035  
     342A      3.517110   343A      3.546689   344A      3.567246  
     345A      3.579269   346A      3.599053   347A      3.647084  
     348A      3.654299   349A      3.675867   350A      3.686225  
     351A      3.695900   352A      3.725393   353A      3.741414  
     354A      3.766578   355A      3.786514   356A      3.798468  
     357A      3.806186   358A      3.827102   359A      3.840990  
     360A      3.878978   361A      3.884156   362A      3.910568  
     363A      3.956267   364A      3.967013   365A      4.092548  
     366A      4.116113   367A      4.134687   368A      4.172270  
     369A      4.189387   370A      4.216695   371A      4.270006  
     372A      4.285591   373A      4.318011   374A      4.360068  
     375A      4.366795   376A      4.417584   377A      4.422813  
     378A      4.443623   379A      4.453997   380A      4.473081  
     381A      4.484652   382A      4.496300   383A      4.499947  
     384A      4.507796   385A      4.516246   386A      4.528239  
     387A      4.556159   388A      4.558960   389A      4.569701  
     390A      4.591142   391A      4.600080   392A      4.620756  
     393A      4.628405   394A      4.634537   395A      4.659241  
     396A      4.668848   397A      4.682227   398A      4.687667  
     399A      4.715210   400A      4.717095   401A      4.745570  
     402A      4.753006   403A      4.767567   404A      4.786609  
     405A      4.807507   406A      4.833702   407A      4.859220  
     408A      4.868729   409A      4.899577   410A      4.919373  
     411A      4.935742   412A      4.948638   413A      4.953639  
     414A      4.975041   415A      4.984854   416A      4.991452  
     417A      4.995954   418A      5.020750   419A      5.034525  
     420A      5.056562   421A      5.063923   422A      5.082286  
     423A      5.110773   424A      5.138331   425A      5.142937  
     426A      5.174444   427A      5.205444   428A      5.229039  
     429A      5.243409   430A      5.253534   431A      5.279519  
     432A      5.322689   433A      5.333104   434A      5.382352  
     435A      5.402896   436A      5.418285   437A      5.433195  
     438A      5.440768   439A      5.475680   440A      5.528227  
     441A      5.563585   442A      5.581662   443A      5.604201  
     444A      5.616585   445A      5.632934   446A      5.649615  
     447A      5.665772   448A      5.667756   449A      5.674509  
     450A      5.694262   451A      5.721864   452A      5.764831  
     453A      5.766800   454A      5.787990   455A      5.820654  
     456A      5.851105   457A      5.898514   458A      5.959417  
     459A      6.004384   460A      6.012991   461A      6.066724  
     462A      6.182718   463A      6.266554   464A      6.280999  
     465A      6.288362   466A      6.352305   467A      6.395634  
     468A      6.403056   469A      6.469616   470A      6.537880  
     471A      6.563820   472A      6.606091   473A      6.611311  
     474A      6.675411   475A      6.734815   476A      6.744606  
     477A      6.765608   478A      6.858566   479A      6.885369  
     480A      6.958293   481A      7.013362   482A      7.111597  
     483A      7.113656   484A      7.153667   485A      7.240430  
     486A      7.246399   487A      7.324856   488A      7.376974  
     489A      7.400040   490A      7.465921   491A      7.540941  
     492A      7.738969   493A      7.761445   494A      7.776161  
     495A      7.800848   496A      7.834510   497A      7.848120  
     498A      7.869694   499A      7.898770   500A      7.920760  
     501A      7.937666   502A      7.957400   503A      7.992356  
     504A      8.050696   505A      8.074040   506A      8.130093  
     507A      8.161637   508A      8.178071   509A      8.219995  
     510A      8.235007   511A      8.257117   512A      8.260180  
     513A      8.274343   514A      8.295394   515A      8.311252  
     516A      8.340935   517A      8.351731   518A      8.354453  
     519A      8.434079   520A      8.705446   521A      8.797364  
     522A      8.810267   523A      8.813022   524A      8.845508  
     525A      8.886175   526A      8.948113   527A      8.963315  
     528A      9.081173   529A      9.100016   530A      9.184898  
     531A      9.727200   532A      9.762266   533A      9.766446  
     534A      9.846690   535A      9.859965   536A      9.892985  
     537A      9.909383   538A      9.959378   539A      9.972872  
     540A     10.009545   541A     10.098090   542A     10.107515  
     543A     10.144143   544A     10.179591   545A     10.207543  
     546A     10.267775   547A     10.342556   548A     10.380899  
     549A     10.413596   550A     10.424789   551A     10.501412  
     552A     10.520981   553A     10.570727   554A     10.628712  
     555A     10.700488   556A     10.790257   557A     10.940466  
     558A     11.059005   559A     11.215370   560A     11.235180  
     561A     11.307720   562A     11.408545   563A     11.735936  
     564A     11.761637   565A     11.888780   566A     11.912022  
     567A     11.980839   568A     12.011664   569A     12.104166  
     570A     12.215089   571A     12.332370   572A     12.491382  
     573A     12.790487   574A     13.349174   575A     13.369714  
     576A     13.377556   577A     13.497710   578A     13.599430  
     579A     13.614113   580A     13.728728   581A     13.780453  
     582A     13.806811   583A     13.870614   584A     13.983182  
     585A     14.016442   586A     14.035359   587A     14.089623  
     588A     14.154733   589A     15.046069   590A     15.546375  
     591A     15.595183   592A     16.547106   593A     64.944500  
     594A     66.659710   595A     67.092152   596A     67.353595  
     597A     68.755050   598A     75.844142  

    Final Occupation by Irrep:
              A 
    DOCC [     5 ]
    NA   [     5 ]
    NB   [     5 ]

  @DF-RHF Final Energy:   -76.05966596656174

   => Energetics <=

    Nuclear Repulsion Energy =              9.0779709368173904
    One-Electron Energy =                -122.8416107076187416
    Two-Electron Energy =                  37.7039738042396237
    Total Energy =                        -76.0596659665617238

Computation Completed


Properties will be evaluated at   0.000000,   0.000000,   0.000000 [a0]

Properties computed using the SCF density matrix


 Multipole Moments:

 ------------------------------------------------------------------------------------
     Multipole            Electronic (a.u.)      Nuclear  (a.u.)        Total (a.u.)
 ------------------------------------------------------------------------------------

 L = 1.  Multiply by 2.5417464519 to convert [e a0] to [Debye]
 Dipole X            :          5.7228744           -5.1667285            0.5561459
 Dipole Y            :        -40.0772131           40.0229783           -0.0542348
 Dipole Z            :         35.3889422          -34.8582623            0.5306799
 Magnitude           :                                                    0.7706236

 ------------------------------------------------------------------------------------

*** tstop() called on ddmfs1 at Mon Jan 22 16:50:22 2024
Module time:
	user time   =     126.71 seconds =       2.11 minutes
	system time =       5.66 seconds =       0.09 minutes
	total time  =          8 seconds =       0.13 minutes
Total time:
	user time   =     126.71 seconds =       2.11 minutes
	system time =       5.66 seconds =       0.09 minutes
	total time  =          8 seconds =       0.13 minutes

*** tstart() called on ddmfs1
*** at Mon Jan 22 16:50:22 2024


  //>>>>>>>>>>>>>>>>>>>>>>>>>>>>>>>>>>>//
  //               DFMP2               //
  //<<<<<<<<<<<<<<<<<<<<<<<<<<<<<<<<<<<//

   => Loading Basis Set <=

    Name: (AUG-CC-PVTZ AUX)
    Role: RIFIT
    Keyword: DF_BASIS_MP2
    atoms 1                                   entry F          line   322 file /ddmfs1b/softs/psi4conda/share/psi4/basis/aug-cc-pvtz-ri.gbs 
    atoms 2, 5, 8, 11, 14, 17                 entry O          line   264 file /ddmfs1b/softs/psi4conda/share/psi4/basis/aug-cc-pvtz-ri.gbs 
    atoms 3-4, 6-7, 9-10, 12-13, 15-16, 18-19 entry H          line    30 file /ddmfs1b/softs/psi4conda/share/psi4/basis/aug-cc-pvtz-ri.gbs 

	 --------------------------------------------------------
	                          DF-MP2                         
	      2nd-Order Density-Fitted Moller-Plesset Theory     
	              RMP2 Wavefunction,  20 Threads             
	                                                         
	        Rob Parrish, Justin Turney, Andy Simmonett,      
	           Ed Hohenstein, and C. David Sherrill          
	 --------------------------------------------------------

   => Auxiliary Basis Set <=

  Basis Set: (AUG-CC-PVTZ AUX)
    Blend: AUG-CC-PVTZ-RI
    Number of shells: 364
    Number of basis functions: 1294
    Number of Cartesian functions: 1612
    Spherical Harmonics?: true
    Max angular momentum: 4

	 --------------------------------------------------------
	                 NBF =   598, NAUX =  1294
	 --------------------------------------------------------
	   CLASS    FOCC     OCC    AOCC    AVIR     VIR    FVIR
	   PAIRS       0       5       5     593     593       0
	 --------------------------------------------------------

	-----------------------------------------------------------
	 ==================> DF-MP2 Energies <==================== 
	-----------------------------------------------------------
	 Reference Energy          =     -76.0596659665617381 [Eh]
	 Singles Energy            =      -0.0000000000000000 [Eh]
	 Same-Spin Energy          =      -0.0685933742095172 [Eh]
	 Opposite-Spin Energy      =      -0.2166260533262372 [Eh]
	 Correlation Energy        =      -0.2852194275357544 [Eh]
	 Total Energy              =     -76.3448853940974885 [Eh]
	-----------------------------------------------------------
	 ================> DF-SCS-MP2 Energies <================== 
	-----------------------------------------------------------
	 SCS Same-Spin Scale       =       0.3333333333333333 [-]
	 SCS Opposite-Spin Scale   =       1.2000000000000000 [-]
	 SCS Same-Spin Energy      =      -0.0228644580698391 [Eh]
	 SCS Opposite-Spin Energy  =      -0.2599512639914847 [Eh]
	 SCS Correlation Energy    =      -0.2828157220613237 [Eh]
	 SCS Total Energy          =     -76.3424816886230673 [Eh]
	-----------------------------------------------------------


*** tstop() called on ddmfs1 at Mon Jan 22 16:50:27 2024
Module time:
	user time   =      32.48 seconds =       0.54 minutes
	system time =       1.73 seconds =       0.03 minutes
	total time  =          5 seconds =       0.08 minutes
Total time:
	user time   =     159.21 seconds =       2.65 minutes
	system time =       7.39 seconds =       0.12 minutes
	total time  =         13 seconds =       0.22 minutes

    Psi4 stopped on: Monday, 22 January 2024 04:50PM
    Psi4 wall time for execution: 0:00:13.26

*** Psi4 exiting successfully. Buy a developer a beer!
