
    -----------------------------------------------------------------------
          Psi4: An Open-Source Ab Initio Electronic Structure Package
                               Psi4 1.8.2 release

                         Git: Rev {} zzzzzzz 


    D. G. A. Smith, L. A. Burns, A. C. Simmonett, R. M. Parrish,
    M. C. Schieber, R. Galvelis, P. Kraus, H. Kruse, R. Di Remigio,
    A. Alenaizan, A. M. James, S. Lehtola, J. P. Misiewicz, M. Scheurer,
    R. A. Shaw, J. B. Schriber, Y. Xie, Z. L. Glick, D. A. Sirianni,
    J. S. O'Brien, J. M. Waldrop, A. Kumar, E. G. Hohenstein,
    B. P. Pritchard, B. R. Brooks, H. F. Schaefer III, A. Yu. Sokolov,
    K. Patkowski, A. E. DePrince III, U. Bozkaya, R. A. King,
    F. A. Evangelista, J. M. Turney, T. D. Crawford, C. D. Sherrill,
    J. Chem. Phys. 152(18) 184108 (2020). https://doi.org/10.1063/5.0006002

                            Additional Code Authors
    E. T. Seidl, C. L. Janssen, E. F. Valeev, M. L. Leininger,
    J. F. Gonthier, R. M. Richard, H. R. McAlexander, M. Saitow, X. Wang,
    P. Verma, M. H. Lechner, A. Jiang, S. Behnle, A. G. Heide,
    M. F. Herbst, and D. L. Poole

             Previous Authors, Complete List of Code Contributors,
                       and Citations for Specific Modules
    https://github.com/psi4/psi4/blob/master/codemeta.json
    https://github.com/psi4/psi4/graphs/contributors
    http://psicode.org/psi4manual/master/introduction.html#citing-psifour

    -----------------------------------------------------------------------


    Psi4 started on: Monday, 22 January 2024 04:59PM

    Process ID: 81231
    Host:       ddmfs1
    PSIDATADIR: /ddmfs1b/softs/psi4conda/share/psi4
    Memory:     500.0 MiB
    Threads:    20
    
  ==> Input File <==

--------------------------------------------------------------------------
MEMORY 60 GB

molecule dimer {
-1 1
F          0.000000     0.000000     0.000000
O         -0.331381     0.249282     2.779760
H         -0.320730    -0.003331     1.859362
H          0.462546    -0.102102     3.256506
O         -2.816888     0.081699     0.065921
H         -1.864288    -0.047694     0.059424
H         -3.167471    -0.299167     0.838096
O          0.698056    -1.115714    -2.643289
H          0.021217    -0.824182    -3.293089
H          0.590159    -0.734498    -1.765903
O         -1.216980     2.387973    -1.254426
H         -0.806494     1.629908    -0.785597
H         -0.745204     3.218407    -0.927778
O          1.187241    -2.160570     1.374618
H          1.300436    -2.883562     0.707615
H          0.669894    -1.398415     0.902330

units ang
no_reorient
no_com
symmetry c1
}

set {
basis        aug-cc-pVTZ
scf_type     df
}

energy("mp2")
--------------------------------------------------------------------------

  Memory set to  55.879 GiB by Python driver.

Scratch directory: /ddmfs1a/scratch/
   => Libint2 <=

    Primary   basis highest AM E, G, H:  5, 4, 3
    Auxiliary basis highest AM E, G, H:  6, 5, 4
    Onebody   basis highest AM E, G, H:  6, 5, 4
    Solid Harmonics ordering:            gaussian

*** tstart() called on ddmfs1
*** at Mon Jan 22 16:59:18 2024

   => Loading Basis Set <=

    Name: AUG-CC-PVTZ
    Role: ORBITAL
    Keyword: BASIS
    atoms 1                            entry F          line   377 file /ddmfs1b/softs/psi4conda/share/psi4/basis/aug-cc-pvtz.gbs 
    atoms 2, 5, 8, 11, 14              entry O          line   331 file /ddmfs1b/softs/psi4conda/share/psi4/basis/aug-cc-pvtz.gbs 
    atoms 3-4, 6-7, 9-10, 12-13, 15-16 entry H          line    40 file /ddmfs1b/softs/psi4conda/share/psi4/basis/aug-cc-pvtz.gbs 


         ---------------------------------------------------------
                                   SCF
               by Justin Turney, Rob Parrish, Andy Simmonett
                          and Daniel G. A. Smith
                              RHF Reference
                       20 Threads,  57220 MiB Core
         ---------------------------------------------------------

  ==> Geometry <==

    Molecular point group: c1
    Full point group: C1

    Geometry (in Angstrom), charge = -1, multiplicity = 1:

       Center              X                  Y                   Z               Mass       
    ------------   -----------------  -----------------  -----------------  -----------------
         F            0.000000000000     0.000000000000     0.000000000000    18.998403162730
         O           -0.331381000000     0.249282000000     2.779760000000    15.994914619570
         H           -0.320730000000    -0.003331000000     1.859362000000     1.007825032230
         H            0.462546000000    -0.102102000000     3.256506000000     1.007825032230
         O           -2.816888000000     0.081699000000     0.065921000000    15.994914619570
         H           -1.864288000000    -0.047694000000     0.059424000000     1.007825032230
         H           -3.167471000000    -0.299167000000     0.838096000000     1.007825032230
         O            0.698056000000    -1.115714000000    -2.643289000000    15.994914619570
         H            0.021217000000    -0.824182000000    -3.293089000000     1.007825032230
         H            0.590159000000    -0.734498000000    -1.765903000000     1.007825032230
         O           -1.216980000000     2.387973000000    -1.254426000000    15.994914619570
         H           -0.806494000000     1.629908000000    -0.785597000000     1.007825032230
         H           -0.745204000000     3.218407000000    -0.927778000000     1.007825032230
         O            1.187241000000    -2.160570000000     1.374618000000    15.994914619570
         H            1.300436000000    -2.883562000000     0.707615000000     1.007825032230
         H            0.669894000000    -1.398415000000     0.902330000000     1.007825032230

  Running in c1 symmetry.

  Rotational constants: A =      0.04433  B =      0.03794  C =      0.02615 [cm^-1]
  Rotational constants: A =   1329.02370  B =   1137.32340  C =    783.98012 [MHz]
  Nuclear repulsion =  259.299773982025783

  Charge       = -1
  Multiplicity = 1
  Electrons    = 60
  Nalpha       = 30
  Nbeta        = 30

  ==> Algorithm <==

  SCF Algorithm Type is DF.
  DIIS enabled.
  MOM disabled.
  Fractional occupation disabled.
  Guess Type is SAD.
  Energy threshold   = 1.00e-08
  Density threshold  = 1.00e-08
  Integral threshold = 1.00e-12

  ==> Primary Basis <==

  Basis Set: AUG-CC-PVTZ
    Blend: AUG-CC-PVTZ
    Number of shells: 174
    Number of basis functions: 506
    Number of Cartesian functions: 580
    Spherical Harmonics?: true
    Max angular momentum: 3

   => Loading Basis Set <=

    Name: (AUG-CC-PVTZ AUX)
    Role: JKFIT
    Keyword: DF_BASIS_SCF
    atoms 1                            entry F          line   348 file /ddmfs1b/softs/psi4conda/share/psi4/basis/aug-cc-pvtz-jkfit.gbs 
    atoms 2, 5, 8, 11, 14              entry O          line   286 file /ddmfs1b/softs/psi4conda/share/psi4/basis/aug-cc-pvtz-jkfit.gbs 
    atoms 3-4, 6-7, 9-10, 12-13, 15-16 entry H          line    70 file /ddmfs1b/softs/psi4conda/share/psi4/basis/aug-cc-pvtz-jkfit.gbs 

  ==> Integral Setup <==

  DFHelper Memory: AOs need 1.938 GiB; user supplied 41.910 GiB. 
  Using in-core AOs.

  ==> MemDFJK: Density-Fitted J/K Matrices <==

    J tasked:                   Yes
    K tasked:                   Yes
    wK tasked:                   No
    OpenMP threads:              20
    Memory [MiB]:             42915
    Algorithm:                 Core
    Schwarz Cutoff:           1E-12
    Mask sparsity (%):      11.0156
    Fitting Condition:        1E-10

   => Auxiliary Basis Set <=

  Basis Set: (AUG-CC-PVTZ AUX)
    Blend: AUG-CC-PVTZ-JKFIT
    Number of shells: 320
    Number of basis functions: 1084
    Number of Cartesian functions: 1336
    Spherical Harmonics?: true
    Max angular momentum: 4

  Minimum eigenvalue in the overlap matrix is 1.3537413632E-04.
  Reciprocal condition number of the overlap matrix is 1.0099061084E-05.
    Using symmetric orthogonalization.

  ==> Pre-Iterations <==

  SCF Guess: Superposition of Atomic Densities via on-the-fly atomic UHF (no occupation information).

   -------------------------
    Irrep   Nso     Nmo    
   -------------------------
     A        506     506 
   -------------------------
    Total     506     506
   -------------------------

  ==> Iterations <==

                           Total Energy        Delta E     RMS |[F,P]|

   @DF-RHF iter SAD:  -476.48977295408520   -4.76490e+02   0.00000e+00 
   @DF-RHF iter   1:  -479.39752217839197   -2.90775e+00   2.16418e-03 DIIS/ADIIS
   @DF-RHF iter   2:  -479.67925677459266   -2.81735e-01   1.47465e-03 DIIS/ADIIS
   @DF-RHF iter   3:  -479.84534547776815   -1.66089e-01   9.57844e-05 DIIS
   @DF-RHF iter   4:  -479.84736183540281   -2.01636e-03   2.51762e-05 DIIS
   @DF-RHF iter   5:  -479.84748173337510   -1.19898e-04   1.02879e-05 DIIS
   @DF-RHF iter   6:  -479.84749851761774   -1.67842e-05   3.22549e-06 DIIS
   @DF-RHF iter   7:  -479.84750110326661   -2.58565e-06   7.77500e-07 DIIS
   @DF-RHF iter   8:  -479.84750131216629   -2.08900e-07   3.10286e-07 DIIS
   @DF-RHF iter   9:  -479.84750132510862   -1.29423e-08   8.17366e-08 DIIS
   @DF-RHF iter  10:  -479.84750132683951   -1.73088e-09   1.40295e-08 DIIS
   @DF-RHF iter  11:  -479.84750132689533   -5.58202e-11   5.67963e-09 DIIS
  Energy and wave function converged.


  ==> Post-Iterations <==

    Orbital Energies [Eh]
    ---------------------

    Doubly Occupied:                                                      

       1A    -25.995941     2A    -20.411060     3A    -20.410148  
       4A    -20.407897     5A    -20.401236     6A    -20.391512  
       7A     -1.259787     8A     -1.189300     9A     -1.186360  
      10A     -1.179713    11A     -1.171201    12A     -1.167313  
      13A     -0.575819    14A     -0.571455    15A     -0.564696  
      16A     -0.541939    17A     -0.536786    18A     -0.426964  
      19A     -0.420613    20A     -0.418943    21A     -0.414132  
      22A     -0.411641    23A     -0.359605    24A     -0.355386  
      25A     -0.354140    26A     -0.347477    27A     -0.345988  
      28A     -0.343596    29A     -0.340243    30A     -0.336690  

    Virtual:                                                              

      31A      0.122360    32A      0.127921    33A      0.132178  
      34A      0.136504    35A      0.141151    36A      0.175337  
      37A      0.183455    38A      0.193929    39A      0.199561  
      40A      0.201795    41A      0.256676    42A      0.264479  
      43A      0.267392    44A      0.271785    45A      0.275432  
      46A      0.278618    47A      0.284324    48A      0.287026  
      49A      0.292123    50A      0.304605    51A      0.314354  
      52A      0.316924    53A      0.323553    54A      0.334832  
      55A      0.343442    56A      0.349900    57A      0.365483  
      58A      0.371087    59A      0.374578    60A      0.380747  
      61A      0.390560    62A      0.396693    63A      0.400634  
      64A      0.415991    65A      0.422271    66A      0.427870  
      67A      0.435119    68A      0.442605    69A      0.449754  
      70A      0.453986    71A      0.471789    72A      0.474068  
      73A      0.479417    74A      0.488347    75A      0.499067  
      76A      0.507468    77A      0.518393    78A      0.519639  
      79A      0.523176    80A      0.540581    81A      0.547551  
      82A      0.552467    83A      0.560827    84A      0.570133  
      85A      0.576283    86A      0.579180    87A      0.592490  
      88A      0.606547    89A      0.617092    90A      0.622518  
      91A      0.629220    92A      0.631663    93A      0.657117  
      94A      0.658820    95A      0.695898    96A      0.704405  
      97A      0.712519    98A      0.716006    99A      0.723977  
     100A      0.729672   101A      0.746614   102A      0.764887  
     103A      0.777592   104A      0.805230   105A      0.823807  
     106A      0.835126   107A      0.843601   108A      0.852900  
     109A      0.859597   110A      0.863306   111A      0.866377  
     112A      0.868269   113A      0.877598   114A      0.884273  
     115A      0.893498   116A      0.894942   117A      0.903483  
     118A      0.911278   119A      0.917203   120A      0.918520  
     121A      0.934677   122A      0.944452   123A      0.946601  
     124A      0.957252   125A      0.969355   126A      0.978701  
     127A      0.981111   128A      0.994046   129A      1.003674  
     130A      1.021659   131A      1.026289   132A      1.031972  
     133A      1.037671   134A      1.040164   135A      1.049281  
     136A      1.056107   137A      1.068346   138A      1.071453  
     139A      1.079122   140A      1.086717   141A      1.092023  
     142A      1.102981   143A      1.106253   144A      1.112947  
     145A      1.117051   146A      1.122130   147A      1.138694  
     148A      1.139906   149A      1.148565   150A      1.154201  
     151A      1.159266   152A      1.176155   153A      1.183810  
     154A      1.186482   155A      1.192389   156A      1.196775  
     157A      1.204150   158A      1.210333   159A      1.215810  
     160A      1.224300   161A      1.231761   162A      1.250402  
     163A      1.253382   164A      1.266622   165A      1.270616  
     166A      1.292344   167A      1.305063   168A      1.306457  
     169A      1.319147   170A      1.331983   171A      1.337790  
     172A      1.352972   173A      1.362345   174A      1.367235  
     175A      1.381596   176A      1.383718   177A      1.392304  
     178A      1.406249   179A      1.424585   180A      1.427774  
     181A      1.443622   182A      1.458664   183A      1.461843  
     184A      1.471752   185A      1.480225   186A      1.486489  
     187A      1.505713   188A      1.508399   189A      1.532892  
     190A      1.539401   191A      1.551135   192A      1.557719  
     193A      1.564722   194A      1.581987   195A      1.604084  
     196A      1.609758   197A      1.623314   198A      1.639141  
     199A      1.646752   200A      1.660201   201A      1.663833  
     202A      1.705654   203A      1.708853   204A      1.721289  
     205A      1.735381   206A      1.751653   207A      1.757881  
     208A      1.775819   209A      1.790534   210A      1.795410  
     211A      1.812458   212A      1.817854   213A      1.835678  
     214A      1.851466   215A      1.865628   216A      1.868268  
     217A      1.899642   218A      1.902780   219A      1.920703  
     220A      1.926397   221A      1.955772   222A      1.968078  
     223A      1.981739   224A      2.000783   225A      2.006948  
     226A      2.024696   227A      2.040435   228A      2.070404  
     229A      2.095254   230A      2.121104   231A      2.141930  
     232A      2.150462   233A      2.167513   234A      2.176185  
     235A      2.178218   236A      2.239961   237A      2.252035  
     238A      2.272836   239A      2.326573   240A      2.366406  
     241A      2.436522   242A      2.456558   243A      2.457364  
     244A      2.465692   245A      2.482872   246A      2.489494  
     247A      2.499423   248A      2.518207   249A      2.539407  
     250A      2.543690   251A      2.565988   252A      2.576419  
     253A      2.584336   254A      2.589811   255A      2.601131  
     256A      2.610464   257A      2.618674   258A      2.624666  
     259A      2.631917   260A      2.637546   261A      2.643330  
     262A      2.652180   263A      2.663011   264A      2.671988  
     265A      2.680223   266A      2.691608   267A      2.705839  
     268A      2.721469   269A      2.740159   270A      2.759698  
     271A      2.763358   272A      2.787643   273A      2.793191  
     274A      2.825522   275A      2.840500   276A      2.846760  
     277A      2.859948   278A      2.867967   279A      2.896302  
     280A      2.897075   281A      2.918290   282A      2.922129  
     283A      2.941305   284A      2.941516   285A      2.961157  
     286A      2.974127   287A      2.988864   288A      2.994064  
     289A      3.000882   290A      3.016465   291A      3.039433  
     292A      3.058083   293A      3.076376   294A      3.090445  
     295A      3.101805   296A      3.119240   297A      3.126280  
     298A      3.132291   299A      3.174204   300A      3.184772  
     301A      3.207084   302A      3.224197   303A      3.237548  
     304A      3.268183   305A      3.301269   306A      3.326053  
     307A      3.364430   308A      3.418442   309A      3.475194  
     310A      3.559584   311A      3.634370   312A      3.656127  
     313A      3.687684   314A      3.705886   315A      3.747601  
     316A      3.798264   317A      3.823760   318A      3.849668  
     319A      3.864007   320A      3.882244   321A      3.928955  
     322A      3.944164   323A      3.966285   324A      4.039641  
     325A      4.117432   326A      4.175770   327A      4.183721  
     328A      4.192839   329A      4.207173   330A      4.224202  
     331A      4.241391   332A      4.280992   333A      4.302883  
     334A      4.315635   335A      4.335676   336A      4.353801  
     337A      4.373659   338A      4.391272   339A      4.408807  
     340A      4.417689   341A      4.423560   342A      4.430511  
     343A      4.436344   344A      4.457399   345A      4.487068  
     346A      4.491211   347A      4.500970   348A      4.510703  
     349A      4.520975   350A      4.538203   351A      4.553700  
     352A      4.558281   353A      4.563747   354A      4.577505  
     355A      4.582507   356A      4.594532   357A      4.599177  
     358A      4.606622   359A      4.617683   360A      4.632942  
     361A      4.645664   362A      4.651971   363A      4.674818  
     364A      4.679187   365A      4.690746   366A      4.693805  
     367A      4.724925   368A      4.754635   369A      4.772958  
     370A      4.787056   371A      4.806634   372A      4.833175  
     373A      4.857966   374A      4.868514   375A      4.890352  
     376A      4.895478   377A      4.908299   378A      4.955036  
     379A      5.000782   380A      5.061980   381A      5.076967  
     382A      5.084582   383A      5.110894   384A      5.197136  
     385A      5.235358   386A      5.246822   387A      5.270216  
     388A      5.275814   389A      5.294905   390A      5.318391  
     391A      5.330136   392A      5.335470   393A      5.344219  
     394A      5.416210   395A      5.418452   396A      5.478688  
     397A      5.488534   398A      5.515749   399A      5.527428  
     400A      5.544758   401A      5.560676   402A      5.578124  
     403A      5.585364   404A      5.599935   405A      5.622478  
     406A      5.644753   407A      5.660791   408A      5.716981  
     409A      5.723674   410A      5.779629   411A      5.881563  
     412A      5.885439   413A      5.994511   414A      6.030558  
     415A      6.057118   416A      6.212082   417A      6.250484  
     418A      6.331692   419A      6.369848   420A      6.407685  
     421A      6.445563   422A      6.612011   423A      6.732231  
     424A      6.748140   425A      6.758838   426A      6.763519  
     427A      6.777088   428A      6.802348   429A      6.914458  
     430A      6.961317   431A      6.973324   432A      6.986387  
     433A      7.007951   434A      7.036955   435A      7.042992  
     436A      7.074069   437A      7.089940   438A      7.138630  
     439A      7.264578   440A      7.274627   441A      7.333317  
     442A      7.348802   443A      7.383819   444A      7.396223  
     445A      7.400749   446A      7.413293   447A      7.428316  
     448A      7.452310   449A      7.457052   450A      7.462662  
     451A      7.464973   452A      7.477050   453A      7.490371  
     454A      7.529896   455A      7.536138   456A      7.547102  
     457A      7.557710   458A      7.578895   459A      7.584090  
     460A      7.592875   461A      7.631997   462A      7.639529  
     463A      7.663867   464A      7.687360   465A      7.702986  
     466A      7.719259   467A      7.737221   468A      7.756985  
     469A      7.861670   470A      7.903359   471A      7.932789  
     472A      7.988268   473A      8.032677   474A      8.040755  
     475A      8.049053   476A      8.061331   477A      8.106274  
     478A      8.168291   479A      8.195093   480A      8.199367  
     481A      8.232220   482A      8.308090   483A      8.332794  
     484A      8.751364   485A      8.805824   486A      8.858786  
     487A      8.893277   488A      9.068513   489A      9.302445  
     490A      9.407504   491A      9.486616   492A      9.534883  
     493A      9.615023   494A      9.727999   495A      9.940667  
     496A      9.954453   497A      9.972009   498A     10.019338  
     499A     10.161605   500A     10.317496   501A     14.314596  
     502A     15.972602   503A     16.286076   504A     16.915518  
     505A     17.017787   506A     17.825937  

    Final Occupation by Irrep:
              A 
    DOCC [    30 ]
    NA   [    30 ]
    NB   [    30 ]

  @DF-RHF Final Energy:  -479.84750132689533

   => Energetics <=

    Nuclear Repulsion Energy =            259.2997739820257834
    One-Electron Energy =               -1192.6193806669825790
    Two-Electron Energy =                 453.4721053580615262
    Total Energy =                       -479.8475013268953262

Computation Completed


Properties will be evaluated at   0.000000,   0.000000,   0.000000 [a0]

Properties computed using the SCF density matrix


 Multipole Moments:

 ------------------------------------------------------------------------------------
     Multipole            Electronic (a.u.)      Nuclear  (a.u.)        Total (a.u.)
 ------------------------------------------------------------------------------------

 L = 1.  Multiply by 2.5417464519 to convert [e a0] to [Debye]
 Dipole X            :         45.7162565          -44.7856607            0.9305958
 Dipole Y            :         11.1033447          -11.1555749           -0.0522302
 Dipole Z            :         -6.4543851            6.4848560            0.0304709
 Magnitude           :                                                    0.9325583

 ------------------------------------------------------------------------------------

*** tstop() called on ddmfs1 at Mon Jan 22 16:59:25 2024
Module time:
	user time   =     126.03 seconds =       2.10 minutes
	system time =       6.58 seconds =       0.11 minutes
	total time  =          7 seconds =       0.12 minutes
Total time:
	user time   =     126.03 seconds =       2.10 minutes
	system time =       6.58 seconds =       0.11 minutes
	total time  =          7 seconds =       0.12 minutes

*** tstart() called on ddmfs1
*** at Mon Jan 22 16:59:25 2024


  //>>>>>>>>>>>>>>>>>>>>>>>>>>>>>>>>>>>//
  //               DFMP2               //
  //<<<<<<<<<<<<<<<<<<<<<<<<<<<<<<<<<<<//

   => Loading Basis Set <=

    Name: (AUG-CC-PVTZ AUX)
    Role: RIFIT
    Keyword: DF_BASIS_MP2
    atoms 1                            entry F          line   322 file /ddmfs1b/softs/psi4conda/share/psi4/basis/aug-cc-pvtz-ri.gbs 
    atoms 2, 5, 8, 11, 14              entry O          line   264 file /ddmfs1b/softs/psi4conda/share/psi4/basis/aug-cc-pvtz-ri.gbs 
    atoms 3-4, 6-7, 9-10, 12-13, 15-16 entry H          line    30 file /ddmfs1b/softs/psi4conda/share/psi4/basis/aug-cc-pvtz-ri.gbs 

	 --------------------------------------------------------
	                          DF-MP2                         
	      2nd-Order Density-Fitted Moller-Plesset Theory     
	              RMP2 Wavefunction,  20 Threads             
	                                                         
	        Rob Parrish, Justin Turney, Andy Simmonett,      
	           Ed Hohenstein, and C. David Sherrill          
	 --------------------------------------------------------

   => Auxiliary Basis Set <=

  Basis Set: (AUG-CC-PVTZ AUX)
    Blend: AUG-CC-PVTZ-RI
    Number of shells: 308
    Number of basis functions: 1096
    Number of Cartesian functions: 1366
    Spherical Harmonics?: true
    Max angular momentum: 4

	 --------------------------------------------------------
	                 NBF =   506, NAUX =  1096
	 --------------------------------------------------------
	   CLASS    FOCC     OCC    AOCC    AVIR     VIR    FVIR
	   PAIRS       0      30      30     476     476       0
	 --------------------------------------------------------

	-----------------------------------------------------------
	 ==================> DF-MP2 Energies <==================== 
	-----------------------------------------------------------
	 Reference Energy          =    -479.8475013268953262 [Eh]
	 Singles Energy            =      -0.0000000000000000 [Eh]
	 Same-Spin Energy          =      -0.4330329390339307 [Eh]
	 Opposite-Spin Energy      =      -1.3172504321872816 [Eh]
	 Correlation Energy        =      -1.7502833712212122 [Eh]
	 Total Energy              =    -481.5977846981165271 [Eh]
	-----------------------------------------------------------
	 ================> DF-SCS-MP2 Energies <================== 
	-----------------------------------------------------------
	 SCS Same-Spin Scale       =       0.3333333333333333 [-]
	 SCS Opposite-Spin Scale   =       1.2000000000000000 [-]
	 SCS Same-Spin Energy      =      -0.1443443130113102 [Eh]
	 SCS Opposite-Spin Energy  =      -1.5807005186247378 [Eh]
	 SCS Correlation Energy    =      -1.7250448316360480 [Eh]
	 SCS Total Energy          =    -481.5725461585313951 [Eh]
	-----------------------------------------------------------


*** tstop() called on ddmfs1 at Mon Jan 22 16:59:30 2024
Module time:
	user time   =      39.15 seconds =       0.65 minutes
	system time =       1.69 seconds =       0.03 minutes
	total time  =          5 seconds =       0.08 minutes
Total time:
	user time   =     165.20 seconds =       2.75 minutes
	system time =       8.27 seconds =       0.14 minutes
	total time  =         12 seconds =       0.20 minutes

    Psi4 stopped on: Monday, 22 January 2024 04:59PM
    Psi4 wall time for execution: 0:00:12.07

*** Psi4 exiting successfully. Buy a developer a beer!
