
    -----------------------------------------------------------------------
          Psi4: An Open-Source Ab Initio Electronic Structure Package
                               Psi4 1.8.2 release

                         Git: Rev {} zzzzzzz 


    D. G. A. Smith, L. A. Burns, A. C. Simmonett, R. M. Parrish,
    M. C. Schieber, R. Galvelis, P. Kraus, H. Kruse, R. Di Remigio,
    A. Alenaizan, A. M. James, S. Lehtola, J. P. Misiewicz, M. Scheurer,
    R. A. Shaw, J. B. Schriber, Y. Xie, Z. L. Glick, D. A. Sirianni,
    J. S. O'Brien, J. M. Waldrop, A. Kumar, E. G. Hohenstein,
    B. P. Pritchard, B. R. Brooks, H. F. Schaefer III, A. Yu. Sokolov,
    K. Patkowski, A. E. DePrince III, U. Bozkaya, R. A. King,
    F. A. Evangelista, J. M. Turney, T. D. Crawford, C. D. Sherrill,
    J. Chem. Phys. 152(18) 184108 (2020). https://doi.org/10.1063/5.0006002

                            Additional Code Authors
    E. T. Seidl, C. L. Janssen, E. F. Valeev, M. L. Leininger,
    J. F. Gonthier, R. M. Richard, H. R. McAlexander, M. Saitow, X. Wang,
    P. Verma, M. H. Lechner, A. Jiang, S. Behnle, A. G. Heide,
    M. F. Herbst, and D. L. Poole

             Previous Authors, Complete List of Code Contributors,
                       and Citations for Specific Modules
    https://github.com/psi4/psi4/blob/master/codemeta.json
    https://github.com/psi4/psi4/graphs/contributors
    http://psicode.org/psi4manual/master/introduction.html#citing-psifour

    -----------------------------------------------------------------------


    Psi4 started on: Monday, 22 January 2024 05:27PM

    Process ID: 84285
    Host:       ddmfs1
    PSIDATADIR: /ddmfs1b/softs/psi4conda/share/psi4
    Memory:     500.0 MiB
    Threads:    20
    
  ==> Input File <==

--------------------------------------------------------------------------
MEMORY 60 GB

molecule dimer {
0 1
Gh(F)      0.000000     0.000000     0.000000
Gh(O)      0.020616    -2.622130    -0.705666
Gh(H)      0.176062    -1.700924    -0.426870
Gh(H)      0.795461    -2.839266    -1.297010
Gh(O)     -2.870261    -0.000471     0.338715
Gh(H)     -2.996147     0.666526     1.009785
Gh(H)     -1.893125    -0.105935     0.214458
Gh(O)     -0.001472     2.687410     0.723673
Gh(H)      0.881290     2.822564     0.332212
Gh(H)     -0.142487     1.752329     0.774552
O          2.136094    -0.056435     1.706865
H          1.433639    -0.096855     0.999761
H          1.859747     0.765500     2.240514
Gh(O)     -1.199236     1.217659    -2.416045
Gh(H)     -0.472625     1.733742    -2.621158
Gh(H)     -0.898635     0.774842    -1.566927

units ang
no_reorient
no_com
symmetry c1
}

set {
basis        aug-cc-pVTZ
scf_type     df
}

energy("mp2")
--------------------------------------------------------------------------

  Memory set to  55.879 GiB by Python driver.

Scratch directory: /ddmfs1a/scratch/
   => Libint2 <=

    Primary   basis highest AM E, G, H:  5, 4, 3
    Auxiliary basis highest AM E, G, H:  6, 5, 4
    Onebody   basis highest AM E, G, H:  6, 5, 4
    Solid Harmonics ordering:            gaussian

*** tstart() called on ddmfs1
*** at Mon Jan 22 17:27:19 2024

   => Loading Basis Set <=

    Name: AUG-CC-PVTZ
    Role: ORBITAL
    Keyword: BASIS
    atoms 1                            entry F          line   377 file /ddmfs1b/softs/psi4conda/share/psi4/basis/aug-cc-pvtz.gbs 
    atoms 2, 5, 8, 11, 14              entry O          line   331 file /ddmfs1b/softs/psi4conda/share/psi4/basis/aug-cc-pvtz.gbs 
    atoms 3-4, 6-7, 9-10, 12-13, 15-16 entry H          line    40 file /ddmfs1b/softs/psi4conda/share/psi4/basis/aug-cc-pvtz.gbs 


         ---------------------------------------------------------
                                   SCF
               by Justin Turney, Rob Parrish, Andy Simmonett
                          and Daniel G. A. Smith
                              RHF Reference
                       20 Threads,  57220 MiB Core
         ---------------------------------------------------------

  ==> Geometry <==

    Molecular point group: c1
    Full point group: C1

    Geometry (in Angstrom), charge = 0, multiplicity = 1:

       Center              X                  Y                   Z               Mass       
    ------------   -----------------  -----------------  -----------------  -----------------
      Gh(F)           0.000000000000     0.000000000000     0.000000000000    18.998403162730
      Gh(O)           0.020616000000    -2.622130000000    -0.705666000000    15.994914619570
      Gh(H)           0.176062000000    -1.700924000000    -0.426870000000     1.007825032230
      Gh(H)           0.795461000000    -2.839266000000    -1.297010000000     1.007825032230
      Gh(O)          -2.870261000000    -0.000471000000     0.338715000000    15.994914619570
      Gh(H)          -2.996147000000     0.666526000000     1.009785000000     1.007825032230
      Gh(H)          -1.893125000000    -0.105935000000     0.214458000000     1.007825032230
      Gh(O)          -0.001472000000     2.687410000000     0.723673000000    15.994914619570
      Gh(H)           0.881290000000     2.822564000000     0.332212000000     1.007825032230
      Gh(H)          -0.142487000000     1.752329000000     0.774552000000     1.007825032230
         O            2.136094000000    -0.056435000000     1.706865000000    15.994914619570
         H            1.433639000000    -0.096855000000     0.999761000000     1.007825032230
         H            1.859747000000     0.765500000000     2.240514000000     1.007825032230
      Gh(O)          -1.199236000000     1.217659000000    -2.416045000000    15.994914619570
      Gh(H)          -0.472625000000     1.733742000000    -2.621158000000     1.007825032230
      Gh(H)          -0.898635000000     0.774842000000    -1.566927000000     1.007825032230

  Running in c1 symmetry.

  Rotational constants: A =      0.04392  B =      0.03952  C =      0.02841 [cm^-1]
  Rotational constants: A =   1316.75279  B =   1184.68148  C =    851.70874 [MHz]
  Nuclear repulsion =    8.738712516103822

  Charge       = 0
  Multiplicity = 1
  Electrons    = 10
  Nalpha       = 5
  Nbeta        = 5

  ==> Algorithm <==

  SCF Algorithm Type is DF.
  DIIS enabled.
  MOM disabled.
  Fractional occupation disabled.
  Guess Type is SAD.
  Energy threshold   = 1.00e-08
  Density threshold  = 1.00e-08
  Integral threshold = 1.00e-12

  ==> Primary Basis <==

  Basis Set: AUG-CC-PVTZ
    Blend: AUG-CC-PVTZ
    Number of shells: 174
    Number of basis functions: 506
    Number of Cartesian functions: 580
    Spherical Harmonics?: true
    Max angular momentum: 3

   => Loading Basis Set <=

    Name: (AUG-CC-PVTZ AUX)
    Role: JKFIT
    Keyword: DF_BASIS_SCF
    atoms 1                            entry F          line   348 file /ddmfs1b/softs/psi4conda/share/psi4/basis/aug-cc-pvtz-jkfit.gbs 
    atoms 2, 5, 8, 11, 14              entry O          line   286 file /ddmfs1b/softs/psi4conda/share/psi4/basis/aug-cc-pvtz-jkfit.gbs 
    atoms 3-4, 6-7, 9-10, 12-13, 15-16 entry H          line    70 file /ddmfs1b/softs/psi4conda/share/psi4/basis/aug-cc-pvtz-jkfit.gbs 

  ==> Integral Setup <==

  DFHelper Memory: AOs need 1.963 GiB; user supplied 41.910 GiB. 
  Using in-core AOs.

  ==> MemDFJK: Density-Fitted J/K Matrices <==

    J tasked:                   Yes
    K tasked:                   Yes
    wK tasked:                   No
    OpenMP threads:              20
    Memory [MiB]:             42915
    Algorithm:                 Core
    Schwarz Cutoff:           1E-12
    Mask sparsity (%):       9.8353
    Fitting Condition:        1E-10

   => Auxiliary Basis Set <=

  Basis Set: (AUG-CC-PVTZ AUX)
    Blend: AUG-CC-PVTZ-JKFIT
    Number of shells: 320
    Number of basis functions: 1084
    Number of Cartesian functions: 1336
    Spherical Harmonics?: true
    Max angular momentum: 4

  Minimum eigenvalue in the overlap matrix is 6.9634475825E-05.
  Reciprocal condition number of the overlap matrix is 5.0112428075E-06.
    Using symmetric orthogonalization.

  ==> Pre-Iterations <==

  SCF Guess: Superposition of Atomic Densities via on-the-fly atomic UHF (no occupation information).

   -------------------------
    Irrep   Nso     Nmo    
   -------------------------
     A        506     506 
   -------------------------
    Total     506     506
   -------------------------

  ==> Iterations <==

                           Total Energy        Delta E     RMS |[F,P]|

   @DF-RHF iter SAD:   -75.42025670277593   -7.54203e+01   0.00000e+00 
   @DF-RHF iter   1:   -75.96538268033248   -5.45126e-01   9.20591e-04 ADIIS/DIIS
   @DF-RHF iter   2:   -76.01638143143310   -5.09988e-02   6.64735e-04 ADIIS/DIIS
   @DF-RHF iter   3:   -76.05213608898953   -3.57547e-02   4.54725e-05 DIIS
   @DF-RHF iter   4:   -76.05259927193748   -4.63183e-04   1.20709e-05 DIIS
   @DF-RHF iter   5:   -76.05263620995009   -3.69380e-05   2.86844e-06 DIIS
   @DF-RHF iter   6:   -76.05263943985224   -3.22990e-06   6.21369e-07 DIIS
   @DF-RHF iter   7:   -76.05263960045828   -1.60606e-07   1.04861e-07 DIIS
   @DF-RHF iter   8:   -76.05263960434296   -3.88468e-09   1.88862e-08 DIIS
   @DF-RHF iter   9:   -76.05263960444775   -1.04791e-10   4.97092e-09 DIIS
  Energy and wave function converged.


  ==> Post-Iterations <==

    Orbital Energies [Eh]
    ---------------------

    Doubly Occupied:                                                      

       1A    -20.576759     2A     -1.330476     3A     -0.687055  
       4A     -0.579305     5A     -0.507148  

    Virtual:                                                              

       6A      0.014432     7A      0.033033     8A      0.037099  
       9A      0.040425    10A      0.058046    11A      0.060980  
      12A      0.063732    13A      0.066012    14A      0.071402  
      15A      0.092153    16A      0.110508    17A      0.118891  
      18A      0.127658    19A      0.135284    20A      0.142862  
      21A      0.146002    22A      0.154323    23A      0.155641  
      24A      0.163700    25A      0.168149    26A      0.171957  
      27A      0.178251    28A      0.185270    29A      0.192943  
      30A      0.201561    31A      0.205962    32A      0.211508  
      33A      0.220439    34A      0.226252    35A      0.231058  
      36A      0.239137    37A      0.250594    38A      0.268137  
      39A      0.279571    40A      0.285267    41A      0.287268  
      42A      0.292302    43A      0.310873    44A      0.315141  
      45A      0.320634    46A      0.324462    47A      0.326999  
      48A      0.338173    49A      0.340906    50A      0.352757  
      51A      0.359857    52A      0.365057    53A      0.369106  
      54A      0.378063    55A      0.384650    56A      0.390605  
      57A      0.392818    58A      0.405962    59A      0.412982  
      60A      0.418360    61A      0.427551    62A      0.434787  
      63A      0.440677    64A      0.448992    65A      0.452415  
      66A      0.470147    67A      0.476798    68A      0.490825  
      69A      0.498579    70A      0.507355    71A      0.525573  
      72A      0.529268    73A      0.531560    74A      0.558797  
      75A      0.569400    76A      0.581497    77A      0.598791  
      78A      0.619748    79A      0.628059    80A      0.664814  
      81A      0.665910    82A      0.685409    83A      0.698109  
      84A      0.709061    85A      0.713493    86A      0.720634  
      87A      0.728283    88A      0.739741    89A      0.751522  
      90A      0.754351    91A      0.760817    92A      0.776923  
      93A      0.778935    94A      0.782320    95A      0.792077  
      96A      0.804546    97A      0.808126    98A      0.813605  
      99A      0.818881   100A      0.823543   101A      0.833238  
     102A      0.836450   103A      0.848416   104A      0.855574  
     105A      0.861585   106A      0.865485   107A      0.870681  
     108A      0.886645   109A      0.894990   110A      0.896382  
     111A      0.910881   112A      0.911834   113A      0.915959  
     114A      0.928966   115A      0.930875   116A      0.938526  
     117A      0.943525   118A      0.947371   119A      0.952080  
     120A      0.963414   121A      0.965371   122A      0.966298  
     123A      0.984326   124A      0.991261   125A      0.997415  
     126A      1.007571   127A      1.011216   128A      1.020704  
     129A      1.025866   130A      1.029400   131A      1.039778  
     132A      1.053957   133A      1.056823   134A      1.062114  
     135A      1.073346   136A      1.082742   137A      1.089601  
     138A      1.092202   139A      1.094987   140A      1.112157  
     141A      1.118414   142A      1.129346   143A      1.148630  
     144A      1.152024   145A      1.162673   146A      1.176094  
     147A      1.182468   148A      1.187633   149A      1.208088  
     150A      1.214225   151A      1.221645   152A      1.233582  
     153A      1.238802   154A      1.262526   155A      1.265299  
     156A      1.277714   157A      1.297768   158A      1.311531  
     159A      1.314117   160A      1.321776   161A      1.341992  
     162A      1.358882   163A      1.362857   164A      1.367048  
     165A      1.397226   166A      1.414659   167A      1.417058  
     168A      1.426383   169A      1.452193   170A      1.458393  
     171A      1.469105   172A      1.488035   173A      1.505980  
     174A      1.512618   175A      1.522843   176A      1.538547  
     177A      1.547187   178A      1.554055   179A      1.584400  
     180A      1.598831   181A      1.615334   182A      1.632931  
     183A      1.657800   184A      1.666585   185A      1.681914  
     186A      1.686802   187A      1.694025   188A      1.722646  
     189A      1.724727   190A      1.741902   191A      1.754271  
     192A      1.764459   193A      1.771248   194A      1.781414  
     195A      1.786987   196A      1.799262   197A      1.810942  
     198A      1.826934   199A      1.840158   200A      1.842684  
     201A      1.854282   202A      1.875236   203A      1.888955  
     204A      1.892578   205A      1.912748   206A      1.930037  
     207A      1.950110   208A      1.955137   209A      1.972059  
     210A      1.980269   211A      1.991938   212A      2.008088  
     213A      2.033910   214A      2.080280   215A      2.094220  
     216A      2.123688   217A      2.167488   218A      2.181080  
     219A      2.193189   220A      2.244399   221A      2.316122  
     222A      2.332904   223A      2.359073   224A      2.440122  
     225A      2.449991   226A      2.456638   227A      2.472667  
     228A      2.481662   229A      2.491350   230A      2.498740  
     231A      2.509180   232A      2.523859   233A      2.526319  
     234A      2.531779   235A      2.540587   236A      2.554735  
     237A      2.564927   238A      2.575703   239A      2.590944  
     240A      2.602929   241A      2.604212   242A      2.634194  
     243A      2.642662   244A      2.668031   245A      2.678578  
     246A      2.692960   247A      2.696900   248A      2.711960  
     249A      2.714413   250A      2.721574   251A      2.742132  
     252A      2.748811   253A      2.767487   254A      2.779737  
     255A      2.792258   256A      2.812305   257A      2.814724  
     258A      2.832017   259A      2.858156   260A      2.866364  
     261A      2.877244   262A      2.883224   263A      2.911857  
     264A      2.947463   265A      2.963268   266A      2.970999  
     267A      3.000463   268A      3.027037   269A      3.050473  
     270A      3.064143   271A      3.108391   272A      3.169641  
     273A      3.181649   274A      3.193353   275A      3.200736  
     276A      3.205917   277A      3.213915   278A      3.225077  
     279A      3.232926   280A      3.242674   281A      3.274275  
     282A      3.288200   283A      3.358581   284A      3.363710  
     285A      3.389326   286A      3.396550   287A      3.442614  
     288A      3.449092   289A      3.465155   290A      3.483037  
     291A      3.516390   292A      3.565787   293A      3.570646  
     294A      3.604573   295A      3.612611   296A      3.639380  
     297A      3.667547   298A      3.686631   299A      3.709487  
     300A      3.714454   301A      3.741738   302A      3.757287  
     303A      3.759453   304A      3.782883   305A      3.839541  
     306A      3.861818   307A      3.883680   308A      3.962908  
     309A      4.019730   310A      4.035518   311A      4.072723  
     312A      4.108714   313A      4.155393   314A      4.200295  
     315A      4.222642   316A      4.236842   317A      4.296238  
     318A      4.318345   319A      4.343749   320A      4.368498  
     321A      4.395895   322A      4.412829   323A      4.422425  
     324A      4.433799   325A      4.445388   326A      4.463187  
     327A      4.486674   328A      4.489757   329A      4.496065  
     330A      4.514548   331A      4.523740   332A      4.540632  
     333A      4.556943   334A      4.579016   335A      4.593519  
     336A      4.609537   337A      4.619255   338A      4.627876  
     339A      4.637743   340A      4.667072   341A      4.678436  
     342A      4.711898   343A      4.724135   344A      4.746928  
     345A      4.760880   346A      4.784320   347A      4.808342  
     348A      4.877300   349A      4.899338   350A      4.911107  
     351A      4.920228   352A      4.936392   353A      4.963989  
     354A      4.968291   355A      4.978814   356A      4.997809  
     357A      5.020847   358A      5.042656   359A      5.055699  
     360A      5.071040   361A      5.081880   362A      5.104594  
     363A      5.121398   364A      5.142007   365A      5.173570  
     366A      5.199855   367A      5.268231   368A      5.291201  
     369A      5.323511   370A      5.341795   371A      5.371211  
     372A      5.443071   373A      5.486560   374A      5.504846  
     375A      5.510582   376A      5.527466   377A      5.547405  
     378A      5.559532   379A      5.595463   380A      5.602442  
     381A      5.640824   382A      5.674821   383A      5.686431  
     384A      5.752219   385A      5.792103   386A      5.806908  
     387A      5.855484   388A      5.896035   389A      5.922538  
     390A      5.999946   391A      6.167691   392A      6.224126  
     393A      6.239598   394A      6.265084   395A      6.287872  
     396A      6.434428   397A      6.466321   398A      6.495879  
     399A      6.506817   400A      6.579353   401A      6.610692  
     402A      6.666136   403A      6.731101   404A      6.734720  
     405A      6.841930   406A      6.955000   407A      7.040821  
     408A      7.089889   409A      7.100621   410A      7.150225  
     411A      7.178770   412A      7.248322   413A      7.294787  
     414A      7.315540   415A      7.422123   416A      7.519972  
     417A      7.665973   418A      7.718948   419A      7.741777  
     420A      7.770430   421A      7.796171   422A      7.825379  
     423A      7.832723   424A      7.845775   425A      7.912893  
     426A      7.918543   427A      7.979484   428A      8.039618  
     429A      8.056942   430A      8.101799   431A      8.153197  
     432A      8.156240   433A      8.214909   434A      8.271644  
     435A      8.279070   436A      8.308436   437A      8.309247  
     438A      8.333284   439A      8.343833   440A      8.645747  
     441A      8.734859   442A      8.771703   443A      8.790155  
     444A      8.903475   445A      8.933824   446A      8.966046  
     447A      9.008173   448A      9.021335   449A      9.689809  
     450A      9.746261   451A      9.762366   452A      9.801210  
     453A      9.875220   454A      9.885111   455A      9.914681  
     456A      9.931145   457A     10.082957   458A     10.088362  
     459A     10.103850   460A     10.131507   461A     10.287458  
     462A     10.312448   463A     10.337220   464A     10.359642  
     465A     10.407016   466A     10.468971   467A     10.504637  
     468A     10.537567   469A     10.631446   470A     10.748654  
     471A     10.852279   472A     11.123447   473A     11.169403  
     474A     11.204603   475A     11.288829   476A     11.656715  
     477A     11.772242   478A     11.805010   479A     11.845860  
     480A     11.921320   481A     12.203898   482A     12.257867  
     483A     12.396141   484A     12.515094   485A     13.258763  
     486A     13.268376   487A     13.344775   488A     13.447968  
     489A     13.495860   490A     13.641090   491A     13.654067  
     492A     13.676788   493A     13.747214   494A     13.943302  
     495A     13.961803   496A     14.011543   497A     14.039586  
     498A     15.016810   499A     15.314152   500A     15.373518  
     501A     15.916735   502A     65.657130   503A     66.442732  
     504A     66.627685   505A     67.384921   506A     75.006845  

    Final Occupation by Irrep:
              A 
    DOCC [     5 ]
    NA   [     5 ]
    NB   [     5 ]

  @DF-RHF Final Energy:   -76.05263960444775

   => Energetics <=

    Nuclear Repulsion Energy =              8.7387125161038224
    One-Electron Energy =                -122.2212151736988375
    Two-Electron Energy =                  37.4298630531472583
    Total Energy =                        -76.0526396044477622

Computation Completed


Properties will be evaluated at   0.000000,   0.000000,   0.000000 [a0]

Properties computed using the SCF density matrix


 Multipole Moments:

 ------------------------------------------------------------------------------------
     Multipole            Electronic (a.u.)      Nuclear  (a.u.)        Total (a.u.)
 ------------------------------------------------------------------------------------

 L = 1.  Multiply by 2.5417464519 to convert [e a0] to [Debye]
 Dipole X            :        -39.1448732           38.5166587           -0.6282146
 Dipole Y            :          0.0882026            0.4103824            0.4985850
 Dipole Z            :        -32.0416951           31.9272914           -0.1144037
 Magnitude           :                                                    0.8101412

 ------------------------------------------------------------------------------------

*** tstop() called on ddmfs1 at Mon Jan 22 17:27:24 2024
Module time:
	user time   =      86.58 seconds =       1.44 minutes
	system time =       3.92 seconds =       0.07 minutes
	total time  =          5 seconds =       0.08 minutes
Total time:
	user time   =      86.58 seconds =       1.44 minutes
	system time =       3.92 seconds =       0.07 minutes
	total time  =          5 seconds =       0.08 minutes

*** tstart() called on ddmfs1
*** at Mon Jan 22 17:27:24 2024


  //>>>>>>>>>>>>>>>>>>>>>>>>>>>>>>>>>>>//
  //               DFMP2               //
  //<<<<<<<<<<<<<<<<<<<<<<<<<<<<<<<<<<<//

   => Loading Basis Set <=

    Name: (AUG-CC-PVTZ AUX)
    Role: RIFIT
    Keyword: DF_BASIS_MP2
    atoms 1                            entry F          line   322 file /ddmfs1b/softs/psi4conda/share/psi4/basis/aug-cc-pvtz-ri.gbs 
    atoms 2, 5, 8, 11, 14              entry O          line   264 file /ddmfs1b/softs/psi4conda/share/psi4/basis/aug-cc-pvtz-ri.gbs 
    atoms 3-4, 6-7, 9-10, 12-13, 15-16 entry H          line    30 file /ddmfs1b/softs/psi4conda/share/psi4/basis/aug-cc-pvtz-ri.gbs 

	 --------------------------------------------------------
	                          DF-MP2                         
	      2nd-Order Density-Fitted Moller-Plesset Theory     
	              RMP2 Wavefunction,  20 Threads             
	                                                         
	        Rob Parrish, Justin Turney, Andy Simmonett,      
	           Ed Hohenstein, and C. David Sherrill          
	 --------------------------------------------------------

   => Auxiliary Basis Set <=

  Basis Set: (AUG-CC-PVTZ AUX)
    Blend: AUG-CC-PVTZ-RI
    Number of shells: 308
    Number of basis functions: 1096
    Number of Cartesian functions: 1366
    Spherical Harmonics?: true
    Max angular momentum: 4

	 --------------------------------------------------------
	                 NBF =   506, NAUX =  1096
	 --------------------------------------------------------
	   CLASS    FOCC     OCC    AOCC    AVIR     VIR    FVIR
	   PAIRS       0       5       5     501     501       0
	 --------------------------------------------------------

	-----------------------------------------------------------
	 ==================> DF-MP2 Energies <==================== 
	-----------------------------------------------------------
	 Reference Energy          =     -76.0526396044477480 [Eh]
	 Singles Energy            =      -0.0000000000000000 [Eh]
	 Same-Spin Energy          =      -0.0693443892912024 [Eh]
	 Opposite-Spin Energy      =      -0.2190212009999329 [Eh]
	 Correlation Energy        =      -0.2883655902911353 [Eh]
	 Total Energy              =     -76.3410051947388837 [Eh]
	-----------------------------------------------------------
	 ================> DF-SCS-MP2 Energies <================== 
	-----------------------------------------------------------
	 SCS Same-Spin Scale       =       0.3333333333333333 [-]
	 SCS Opposite-Spin Scale   =       1.2000000000000000 [-]
	 SCS Same-Spin Energy      =      -0.0231147964304008 [Eh]
	 SCS Opposite-Spin Energy  =      -0.2628254411999194 [Eh]
	 SCS Correlation Energy    =      -0.2859402376303202 [Eh]
	 SCS Total Energy          =     -76.3385798420780617 [Eh]
	-----------------------------------------------------------


*** tstop() called on ddmfs1 at Mon Jan 22 17:27:27 2024
Module time:
	user time   =      24.08 seconds =       0.40 minutes
	system time =       1.27 seconds =       0.02 minutes
	total time  =          3 seconds =       0.05 minutes
Total time:
	user time   =     110.68 seconds =       1.84 minutes
	system time =       5.19 seconds =       0.09 minutes
	total time  =          8 seconds =       0.13 minutes

    Psi4 stopped on: Monday, 22 January 2024 05:27PM
    Psi4 wall time for execution: 0:00:09.01

*** Psi4 exiting successfully. Buy a developer a beer!
