
    -----------------------------------------------------------------------
          Psi4: An Open-Source Ab Initio Electronic Structure Package
                               Psi4 1.8.2 release

                         Git: Rev {} zzzzzzz 


    D. G. A. Smith, L. A. Burns, A. C. Simmonett, R. M. Parrish,
    M. C. Schieber, R. Galvelis, P. Kraus, H. Kruse, R. Di Remigio,
    A. Alenaizan, A. M. James, S. Lehtola, J. P. Misiewicz, M. Scheurer,
    R. A. Shaw, J. B. Schriber, Y. Xie, Z. L. Glick, D. A. Sirianni,
    J. S. O'Brien, J. M. Waldrop, A. Kumar, E. G. Hohenstein,
    B. P. Pritchard, B. R. Brooks, H. F. Schaefer III, A. Yu. Sokolov,
    K. Patkowski, A. E. DePrince III, U. Bozkaya, R. A. King,
    F. A. Evangelista, J. M. Turney, T. D. Crawford, C. D. Sherrill,
    J. Chem. Phys. 152(18) 184108 (2020). https://doi.org/10.1063/5.0006002

                            Additional Code Authors
    E. T. Seidl, C. L. Janssen, E. F. Valeev, M. L. Leininger,
    J. F. Gonthier, R. M. Richard, H. R. McAlexander, M. Saitow, X. Wang,
    P. Verma, M. H. Lechner, A. Jiang, S. Behnle, A. G. Heide,
    M. F. Herbst, and D. L. Poole

             Previous Authors, Complete List of Code Contributors,
                       and Citations for Specific Modules
    https://github.com/psi4/psi4/blob/master/codemeta.json
    https://github.com/psi4/psi4/graphs/contributors
    http://psicode.org/psi4manual/master/introduction.html#citing-psifour

    -----------------------------------------------------------------------


    Psi4 started on: Monday, 22 January 2024 06:36PM

    Process ID: 91463
    Host:       ddmfs1
    PSIDATADIR: /ddmfs1b/softs/psi4conda/share/psi4
    Memory:     500.0 MiB
    Threads:    20
    
  ==> Input File <==

--------------------------------------------------------------------------
MEMORY 60 GB

molecule dimer {
0 1
Gh(F)      0.000000     0.000000     0.000000
Gh(O)      2.510030    -0.661941    -0.832182
Gh(H)      3.047987     0.136114    -0.766474
Gh(H)      1.651515    -0.398683    -0.437510
Gh(O)     -1.861163     1.391541     1.823140
Gh(H)     -1.395324     0.891965     1.132552
Gh(H)     -2.167141     2.148676     1.326070
Gh(O)     -0.069818    -1.825737     1.950594
Gh(H)      0.658754    -2.446451     1.867536
Gh(H)     -0.032357    -1.190493     1.210077
O          2.118804     1.277032     1.563138
H          2.238847     0.825714     2.421086
H          1.328717     0.912441     1.134542
Gh(O)     -2.940937    -0.619005    -0.168957
Gh(H)     -2.026060    -0.454747    -0.472925
Gh(H)     -3.379101    -1.135452    -0.844734
Gh(O)      0.534776     0.816487    -2.672079
Gh(H)      0.728932     1.193376    -1.819618
Gh(H)     -0.414644     0.967166    -2.819436

units ang
no_reorient
no_com
symmetry c1
}

set {
basis        aug-cc-pVTZ
scf_type     df
}

energy("mp2")
--------------------------------------------------------------------------

  Memory set to  55.879 GiB by Python driver.

Scratch directory: /ddmfs1a/scratch/
   => Libint2 <=

    Primary   basis highest AM E, G, H:  5, 4, 3
    Auxiliary basis highest AM E, G, H:  6, 5, 4
    Onebody   basis highest AM E, G, H:  6, 5, 4
    Solid Harmonics ordering:            gaussian

*** tstart() called on ddmfs1
*** at Mon Jan 22 18:36:43 2024

   => Loading Basis Set <=

    Name: AUG-CC-PVTZ
    Role: ORBITAL
    Keyword: BASIS
    atoms 1                                   entry F          line   377 file /ddmfs1b/softs/psi4conda/share/psi4/basis/aug-cc-pvtz.gbs 
    atoms 2, 5, 8, 11, 14, 17                 entry O          line   331 file /ddmfs1b/softs/psi4conda/share/psi4/basis/aug-cc-pvtz.gbs 
    atoms 3-4, 6-7, 9-10, 12-13, 15-16, 18-19 entry H          line    40 file /ddmfs1b/softs/psi4conda/share/psi4/basis/aug-cc-pvtz.gbs 


         ---------------------------------------------------------
                                   SCF
               by Justin Turney, Rob Parrish, Andy Simmonett
                          and Daniel G. A. Smith
                              RHF Reference
                       20 Threads,  57220 MiB Core
         ---------------------------------------------------------

  ==> Geometry <==

    Molecular point group: c1
    Full point group: C1

    Geometry (in Angstrom), charge = 0, multiplicity = 1:

       Center              X                  Y                   Z               Mass       
    ------------   -----------------  -----------------  -----------------  -----------------
      Gh(F)           0.000000000000     0.000000000000     0.000000000000    18.998403162730
      Gh(O)           2.510030000000    -0.661941000000    -0.832182000000    15.994914619570
      Gh(H)           3.047987000000     0.136114000000    -0.766474000000     1.007825032230
      Gh(H)           1.651515000000    -0.398683000000    -0.437510000000     1.007825032230
      Gh(O)          -1.861163000000     1.391541000000     1.823140000000    15.994914619570
      Gh(H)          -1.395324000000     0.891965000000     1.132552000000     1.007825032230
      Gh(H)          -2.167141000000     2.148676000000     1.326070000000     1.007825032230
      Gh(O)          -0.069818000000    -1.825737000000     1.950594000000    15.994914619570
      Gh(H)           0.658754000000    -2.446451000000     1.867536000000     1.007825032230
      Gh(H)          -0.032357000000    -1.190493000000     1.210077000000     1.007825032230
         O            2.118804000000     1.277032000000     1.563138000000    15.994914619570
         H            2.238847000000     0.825714000000     2.421086000000     1.007825032230
         H            1.328717000000     0.912441000000     1.134542000000     1.007825032230
      Gh(O)          -2.940937000000    -0.619005000000    -0.168957000000    15.994914619570
      Gh(H)          -2.026060000000    -0.454747000000    -0.472925000000     1.007825032230
      Gh(H)          -3.379101000000    -1.135452000000    -0.844734000000     1.007825032230
      Gh(O)           0.534776000000     0.816487000000    -2.672079000000    15.994914619570
      Gh(H)           0.728932000000     1.193376000000    -1.819618000000     1.007825032230
      Gh(H)          -0.414644000000     0.967166000000    -2.819436000000     1.007825032230

  Running in c1 symmetry.

  Rotational constants: A =      0.03826  B =      0.02887  C =      0.02335 [cm^-1]
  Rotational constants: A =   1146.88016  B =    865.40769  C =    700.06764 [MHz]
  Nuclear repulsion =    9.033612338236820

  Charge       = 0
  Multiplicity = 1
  Electrons    = 10
  Nalpha       = 5
  Nbeta        = 5

  ==> Algorithm <==

  SCF Algorithm Type is DF.
  DIIS enabled.
  MOM disabled.
  Fractional occupation disabled.
  Guess Type is SAD.
  Energy threshold   = 1.00e-08
  Density threshold  = 1.00e-08
  Integral threshold = 1.00e-12

  ==> Primary Basis <==

  Basis Set: AUG-CC-PVTZ
    Blend: AUG-CC-PVTZ
    Number of shells: 206
    Number of basis functions: 598
    Number of Cartesian functions: 685
    Spherical Harmonics?: true
    Max angular momentum: 3

   => Loading Basis Set <=

    Name: (AUG-CC-PVTZ AUX)
    Role: JKFIT
    Keyword: DF_BASIS_SCF
    atoms 1                                   entry F          line   348 file /ddmfs1b/softs/psi4conda/share/psi4/basis/aug-cc-pvtz-jkfit.gbs 
    atoms 2, 5, 8, 11, 14, 17                 entry O          line   286 file /ddmfs1b/softs/psi4conda/share/psi4/basis/aug-cc-pvtz-jkfit.gbs 
    atoms 3-4, 6-7, 9-10, 12-13, 15-16, 18-19 entry H          line    70 file /ddmfs1b/softs/psi4conda/share/psi4/basis/aug-cc-pvtz-jkfit.gbs 

  ==> Integral Setup <==

  DFHelper Memory: AOs need 3.163 GiB; user supplied 41.910 GiB. 
  Using in-core AOs.

  ==> MemDFJK: Density-Fitted J/K Matrices <==

    J tasked:                   Yes
    K tasked:                   Yes
    wK tasked:                   No
    OpenMP threads:              20
    Memory [MiB]:             42915
    Algorithm:                 Core
    Schwarz Cutoff:           1E-12
    Mask sparsity (%):      11.2868
    Fitting Condition:        1E-10

   => Auxiliary Basis Set <=

  Basis Set: (AUG-CC-PVTZ AUX)
    Blend: AUG-CC-PVTZ-JKFIT
    Number of shells: 378
    Number of basis functions: 1280
    Number of Cartesian functions: 1577
    Spherical Harmonics?: true
    Max angular momentum: 4

  Minimum eigenvalue in the overlap matrix is 2.8282706751E-05.
  Reciprocal condition number of the overlap matrix is 1.8495859575E-06.
    Using symmetric orthogonalization.

  ==> Pre-Iterations <==

  SCF Guess: Superposition of Atomic Densities via on-the-fly atomic UHF (no occupation information).

   -------------------------
    Irrep   Nso     Nmo    
   -------------------------
     A        598     598 
   -------------------------
    Total     598     598
   -------------------------

  ==> Iterations <==

                           Total Energy        Delta E     RMS |[F,P]|

   @DF-RHF iter SAD:   -75.45557679054360   -7.54556e+01   0.00000e+00 
   @DF-RHF iter   1:   -75.97435117608674   -5.18774e-01   7.81454e-04 DIIS/ADIIS
   @DF-RHF iter   2:   -76.02625953923733   -5.19084e-02   5.39113e-04 DIIS/ADIIS
   @DF-RHF iter   3:   -76.05847072242697   -3.22112e-02   3.67409e-05 DIIS
   @DF-RHF iter   4:   -76.05888384186690   -4.13119e-04   9.08455e-06 DIIS
   @DF-RHF iter   5:   -76.05891144042197   -2.75986e-05   2.08311e-06 DIIS
   @DF-RHF iter   6:   -76.05891376238780   -2.32197e-06   4.65813e-07 DIIS
   @DF-RHF iter   7:   -76.05891389038138   -1.27994e-07   8.69162e-08 DIIS
   @DF-RHF iter   8:   -76.05891389428972   -3.90834e-09   1.47102e-08 DIIS
   @DF-RHF iter   9:   -76.05891389438032   -9.06084e-11   3.77726e-09 DIIS
  Energy and wave function converged.


  ==> Post-Iterations <==

    Orbital Energies [Eh]
    ---------------------

    Doubly Occupied:                                                      

       1A    -20.568105     2A     -1.342684     3A     -0.715954  
       4A     -0.574369     5A     -0.507831  

    Virtual:                                                              

       6A      0.014538     7A      0.030251     8A      0.037658  
       9A      0.038139    10A      0.052548    11A      0.057014  
      12A      0.058723    13A      0.064591    14A      0.070934  
      15A      0.082098    16A      0.088654    17A      0.090352  
      18A      0.111953    19A      0.125547    20A      0.131784  
      21A      0.135180    22A      0.137664    23A      0.146536  
      24A      0.148935    25A      0.155058    26A      0.160897  
      27A      0.162363    28A      0.168983    29A      0.174020  
      30A      0.184215    31A      0.188072    32A      0.188750  
      33A      0.194386    34A      0.204682    35A      0.212825  
      36A      0.215337    37A      0.221956    38A      0.226899  
      39A      0.229894    40A      0.242229    41A      0.253572  
      42A      0.258239    43A      0.269642    44A      0.272543  
      45A      0.286846    46A      0.291221    47A      0.294960  
      48A      0.305971    49A      0.311575    50A      0.321976  
      51A      0.328337    52A      0.333463    53A      0.336505  
      54A      0.345922    55A      0.349812    56A      0.355376  
      57A      0.357325    58A      0.366672    59A      0.369308  
      60A      0.377052    61A      0.380618    62A      0.386561  
      63A      0.392170    64A      0.393052    65A      0.399332  
      66A      0.412224    67A      0.414814    68A      0.418876  
      69A      0.422154    70A      0.433542    71A      0.437597  
      72A      0.443387    73A      0.450439    74A      0.458344  
      75A      0.463576    76A      0.467238    77A      0.476006  
      78A      0.480214    79A      0.489593    80A      0.495070  
      81A      0.514576    82A      0.517979    83A      0.531447  
      84A      0.541165    85A      0.554915    86A      0.568953  
      87A      0.572779    88A      0.578977    89A      0.587792  
      90A      0.609432    91A      0.623488    92A      0.634317  
      93A      0.655040    94A      0.658751    95A      0.690828  
      96A      0.698247    97A      0.709850    98A      0.717273  
      99A      0.722828   100A      0.730253   101A      0.740457  
     102A      0.753317   103A      0.755560   104A      0.764570  
     105A      0.765850   106A      0.771530   107A      0.779114  
     108A      0.785256   109A      0.793799   110A      0.796331  
     111A      0.806141   112A      0.811927   113A      0.816603  
     114A      0.824912   115A      0.829483   116A      0.835062  
     117A      0.838873   118A      0.847520   119A      0.852552  
     120A      0.862070   121A      0.865314   122A      0.869080  
     123A      0.879899   124A      0.882896   125A      0.886967  
     126A      0.893090   127A      0.898039   128A      0.904941  
     129A      0.909995   130A      0.914166   131A      0.927769  
     132A      0.933343   133A      0.939239   134A      0.943988  
     135A      0.951365   136A      0.952900   137A      0.958082  
     138A      0.964934   139A      0.979299   140A      0.981876  
     141A      0.986208   142A      0.993477   143A      1.003082  
     144A      1.007132   145A      1.019102   146A      1.025090  
     147A      1.029612   148A      1.033034   149A      1.039785  
     150A      1.044462   151A      1.048099   152A      1.050509  
     153A      1.056334   154A      1.069851   155A      1.072244  
     156A      1.080162   157A      1.095426   158A      1.096862  
     159A      1.103977   160A      1.114995   161A      1.118520  
     162A      1.120738   163A      1.132069   164A      1.142469  
     165A      1.146429   166A      1.153862   167A      1.162986  
     168A      1.178523   169A      1.188400   170A      1.190201  
     171A      1.195067   172A      1.201996   173A      1.216098  
     174A      1.224089   175A      1.231466   176A      1.233099  
     177A      1.252715   178A      1.253147   179A      1.262213  
     180A      1.274596   181A      1.280384   182A      1.290518  
     183A      1.307105   184A      1.315817   185A      1.325645  
     186A      1.335351   187A      1.338683   188A      1.352642  
     189A      1.361347   190A      1.375551   191A      1.380109  
     192A      1.392094   193A      1.399610   194A      1.417085  
     195A      1.427143   196A      1.430034   197A      1.448738  
     198A      1.461426   199A      1.483992   200A      1.497136  
     201A      1.508478   202A      1.518898   203A      1.525858  
     204A      1.535226   205A      1.544598   206A      1.574041  
     207A      1.575121   208A      1.580822   209A      1.586446  
     210A      1.596668   211A      1.622053   212A      1.628821  
     213A      1.636296   214A      1.648309   215A      1.663342  
     216A      1.678496   217A      1.686937   218A      1.693191  
     219A      1.701918   220A      1.713047   221A      1.736195  
     222A      1.746179   223A      1.753425   224A      1.763196  
     225A      1.770156   226A      1.779832   227A      1.796981  
     228A      1.803074   229A      1.812389   230A      1.813029  
     231A      1.822332   232A      1.837782   233A      1.847701  
     234A      1.855311   235A      1.860502   236A      1.871957  
     237A      1.882206   238A      1.888115   239A      1.900525  
     240A      1.911442   241A      1.924806   242A      1.941051  
     243A      1.956257   244A      1.968112   245A      1.970629  
     246A      1.984414   247A      1.996283   248A      2.003638  
     249A      2.022369   250A      2.042270   251A      2.047200  
     252A      2.059438   253A      2.086584   254A      2.088600  
     255A      2.105298   256A      2.135206   257A      2.166770  
     258A      2.218735   259A      2.251928   260A      2.274470  
     261A      2.302315   262A      2.329520   263A      2.389256  
     264A      2.396206   265A      2.445670   266A      2.465036  
     267A      2.476463   268A      2.482042   269A      2.484961  
     270A      2.493283   271A      2.506977   272A      2.519466  
     273A      2.530551   274A      2.533717   275A      2.542491  
     276A      2.555230   277A      2.560893   278A      2.567870  
     279A      2.580598   280A      2.594097   281A      2.606967  
     282A      2.611220   283A      2.616840   284A      2.629616  
     285A      2.651483   286A      2.661578   287A      2.675182  
     288A      2.684837   289A      2.692007   290A      2.702072  
     291A      2.709742   292A      2.715967   293A      2.725161  
     294A      2.740797   295A      2.751729   296A      2.759215  
     297A      2.764882   298A      2.774183   299A      2.779157  
     300A      2.802630   301A      2.811173   302A      2.821719  
     303A      2.844691   304A      2.852798   305A      2.870558  
     306A      2.881928   307A      2.898865   308A      2.913511  
     309A      2.918684   310A      2.924029   311A      2.936141  
     312A      2.951748   313A      2.972402   314A      3.008171  
     315A      3.027804   316A      3.049528   317A      3.057091  
     318A      3.077070   319A      3.095455   320A      3.111357  
     321A      3.158215   322A      3.193832   323A      3.219248  
     324A      3.221673   325A      3.230887   326A      3.235905  
     327A      3.251664   328A      3.256493   329A      3.269687  
     330A      3.276037   331A      3.290457   332A      3.306624  
     333A      3.316529   334A      3.321655   335A      3.348230  
     336A      3.369610   337A      3.389437   338A      3.407585  
     339A      3.412004   340A      3.460377   341A      3.474132  
     342A      3.503399   343A      3.518046   344A      3.521309  
     345A      3.527073   346A      3.547818   347A      3.574074  
     348A      3.596260   349A      3.611850   350A      3.622062  
     351A      3.643439   352A      3.657866   353A      3.688000  
     354A      3.697766   355A      3.721509   356A      3.750528  
     357A      3.768348   358A      3.806589   359A      3.825469  
     360A      3.844257   361A      3.888111   362A      3.893062  
     363A      3.931331   364A      3.977718   365A      4.012894  
     366A      4.091915   367A      4.109600   368A      4.137853  
     369A      4.162841   370A      4.209849   371A      4.250150  
     372A      4.272186   373A      4.313377   374A      4.333838  
     375A      4.364322   376A      4.380790   377A      4.412119  
     378A      4.430073   379A      4.452864   380A      4.459576  
     381A      4.468334   382A      4.486883   383A      4.498577  
     384A      4.503452   385A      4.513929   386A      4.523610  
     387A      4.541639   388A      4.544882   389A      4.558212  
     390A      4.569615   391A      4.587689   392A      4.605743  
     393A      4.619678   394A      4.629996   395A      4.641214  
     396A      4.648199   397A      4.669521   398A      4.674064  
     399A      4.702805   400A      4.714469   401A      4.724946  
     402A      4.736634   403A      4.748632   404A      4.759411  
     405A      4.795032   406A      4.797401   407A      4.813197  
     408A      4.820620   409A      4.868067   410A      4.880859  
     411A      4.897652   412A      4.917787   413A      4.941421  
     414A      4.943934   415A      4.958436   416A      4.964850  
     417A      4.984047   418A      4.995008   419A      5.011088  
     420A      5.028342   421A      5.048173   422A      5.056119  
     423A      5.068920   424A      5.082420   425A      5.092177  
     426A      5.135495   427A      5.190493   428A      5.216301  
     429A      5.219748   430A      5.252735   431A      5.270021  
     432A      5.280580   433A      5.286840   434A      5.334053  
     435A      5.365172   436A      5.399163   437A      5.417618  
     438A      5.445206   439A      5.476253   440A      5.544716  
     441A      5.558831   442A      5.562476   443A      5.582715  
     444A      5.596276   445A      5.605186   446A      5.627177  
     447A      5.642485   448A      5.646003   449A      5.678049  
     450A      5.682047   451A      5.699865   452A      5.709737  
     453A      5.729330   454A      5.767409   455A      5.783102  
     456A      5.856315   457A      5.901464   458A      5.916938  
     459A      5.935301   460A      5.987150   461A      6.011111  
     462A      6.171368   463A      6.213010   464A      6.215971  
     465A      6.265403   466A      6.336424   467A      6.383739  
     468A      6.432877   469A      6.461258   470A      6.474823  
     471A      6.575288   472A      6.595306   473A      6.642407  
     474A      6.707732   475A      6.720085   476A      6.750032  
     477A      6.808279   478A      6.823615   479A      6.845308  
     480A      6.932725   481A      7.093202   482A      7.114987  
     483A      7.120073   484A      7.125829   485A      7.135719  
     486A      7.207366   487A      7.320761   488A      7.374718  
     489A      7.404396   490A      7.474066   491A      7.571463  
     492A      7.711229   493A      7.750476   494A      7.770509  
     495A      7.785826   496A      7.804311   497A      7.834228  
     498A      7.841444   499A      7.862473   500A      7.875480  
     501A      7.901043   502A      7.929747   503A      7.967669  
     504A      8.062516   505A      8.070719   506A      8.095051  
     507A      8.114194   508A      8.124977   509A      8.199576  
     510A      8.215100   511A      8.231899   512A      8.250828  
     513A      8.276831   514A      8.291302   515A      8.313829  
     516A      8.334838   517A      8.343055   518A      8.358921  
     519A      8.369789   520A      8.766813   521A      8.802000  
     522A      8.810049   523A      8.817263   524A      8.838102  
     525A      8.849334   526A      8.929463   527A      8.934197  
     528A      9.019952   529A      9.040245   530A      9.078334  
     531A      9.745638   532A      9.764837   533A      9.806703  
     534A      9.830419   535A      9.844731   536A      9.885629  
     537A      9.913624   538A      9.918577   539A      9.939063  
     540A      9.966360   541A     10.061922   542A     10.084458  
     543A     10.136144   544A     10.145657   545A     10.170881  
     546A     10.256248   547A     10.308205   548A     10.311372  
     549A     10.345322   550A     10.365619   551A     10.424639  
     552A     10.501404   553A     10.545578   554A     10.680524  
     555A     10.692502   556A     10.778174   557A     10.826763  
     558A     11.140309   559A     11.191921   560A     11.203545  
     561A     11.294869   562A     11.335323   563A     11.706626  
     564A     11.726162   565A     11.761506   566A     11.861927  
     567A     11.909649   568A     11.948574   569A     12.114782  
     570A     12.187558   571A     12.298211   572A     12.376681  
     573A     12.745412   574A     13.274602   575A     13.290756  
     576A     13.414590   577A     13.463459   578A     13.523452  
     579A     13.612161   580A     13.667274   581A     13.759230  
     582A     13.782373   583A     13.814716   584A     13.929254  
     585A     13.997688   586A     14.050741   587A     14.096189  
     588A     14.112383   589A     15.083755   590A     15.271913  
     591A     15.561913   592A     16.802635   593A     65.332400  
     594A     65.660848   595A     66.602550   596A     67.386511  
     597A     67.413630   598A     75.931874  

    Final Occupation by Irrep:
              A 
    DOCC [     5 ]
    NA   [     5 ]
    NB   [     5 ]

  @DF-RHF Final Energy:   -76.05891389438032

   => Energetics <=

    Nuclear Repulsion Energy =              9.0336123382368196
    One-Electron Energy =                -122.7671628686820497
    Two-Electron Energy =                  37.6746366360649034
    Total Energy =                        -76.0589138943803249

Computation Completed


Properties will be evaluated at   0.000000,   0.000000,   0.000000 [a0]

Properties computed using the SCF density matrix


 Multipole Moments:

 ------------------------------------------------------------------------------------
     Multipole            Electronic (a.u.)      Nuclear  (a.u.)        Total (a.u.)
 ------------------------------------------------------------------------------------

 L = 1.  Multiply by 2.5417464519 to convert [e a0] to [Debye]
 Dipole X            :        -39.2207337           38.7733931           -0.4473406
 Dipole Y            :        -23.1338568           22.5905628           -0.5432940
 Dipole Z            :        -30.0653943           30.3503849            0.2849906
 Magnitude           :                                                    0.7592770

 ------------------------------------------------------------------------------------

*** tstop() called on ddmfs1 at Mon Jan 22 18:36:51 2024
Module time:
	user time   =     127.60 seconds =       2.13 minutes
	system time =       5.77 seconds =       0.10 minutes
	total time  =          8 seconds =       0.13 minutes
Total time:
	user time   =     127.60 seconds =       2.13 minutes
	system time =       5.77 seconds =       0.10 minutes
	total time  =          8 seconds =       0.13 minutes

*** tstart() called on ddmfs1
*** at Mon Jan 22 18:36:51 2024


  //>>>>>>>>>>>>>>>>>>>>>>>>>>>>>>>>>>>//
  //               DFMP2               //
  //<<<<<<<<<<<<<<<<<<<<<<<<<<<<<<<<<<<//

   => Loading Basis Set <=

    Name: (AUG-CC-PVTZ AUX)
    Role: RIFIT
    Keyword: DF_BASIS_MP2
    atoms 1                                   entry F          line   322 file /ddmfs1b/softs/psi4conda/share/psi4/basis/aug-cc-pvtz-ri.gbs 
    atoms 2, 5, 8, 11, 14, 17                 entry O          line   264 file /ddmfs1b/softs/psi4conda/share/psi4/basis/aug-cc-pvtz-ri.gbs 
    atoms 3-4, 6-7, 9-10, 12-13, 15-16, 18-19 entry H          line    30 file /ddmfs1b/softs/psi4conda/share/psi4/basis/aug-cc-pvtz-ri.gbs 

	 --------------------------------------------------------
	                          DF-MP2                         
	      2nd-Order Density-Fitted Moller-Plesset Theory     
	              RMP2 Wavefunction,  20 Threads             
	                                                         
	        Rob Parrish, Justin Turney, Andy Simmonett,      
	           Ed Hohenstein, and C. David Sherrill          
	 --------------------------------------------------------

   => Auxiliary Basis Set <=

  Basis Set: (AUG-CC-PVTZ AUX)
    Blend: AUG-CC-PVTZ-RI
    Number of shells: 364
    Number of basis functions: 1294
    Number of Cartesian functions: 1612
    Spherical Harmonics?: true
    Max angular momentum: 4

	 --------------------------------------------------------
	                 NBF =   598, NAUX =  1294
	 --------------------------------------------------------
	   CLASS    FOCC     OCC    AOCC    AVIR     VIR    FVIR
	   PAIRS       0       5       5     593     593       0
	 --------------------------------------------------------

	-----------------------------------------------------------
	 ==================> DF-MP2 Energies <==================== 
	-----------------------------------------------------------
	 Reference Energy          =     -76.0589138943803249 [Eh]
	 Singles Energy            =      -0.0000000000000000 [Eh]
	 Same-Spin Energy          =      -0.0686503213171024 [Eh]
	 Opposite-Spin Energy      =      -0.2169105344393420 [Eh]
	 Correlation Energy        =      -0.2855608557564444 [Eh]
	 Total Energy              =     -76.3444747501367686 [Eh]
	-----------------------------------------------------------
	 ================> DF-SCS-MP2 Energies <================== 
	-----------------------------------------------------------
	 SCS Same-Spin Scale       =       0.3333333333333333 [-]
	 SCS Opposite-Spin Scale   =       1.2000000000000000 [-]
	 SCS Same-Spin Energy      =      -0.0228834404390341 [Eh]
	 SCS Opposite-Spin Energy  =      -0.2602926413272104 [Eh]
	 SCS Correlation Energy    =      -0.2831760817662445 [Eh]
	 SCS Total Energy          =     -76.3420899761465677 [Eh]
	-----------------------------------------------------------


*** tstop() called on ddmfs1 at Mon Jan 22 18:36:57 2024
Module time:
	user time   =      33.08 seconds =       0.55 minutes
	system time =       1.84 seconds =       0.03 minutes
	total time  =          6 seconds =       0.10 minutes
Total time:
	user time   =     160.69 seconds =       2.68 minutes
	system time =       7.61 seconds =       0.13 minutes
	total time  =         14 seconds =       0.23 minutes

    Psi4 stopped on: Monday, 22 January 2024 06:36PM
    Psi4 wall time for execution: 0:00:13.37

*** Psi4 exiting successfully. Buy a developer a beer!
