
    -----------------------------------------------------------------------
          Psi4: An Open-Source Ab Initio Electronic Structure Package
                               Psi4 1.8.2 release

                         Git: Rev {} zzzzzzz 


    D. G. A. Smith, L. A. Burns, A. C. Simmonett, R. M. Parrish,
    M. C. Schieber, R. Galvelis, P. Kraus, H. Kruse, R. Di Remigio,
    A. Alenaizan, A. M. James, S. Lehtola, J. P. Misiewicz, M. Scheurer,
    R. A. Shaw, J. B. Schriber, Y. Xie, Z. L. Glick, D. A. Sirianni,
    J. S. O'Brien, J. M. Waldrop, A. Kumar, E. G. Hohenstein,
    B. P. Pritchard, B. R. Brooks, H. F. Schaefer III, A. Yu. Sokolov,
    K. Patkowski, A. E. DePrince III, U. Bozkaya, R. A. King,
    F. A. Evangelista, J. M. Turney, T. D. Crawford, C. D. Sherrill,
    J. Chem. Phys. 152(18) 184108 (2020). https://doi.org/10.1063/5.0006002

                            Additional Code Authors
    E. T. Seidl, C. L. Janssen, E. F. Valeev, M. L. Leininger,
    J. F. Gonthier, R. M. Richard, H. R. McAlexander, M. Saitow, X. Wang,
    P. Verma, M. H. Lechner, A. Jiang, S. Behnle, A. G. Heide,
    M. F. Herbst, and D. L. Poole

             Previous Authors, Complete List of Code Contributors,
                       and Citations for Specific Modules
    https://github.com/psi4/psi4/blob/master/codemeta.json
    https://github.com/psi4/psi4/graphs/contributors
    http://psicode.org/psi4manual/master/introduction.html#citing-psifour

    -----------------------------------------------------------------------


    Psi4 started on: Monday, 22 January 2024 06:46PM

    Process ID: 92832
    Host:       ddmfs1
    PSIDATADIR: /ddmfs1b/softs/psi4conda/share/psi4
    Memory:     500.0 MiB
    Threads:    20
    
  ==> Input File <==

--------------------------------------------------------------------------
MEMORY 60 GB

molecule dimer {
0 1
Gh(F)      0.000000     0.000000     0.000000
Gh(O)     -0.457010    -0.913459     2.874606
Gh(H)     -0.306480    -0.682030     1.919254
Gh(H)      0.333257    -0.768961     3.330802
Gh(O)     -1.736364     1.604014    -1.591024
Gh(H)     -1.392750     1.031544    -0.917866
Gh(H)     -2.603083     1.329404    -1.841321
Gh(O)      0.819239     2.289400     1.312707
Gh(H)      0.597058     2.285995     2.245025
Gh(H)      0.522724     1.425126     0.938345
Gh(O)      2.214721     0.612757    -1.586063
Gh(H)      1.959488     0.830819    -2.501662
Gh(H)      1.438663     0.411088    -1.114963
O         -1.059183    -2.036592    -1.488676
H         -0.695984    -1.884564    -2.350649
H         -0.551134    -1.260861    -1.152770

units ang
no_reorient
no_com
symmetry c1
}

set {
basis        aug-cc-pVTZ
scf_type     df
}

energy("mp2")
--------------------------------------------------------------------------

  Memory set to  55.879 GiB by Python driver.

Scratch directory: /ddmfs1a/scratch/
   => Libint2 <=

    Primary   basis highest AM E, G, H:  5, 4, 3
    Auxiliary basis highest AM E, G, H:  6, 5, 4
    Onebody   basis highest AM E, G, H:  6, 5, 4
    Solid Harmonics ordering:            gaussian

*** tstart() called on ddmfs1
*** at Mon Jan 22 18:46:35 2024

   => Loading Basis Set <=

    Name: AUG-CC-PVTZ
    Role: ORBITAL
    Keyword: BASIS
    atoms 1                            entry F          line   377 file /ddmfs1b/softs/psi4conda/share/psi4/basis/aug-cc-pvtz.gbs 
    atoms 2, 5, 8, 11, 14              entry O          line   331 file /ddmfs1b/softs/psi4conda/share/psi4/basis/aug-cc-pvtz.gbs 
    atoms 3-4, 6-7, 9-10, 12-13, 15-16 entry H          line    40 file /ddmfs1b/softs/psi4conda/share/psi4/basis/aug-cc-pvtz.gbs 


         ---------------------------------------------------------
                                   SCF
               by Justin Turney, Rob Parrish, Andy Simmonett
                          and Daniel G. A. Smith
                              RHF Reference
                       20 Threads,  57220 MiB Core
         ---------------------------------------------------------

  ==> Geometry <==

    Molecular point group: c1
    Full point group: C1

    Geometry (in Angstrom), charge = 0, multiplicity = 1:

       Center              X                  Y                   Z               Mass       
    ------------   -----------------  -----------------  -----------------  -----------------
      Gh(F)           0.000000000000     0.000000000000     0.000000000000    18.998403162730
      Gh(O)          -0.457010000000    -0.913459000000     2.874606000000    15.994914619570
      Gh(H)          -0.306480000000    -0.682030000000     1.919254000000     1.007825032230
      Gh(H)           0.333257000000    -0.768961000000     3.330802000000     1.007825032230
      Gh(O)          -1.736364000000     1.604014000000    -1.591024000000    15.994914619570
      Gh(H)          -1.392750000000     1.031544000000    -0.917866000000     1.007825032230
      Gh(H)          -2.603083000000     1.329404000000    -1.841321000000     1.007825032230
      Gh(O)           0.819239000000     2.289400000000     1.312707000000    15.994914619570
      Gh(H)           0.597058000000     2.285995000000     2.245025000000     1.007825032230
      Gh(H)           0.522724000000     1.425126000000     0.938345000000     1.007825032230
      Gh(O)           2.214721000000     0.612757000000    -1.586063000000    15.994914619570
      Gh(H)           1.959488000000     0.830819000000    -2.501662000000     1.007825032230
      Gh(H)           1.438663000000     0.411088000000    -1.114963000000     1.007825032230
         O           -1.059183000000    -2.036592000000    -1.488676000000    15.994914619570
         H           -0.695984000000    -1.884564000000    -2.350649000000     1.007825032230
         H           -0.551134000000    -1.260861000000    -1.152770000000     1.007825032230

  Running in c1 symmetry.

  Rotational constants: A =      0.04201  B =      0.03651  C =      0.02936 [cm^-1]
  Rotational constants: A =   1259.35280  B =   1094.66647  C =    880.29948 [MHz]
  Nuclear repulsion =    9.149321352338694

  Charge       = 0
  Multiplicity = 1
  Electrons    = 10
  Nalpha       = 5
  Nbeta        = 5

  ==> Algorithm <==

  SCF Algorithm Type is DF.
  DIIS enabled.
  MOM disabled.
  Fractional occupation disabled.
  Guess Type is SAD.
  Energy threshold   = 1.00e-08
  Density threshold  = 1.00e-08
  Integral threshold = 1.00e-12

  ==> Primary Basis <==

  Basis Set: AUG-CC-PVTZ
    Blend: AUG-CC-PVTZ
    Number of shells: 174
    Number of basis functions: 506
    Number of Cartesian functions: 580
    Spherical Harmonics?: true
    Max angular momentum: 3

   => Loading Basis Set <=

    Name: (AUG-CC-PVTZ AUX)
    Role: JKFIT
    Keyword: DF_BASIS_SCF
    atoms 1                            entry F          line   348 file /ddmfs1b/softs/psi4conda/share/psi4/basis/aug-cc-pvtz-jkfit.gbs 
    atoms 2, 5, 8, 11, 14              entry O          line   286 file /ddmfs1b/softs/psi4conda/share/psi4/basis/aug-cc-pvtz-jkfit.gbs 
    atoms 3-4, 6-7, 9-10, 12-13, 15-16 entry H          line    70 file /ddmfs1b/softs/psi4conda/share/psi4/basis/aug-cc-pvtz-jkfit.gbs 

  ==> Integral Setup <==

  DFHelper Memory: AOs need 1.942 GiB; user supplied 41.910 GiB. 
  Using in-core AOs.

  ==> MemDFJK: Density-Fitted J/K Matrices <==

    J tasked:                   Yes
    K tasked:                   Yes
    wK tasked:                   No
    OpenMP threads:              20
    Memory [MiB]:             42915
    Algorithm:                 Core
    Schwarz Cutoff:           1E-12
    Mask sparsity (%):      10.8297
    Fitting Condition:        1E-10

   => Auxiliary Basis Set <=

  Basis Set: (AUG-CC-PVTZ AUX)
    Blend: AUG-CC-PVTZ-JKFIT
    Number of shells: 320
    Number of basis functions: 1084
    Number of Cartesian functions: 1336
    Spherical Harmonics?: true
    Max angular momentum: 4

  Minimum eigenvalue in the overlap matrix is 6.5825397922E-05.
  Reciprocal condition number of the overlap matrix is 4.9377337132E-06.
    Using symmetric orthogonalization.

  ==> Pre-Iterations <==

  SCF Guess: Superposition of Atomic Densities via on-the-fly atomic UHF (no occupation information).

   -------------------------
    Irrep   Nso     Nmo    
   -------------------------
     A        506     506 
   -------------------------
    Total     506     506
   -------------------------

  ==> Iterations <==

                           Total Energy        Delta E     RMS |[F,P]|

   @DF-RHF iter SAD:   -75.48485645074803   -7.54849e+01   0.00000e+00 
   @DF-RHF iter   1:   -75.96495809642768   -4.80102e-01   9.28885e-04 DIIS/ADIIS
   @DF-RHF iter   2:   -76.01763300144108   -5.26749e-02   6.50627e-04 DIIS/ADIIS
   @DF-RHF iter   3:   -76.05139506221929   -3.37621e-02   4.31948e-05 DIIS
   @DF-RHF iter   4:   -76.05177669961975   -3.81637e-04   1.08724e-05 DIIS
   @DF-RHF iter   5:   -76.05180486116529   -2.81615e-05   2.69193e-06 DIIS
   @DF-RHF iter   6:   -76.05180748547083   -2.62431e-06   5.66520e-07 DIIS
   @DF-RHF iter   7:   -76.05180760731591   -1.21845e-07   8.53892e-08 DIIS
   @DF-RHF iter   8:   -76.05180760963201   -2.31610e-09   1.34174e-08 DIIS
   @DF-RHF iter   9:   -76.05180760966984   -3.78293e-11   2.18358e-09 DIIS
  Energy and wave function converged.


  ==> Post-Iterations <==

    Orbital Energies [Eh]
    ---------------------

    Doubly Occupied:                                                      

       1A    -20.574838     2A     -1.360815     3A     -0.680738  
       4A     -0.613258     5A     -0.513861  

    Virtual:                                                              

       6A      0.014245     7A      0.030136     8A      0.038722  
       9A      0.042155    10A      0.054012    11A      0.056538  
      12A      0.063161    13A      0.074368    14A      0.083995  
      15A      0.094130    16A      0.103614    17A      0.118241  
      18A      0.121602    19A      0.136259    20A      0.144278  
      21A      0.148058    22A      0.149369    23A      0.155112  
      24A      0.160006    25A      0.165842    26A      0.171692  
      27A      0.177185    28A      0.179669    29A      0.184310  
      30A      0.195673    31A      0.209780    32A      0.212691  
      33A      0.218679    34A      0.228418    35A      0.237712  
      36A      0.242013    37A      0.257164    38A      0.262272  
      39A      0.265395    40A      0.278906    41A      0.291047  
      42A      0.296652    43A      0.305564    44A      0.310537  
      45A      0.314385    46A      0.326312    47A      0.338065  
      48A      0.341952    49A      0.345880    50A      0.347539  
      51A      0.354071    52A      0.361474    53A      0.367999  
      54A      0.372731    55A      0.382469    56A      0.394448  
      57A      0.398802    58A      0.402168    59A      0.409806  
      60A      0.416941    61A      0.422761    62A      0.432860  
      63A      0.439480    64A      0.442524    65A      0.450380  
      66A      0.456707    67A      0.465100    68A      0.476992  
      69A      0.494741    70A      0.504162    71A      0.516551  
      72A      0.528252    73A      0.537794    74A      0.558072  
      75A      0.575543    76A      0.595276    77A      0.612672  
      78A      0.620673    79A      0.639409    80A      0.669164  
      81A      0.677726    82A      0.685004    83A      0.696721  
      84A      0.704812    85A      0.717413    86A      0.721770  
      87A      0.731831    88A      0.738599    89A      0.748732  
      90A      0.760180    91A      0.765803    92A      0.773147  
      93A      0.778957    94A      0.789993    95A      0.799368  
      96A      0.803855    97A      0.806446    98A      0.811632  
      99A      0.827120   100A      0.834991   101A      0.842808  
     102A      0.846928   103A      0.851567   104A      0.858580  
     105A      0.863549   106A      0.867705   107A      0.872460  
     108A      0.884124   109A      0.887768   110A      0.890181  
     111A      0.896545   112A      0.906609   113A      0.913227  
     114A      0.916461   115A      0.924073   116A      0.933634  
     117A      0.938499   118A      0.942028   119A      0.950563  
     120A      0.952869   121A      0.966614   122A      0.976442  
     123A      0.979783   124A      0.982503   125A      0.985156  
     126A      0.996653   127A      1.004229   128A      1.006532  
     129A      1.020349   130A      1.025729   131A      1.034883  
     132A      1.044033   133A      1.051943   134A      1.060731  
     135A      1.066925   136A      1.073159   137A      1.076103  
     138A      1.081422   139A      1.088141   140A      1.097948  
     141A      1.103639   142A      1.112442   143A      1.121696  
     144A      1.128049   145A      1.151243   146A      1.155489  
     147A      1.159563   148A      1.174455   149A      1.183314  
     150A      1.197028   151A      1.206570   152A      1.215910  
     153A      1.237487   154A      1.251182   155A      1.254638  
     156A      1.265551   157A      1.267668   158A      1.285584  
     159A      1.297213   160A      1.313601   161A      1.327380  
     162A      1.337120   163A      1.344380   164A      1.361000  
     165A      1.371921   166A      1.386911   167A      1.398507  
     168A      1.421112   169A      1.427160   170A      1.441183  
     171A      1.449048   172A      1.478528   173A      1.497341  
     174A      1.507382   175A      1.512525   176A      1.526186  
     177A      1.543810   178A      1.574875   179A      1.576808  
     180A      1.590616   181A      1.607049   182A      1.623735  
     183A      1.637585   184A      1.657563   185A      1.671280  
     186A      1.685772   187A      1.702532   188A      1.717573  
     189A      1.722470   190A      1.737305   191A      1.745566  
     192A      1.758974   193A      1.770942   194A      1.783867  
     195A      1.798709   196A      1.809286   197A      1.815811  
     198A      1.825193   199A      1.838018   200A      1.844159  
     201A      1.865689   202A      1.882732   203A      1.885580  
     204A      1.891636   205A      1.911634   206A      1.929156  
     207A      1.934669   208A      1.958281   209A      1.966268  
     210A      2.000543   211A      2.004718   212A      2.008836  
     213A      2.033361   214A      2.080045   215A      2.094772  
     216A      2.106415   217A      2.133964   218A      2.190306  
     219A      2.218358   220A      2.231369   221A      2.289111  
     222A      2.331102   223A      2.350381   224A      2.432690  
     225A      2.438159   226A      2.462864   227A      2.471403  
     228A      2.476692   229A      2.480803   230A      2.491309  
     231A      2.495828   232A      2.506973   233A      2.510770  
     234A      2.524568   235A      2.531339   236A      2.552487  
     237A      2.560704   238A      2.567345   239A      2.581495  
     240A      2.603923   241A      2.613585   242A      2.621909  
     243A      2.634942   244A      2.650771   245A      2.657763  
     246A      2.671720   247A      2.688322   248A      2.700876  
     249A      2.712067   250A      2.721222   251A      2.738336  
     252A      2.741026   253A      2.757204   254A      2.769634  
     255A      2.782773   256A      2.789385   257A      2.806574  
     258A      2.811672   259A      2.820811   260A      2.833482  
     261A      2.838423   262A      2.868288   263A      2.876136  
     264A      2.930358   265A      2.961549   266A      2.970715  
     267A      2.999095   268A      3.023372   269A      3.047038  
     270A      3.070398   271A      3.087051   272A      3.181298  
     273A      3.201534   274A      3.203793   275A      3.218475  
     276A      3.229506   277A      3.231583   278A      3.239184  
     279A      3.253934   280A      3.261691   281A      3.281524  
     282A      3.303625   283A      3.326718   284A      3.371819  
     285A      3.388932   286A      3.400833   287A      3.411872  
     288A      3.446239   289A      3.486293   290A      3.502276  
     291A      3.530386   292A      3.567558   293A      3.579946  
     294A      3.602640   295A      3.612295   296A      3.618744  
     297A      3.640633   298A      3.647838   299A      3.678543  
     300A      3.699773   301A      3.737999   302A      3.753296  
     303A      3.774535   304A      3.789041   305A      3.817896  
     306A      3.833397   307A      3.920297   308A      3.954320  
     309A      4.000581   310A      4.070299   311A      4.102443  
     312A      4.117469   313A      4.132793   314A      4.154315  
     315A      4.237588   316A      4.251465   317A      4.269472  
     318A      4.291121   319A      4.347398   320A      4.382935  
     321A      4.407549   322A      4.414926   323A      4.420231  
     324A      4.437720   325A      4.442820   326A      4.460444  
     327A      4.476340   328A      4.493764   329A      4.498649  
     330A      4.522485   331A      4.529490   332A      4.540540  
     333A      4.545541   334A      4.584056   335A      4.620992  
     336A      4.624734   337A      4.638685   338A      4.656635  
     339A      4.669712   340A      4.681437   341A      4.700267  
     342A      4.705116   343A      4.738692   344A      4.767956  
     345A      4.772904   346A      4.799393   347A      4.857149  
     348A      4.879048   349A      4.885823   350A      4.900378  
     351A      4.917186   352A      4.937787   353A      4.944389  
     354A      4.966673   355A      4.971493   356A      4.990290  
     357A      5.004749   358A      5.028511   359A      5.050364  
     360A      5.061896   361A      5.080592   362A      5.113645  
     363A      5.119033   364A      5.158814   365A      5.180803  
     366A      5.252303   367A      5.281505   368A      5.294995  
     369A      5.309546   370A      5.375755   371A      5.390447  
     372A      5.532235   373A      5.546187   374A      5.559270  
     375A      5.568520   376A      5.585056   377A      5.593135  
     378A      5.596703   379A      5.625606   380A      5.649619  
     381A      5.666001   382A      5.675781   383A      5.710759  
     384A      5.763030   385A      5.775080   386A      5.794999  
     387A      5.881164   388A      5.896932   389A      5.915426  
     390A      5.949754   391A      6.180001   392A      6.202108  
     393A      6.242422   394A      6.294360   395A      6.424556  
     396A      6.480295   397A      6.507665   398A      6.517970  
     399A      6.535771   400A      6.556948   401A      6.718386  
     402A      6.760032   403A      6.779613   404A      6.791605  
     405A      6.918767   406A      7.088640   407A      7.158557  
     408A      7.163661   409A      7.180836   410A      7.187816  
     411A      7.219861   412A      7.254005   413A      7.337135  
     414A      7.363334   415A      7.486564   416A      7.528346  
     417A      7.654674   418A      7.706605   419A      7.738920  
     420A      7.753800   421A      7.791151   422A      7.814859  
     423A      7.824049   424A      7.831302   425A      7.852034  
     426A      7.908191   427A      8.067052   428A      8.072899  
     429A      8.120869   430A      8.126590   431A      8.160969  
     432A      8.266176   433A      8.271193   434A      8.286974  
     435A      8.308994   436A      8.317280   437A      8.330433  
     438A      8.335428   439A      8.350826   440A      8.797701  
     441A      8.851903   442A      8.854942   443A      8.900752  
     444A      8.934404   445A      8.988732   446A      9.059001  
     447A      9.119601   448A      9.210611   449A      9.714185  
     450A      9.732917   451A      9.740694   452A      9.786264  
     453A      9.867149   454A      9.871729   455A      9.892798  
     456A      9.911890   457A     10.079399   458A     10.097857  
     459A     10.111780   460A     10.137622   461A     10.244846  
     462A     10.273095   463A     10.340345   464A     10.353524  
     465A     10.369605   466A     10.426987   467A     10.493711  
     468A     10.574812   469A     10.650419   470A     10.718923  
     471A     10.829312   472A     11.177969   473A     11.235009  
     474A     11.306562   475A     11.332288   476A     11.700203  
     477A     11.750644   478A     11.799041   479A     11.862785  
     480A     11.907014   481A     12.336877   482A     12.360029  
     483A     12.383805   484A     12.609409   485A     13.260813  
     486A     13.310083   487A     13.328081   488A     13.430576  
     489A     13.470380   490A     13.676687   491A     13.718053  
     492A     13.768928   493A     13.776013   494A     13.982264  
     495A     14.001769   496A     14.014932   497A     14.093582  
     498A     15.169487   499A     15.282213   500A     15.452173  
     501A     16.837775   502A     66.292693   503A     67.011763  
     504A     67.289747   505A     68.415969   506A     75.080163  

    Final Occupation by Irrep:
              A 
    DOCC [     5 ]
    NA   [     5 ]
    NB   [     5 ]

  @DF-RHF Final Energy:   -76.05180760966984

   => Energetics <=

    Nuclear Repulsion Energy =              9.1493213523386938
    One-Electron Energy =                -122.9152367225454867
    Two-Electron Energy =                  37.7141077605369617
    Total Energy =                        -76.0518076096698366

Computation Completed


Properties will be evaluated at   0.000000,   0.000000,   0.000000 [a0]

Properties computed using the SCF density matrix


 Multipole Moments:

 ------------------------------------------------------------------------------------
     Multipole            Electronic (a.u.)      Nuclear  (a.u.)        Total (a.u.)
 ------------------------------------------------------------------------------------

 L = 1.  Multiply by 2.5417464519 to convert [e a0] to [Debye]
 Dipole X            :         18.9230015          -18.3692378            0.5537637
 Dipole Y            :         37.3189796          -36.7328007            0.5861789
 Dipole Z            :         28.7833988          -29.1260218           -0.3426230
 Magnitude           :                                                    0.8761567

 ------------------------------------------------------------------------------------

*** tstop() called on ddmfs1 at Mon Jan 22 18:46:40 2024
Module time:
	user time   =      85.38 seconds =       1.42 minutes
	system time =       3.88 seconds =       0.06 minutes
	total time  =          5 seconds =       0.08 minutes
Total time:
	user time   =      85.38 seconds =       1.42 minutes
	system time =       3.88 seconds =       0.06 minutes
	total time  =          5 seconds =       0.08 minutes

*** tstart() called on ddmfs1
*** at Mon Jan 22 18:46:40 2024


  //>>>>>>>>>>>>>>>>>>>>>>>>>>>>>>>>>>>//
  //               DFMP2               //
  //<<<<<<<<<<<<<<<<<<<<<<<<<<<<<<<<<<<//

   => Loading Basis Set <=

    Name: (AUG-CC-PVTZ AUX)
    Role: RIFIT
    Keyword: DF_BASIS_MP2
    atoms 1                            entry F          line   322 file /ddmfs1b/softs/psi4conda/share/psi4/basis/aug-cc-pvtz-ri.gbs 
    atoms 2, 5, 8, 11, 14              entry O          line   264 file /ddmfs1b/softs/psi4conda/share/psi4/basis/aug-cc-pvtz-ri.gbs 
    atoms 3-4, 6-7, 9-10, 12-13, 15-16 entry H          line    30 file /ddmfs1b/softs/psi4conda/share/psi4/basis/aug-cc-pvtz-ri.gbs 

	 --------------------------------------------------------
	                          DF-MP2                         
	      2nd-Order Density-Fitted Moller-Plesset Theory     
	              RMP2 Wavefunction,  20 Threads             
	                                                         
	        Rob Parrish, Justin Turney, Andy Simmonett,      
	           Ed Hohenstein, and C. David Sherrill          
	 --------------------------------------------------------

   => Auxiliary Basis Set <=

  Basis Set: (AUG-CC-PVTZ AUX)
    Blend: AUG-CC-PVTZ-RI
    Number of shells: 308
    Number of basis functions: 1096
    Number of Cartesian functions: 1366
    Spherical Harmonics?: true
    Max angular momentum: 4

	 --------------------------------------------------------
	                 NBF =   506, NAUX =  1096
	 --------------------------------------------------------
	   CLASS    FOCC     OCC    AOCC    AVIR     VIR    FVIR
	   PAIRS       0       5       5     501     501       0
	 --------------------------------------------------------

	-----------------------------------------------------------
	 ==================> DF-MP2 Energies <==================== 
	-----------------------------------------------------------
	 Reference Energy          =     -76.0518076096698366 [Eh]
	 Singles Energy            =      -0.0000000000000000 [Eh]
	 Same-Spin Energy          =      -0.0691480927702917 [Eh]
	 Opposite-Spin Energy      =      -0.2177375972572985 [Eh]
	 Correlation Energy        =      -0.2868856900275901 [Eh]
	 Total Energy              =     -76.3386932996974252 [Eh]
	-----------------------------------------------------------
	 ================> DF-SCS-MP2 Energies <================== 
	-----------------------------------------------------------
	 SCS Same-Spin Scale       =       0.3333333333333333 [-]
	 SCS Opposite-Spin Scale   =       1.2000000000000000 [-]
	 SCS Same-Spin Energy      =      -0.0230493642567639 [Eh]
	 SCS Opposite-Spin Energy  =      -0.2612851167087581 [Eh]
	 SCS Correlation Energy    =      -0.2843344809655221 [Eh]
	 SCS Total Energy          =     -76.3361420906353629 [Eh]
	-----------------------------------------------------------


*** tstop() called on ddmfs1 at Mon Jan 22 18:46:44 2024
Module time:
	user time   =      24.26 seconds =       0.40 minutes
	system time =       1.30 seconds =       0.02 minutes
	total time  =          4 seconds =       0.07 minutes
Total time:
	user time   =     109.66 seconds =       1.83 minutes
	system time =       5.18 seconds =       0.09 minutes
	total time  =          9 seconds =       0.15 minutes

    Psi4 stopped on: Monday, 22 January 2024 06:46PM
    Psi4 wall time for execution: 0:00:08.92

*** Psi4 exiting successfully. Buy a developer a beer!
