
    -----------------------------------------------------------------------
          Psi4: An Open-Source Ab Initio Electronic Structure Package
                               Psi4 1.8.2 release

                         Git: Rev {} zzzzzzz 


    D. G. A. Smith, L. A. Burns, A. C. Simmonett, R. M. Parrish,
    M. C. Schieber, R. Galvelis, P. Kraus, H. Kruse, R. Di Remigio,
    A. Alenaizan, A. M. James, S. Lehtola, J. P. Misiewicz, M. Scheurer,
    R. A. Shaw, J. B. Schriber, Y. Xie, Z. L. Glick, D. A. Sirianni,
    J. S. O'Brien, J. M. Waldrop, A. Kumar, E. G. Hohenstein,
    B. P. Pritchard, B. R. Brooks, H. F. Schaefer III, A. Yu. Sokolov,
    K. Patkowski, A. E. DePrince III, U. Bozkaya, R. A. King,
    F. A. Evangelista, J. M. Turney, T. D. Crawford, C. D. Sherrill,
    J. Chem. Phys. 152(18) 184108 (2020). https://doi.org/10.1063/5.0006002

                            Additional Code Authors
    E. T. Seidl, C. L. Janssen, E. F. Valeev, M. L. Leininger,
    J. F. Gonthier, R. M. Richard, H. R. McAlexander, M. Saitow, X. Wang,
    P. Verma, M. H. Lechner, A. Jiang, S. Behnle, A. G. Heide,
    M. F. Herbst, and D. L. Poole

             Previous Authors, Complete List of Code Contributors,
                       and Citations for Specific Modules
    https://github.com/psi4/psi4/blob/master/codemeta.json
    https://github.com/psi4/psi4/graphs/contributors
    http://psicode.org/psi4manual/master/introduction.html#citing-psifour

    -----------------------------------------------------------------------


    Psi4 started on: Monday, 22 January 2024 06:00PM

    Process ID: 87714
    Host:       ddmfs1
    PSIDATADIR: /ddmfs1b/softs/psi4conda/share/psi4
    Memory:     500.0 MiB
    Threads:    20
    
  ==> Input File <==

--------------------------------------------------------------------------
MEMORY 60 GB

molecule dimer {
-1 1
F          0.000000     0.000000     0.000000
O         -1.040126     1.780657     2.166816
H         -0.541147     1.178286     1.649910
H         -1.724440     1.333132     2.698770
O         -0.523250    -1.125202    -2.408440
H         -0.564996    -0.798878    -1.494910
H         -0.402714    -0.362971    -3.050029
O          2.079503    -1.735904    -1.231855
H          2.655438    -2.096123    -0.576863
H          1.401799    -1.195079    -0.875190
O          1.091125     2.218432    -1.098981
H          0.562088     1.505052    -0.640283
H          0.885587     2.085152    -2.049570
O         -0.959463    -2.533583     0.907767
H         -1.720276    -2.363137     1.512543
H         -0.469011    -1.671916     0.866917
O         -2.444628     1.453668    -0.702895
H         -1.752241     0.854757    -0.578124
H         -2.784304     1.603587     0.183625

units ang
no_reorient
no_com
symmetry c1
}

set {
basis        aug-cc-pVTZ
scf_type     df
}

energy("mp2")
--------------------------------------------------------------------------

  Memory set to  55.879 GiB by Python driver.

Scratch directory: /ddmfs1a/scratch/
   => Libint2 <=

    Primary   basis highest AM E, G, H:  5, 4, 3
    Auxiliary basis highest AM E, G, H:  6, 5, 4
    Onebody   basis highest AM E, G, H:  6, 5, 4
    Solid Harmonics ordering:            gaussian

*** tstart() called on ddmfs1
*** at Mon Jan 22 18:00:59 2024

   => Loading Basis Set <=

    Name: AUG-CC-PVTZ
    Role: ORBITAL
    Keyword: BASIS
    atoms 1                                   entry F          line   377 file /ddmfs1b/softs/psi4conda/share/psi4/basis/aug-cc-pvtz.gbs 
    atoms 2, 5, 8, 11, 14, 17                 entry O          line   331 file /ddmfs1b/softs/psi4conda/share/psi4/basis/aug-cc-pvtz.gbs 
    atoms 3-4, 6-7, 9-10, 12-13, 15-16, 18-19 entry H          line    40 file /ddmfs1b/softs/psi4conda/share/psi4/basis/aug-cc-pvtz.gbs 


         ---------------------------------------------------------
                                   SCF
               by Justin Turney, Rob Parrish, Andy Simmonett
                          and Daniel G. A. Smith
                              RHF Reference
                       20 Threads,  57220 MiB Core
         ---------------------------------------------------------

  ==> Geometry <==

    Molecular point group: c1
    Full point group: C1

    Geometry (in Angstrom), charge = -1, multiplicity = 1:

       Center              X                  Y                   Z               Mass       
    ------------   -----------------  -----------------  -----------------  -----------------
         F            0.000000000000     0.000000000000     0.000000000000    18.998403162730
         O           -1.040126000000     1.780657000000     2.166816000000    15.994914619570
         H           -0.541147000000     1.178286000000     1.649910000000     1.007825032230
         H           -1.724440000000     1.333132000000     2.698770000000     1.007825032230
         O           -0.523250000000    -1.125202000000    -2.408440000000    15.994914619570
         H           -0.564996000000    -0.798878000000    -1.494910000000     1.007825032230
         H           -0.402714000000    -0.362971000000    -3.050029000000     1.007825032230
         O            2.079503000000    -1.735904000000    -1.231855000000    15.994914619570
         H            2.655438000000    -2.096123000000    -0.576863000000     1.007825032230
         H            1.401799000000    -1.195079000000    -0.875190000000     1.007825032230
         O            1.091125000000     2.218432000000    -1.098981000000    15.994914619570
         H            0.562088000000     1.505052000000    -0.640283000000     1.007825032230
         H            0.885587000000     2.085152000000    -2.049570000000     1.007825032230
         O           -0.959463000000    -2.533583000000     0.907767000000    15.994914619570
         H           -1.720276000000    -2.363137000000     1.512543000000     1.007825032230
         H           -0.469011000000    -1.671916000000     0.866917000000     1.007825032230
         O           -2.444628000000     1.453668000000    -0.702895000000    15.994914619570
         H           -1.752241000000     0.854757000000    -0.578124000000     1.007825032230
         H           -2.784304000000     1.603587000000     0.183625000000     1.007825032230

  Running in c1 symmetry.

  Rotational constants: A =      0.03769  B =      0.02777  C =      0.02427 [cm^-1]
  Rotational constants: A =   1129.80474  B =    832.62129  C =    727.74295 [MHz]
  Nuclear repulsion =  355.655226478156749

  Charge       = -1
  Multiplicity = 1
  Electrons    = 70
  Nalpha       = 35
  Nbeta        = 35

  ==> Algorithm <==

  SCF Algorithm Type is DF.
  DIIS enabled.
  MOM disabled.
  Fractional occupation disabled.
  Guess Type is SAD.
  Energy threshold   = 1.00e-08
  Density threshold  = 1.00e-08
  Integral threshold = 1.00e-12

  ==> Primary Basis <==

  Basis Set: AUG-CC-PVTZ
    Blend: AUG-CC-PVTZ
    Number of shells: 206
    Number of basis functions: 598
    Number of Cartesian functions: 685
    Spherical Harmonics?: true
    Max angular momentum: 3

   => Loading Basis Set <=

    Name: (AUG-CC-PVTZ AUX)
    Role: JKFIT
    Keyword: DF_BASIS_SCF
    atoms 1                                   entry F          line   348 file /ddmfs1b/softs/psi4conda/share/psi4/basis/aug-cc-pvtz-jkfit.gbs 
    atoms 2, 5, 8, 11, 14, 17                 entry O          line   286 file /ddmfs1b/softs/psi4conda/share/psi4/basis/aug-cc-pvtz-jkfit.gbs 
    atoms 3-4, 6-7, 9-10, 12-13, 15-16, 18-19 entry H          line    70 file /ddmfs1b/softs/psi4conda/share/psi4/basis/aug-cc-pvtz-jkfit.gbs 

  ==> Integral Setup <==

  DFHelper Memory: AOs need 3.189 GiB; user supplied 41.910 GiB. 
  Using in-core AOs.

  ==> MemDFJK: Density-Fitted J/K Matrices <==

    J tasked:                   Yes
    K tasked:                   Yes
    wK tasked:                   No
    OpenMP threads:              20
    Memory [MiB]:             42915
    Algorithm:                 Core
    Schwarz Cutoff:           1E-12
    Mask sparsity (%):      10.5099
    Fitting Condition:        1E-10

   => Auxiliary Basis Set <=

  Basis Set: (AUG-CC-PVTZ AUX)
    Blend: AUG-CC-PVTZ-JKFIT
    Number of shells: 378
    Number of basis functions: 1280
    Number of Cartesian functions: 1577
    Spherical Harmonics?: true
    Max angular momentum: 4

  Minimum eigenvalue in the overlap matrix is 2.3483787321E-05.
  Reciprocal condition number of the overlap matrix is 1.4970628200E-06.
    Using symmetric orthogonalization.

  ==> Pre-Iterations <==

  SCF Guess: Superposition of Atomic Densities via on-the-fly atomic UHF (no occupation information).

   -------------------------
    Irrep   Nso     Nmo    
   -------------------------
     A        598     598 
   -------------------------
    Total     598     598
   -------------------------

  ==> Iterations <==

                           Total Energy        Delta E     RMS |[F,P]|

   @DF-RHF iter SAD:  -552.15937215373503   -5.52159e+02   0.00000e+00 
   @DF-RHF iter   1:  -555.38001022272692   -3.22064e+00   1.98806e-03 ADIIS/DIIS
   @DF-RHF iter   2:  -555.71656691941905   -3.36557e-01   1.33987e-03 ADIIS/DIIS
   @DF-RHF iter   3:  -555.91016239661599   -1.93595e-01   9.07977e-05 DIIS
   @DF-RHF iter   4:  -555.91264699172223   -2.48460e-03   2.77408e-05 DIIS
   @DF-RHF iter   5:  -555.91280651871023   -1.59527e-04   1.17133e-05 DIIS
   @DF-RHF iter   6:  -555.91283472533507   -2.82066e-05   2.97173e-06 DIIS
   @DF-RHF iter   7:  -555.91283814609915   -3.42076e-06   8.14596e-07 DIIS
   @DF-RHF iter   8:  -555.91283839594803   -2.49849e-07   3.64841e-07 DIIS
   @DF-RHF iter   9:  -555.91283842445364   -2.85056e-08   7.05763e-08 DIIS
   @DF-RHF iter  10:  -555.91283842667690   -2.22326e-09   1.33485e-08 DIIS
   @DF-RHF iter  11:  -555.91283842675614   -7.92397e-11   4.94559e-09 DIIS
  Energy and wave function converged.


  ==> Post-Iterations <==

    Orbital Energies [Eh]
    ---------------------

    Doubly Occupied:                                                      

       1A    -26.012783     2A    -20.436179     3A    -20.425597  
       4A    -20.410753     5A    -20.395307     6A    -20.395217  
       7A    -20.395201     8A     -1.281066     9A     -1.223729  
      10A     -1.210427    11A     -1.193497    12A     -1.193206  
      13A     -1.165910    14A     -1.165084    15A     -0.608306  
      16A     -0.584851    17A     -0.577429    18A     -0.561627  
      19A     -0.547573    20A     -0.533251    21A     -0.451057  
      22A     -0.445468    23A     -0.441046    24A     -0.423985  
      25A     -0.416580    26A     -0.409492    27A     -0.384763  
      28A     -0.371933    29A     -0.368256    30A     -0.361785  
      31A     -0.358895    32A     -0.356138    33A     -0.347429  
      34A     -0.334265    35A     -0.333004  

    Virtual:                                                              

      36A      0.109064    37A      0.124288    38A      0.131026  
      39A      0.133368    40A      0.139481    41A      0.152432  
      42A      0.168637    43A      0.176703    44A      0.186118  
      45A      0.190302    46A      0.195853    47A      0.204360  
      48A      0.230574    49A      0.248576    50A      0.258237  
      51A      0.264684    52A      0.269294    53A      0.273503  
      54A      0.280314    55A      0.288668    56A      0.296389  
      57A      0.301475    58A      0.310055    59A      0.316320  
      60A      0.319821    61A      0.324765    62A      0.333457  
      63A      0.341787    64A      0.344221    65A      0.351626  
      66A      0.353308    67A      0.358552    68A      0.365953  
      69A      0.371998    70A      0.373007    71A      0.382721  
      72A      0.387462    73A      0.398083    74A      0.399472  
      75A      0.410407    76A      0.415393    77A      0.417762  
      78A      0.428610    79A      0.441195    80A      0.455734  
      81A      0.467322    82A      0.474776    83A      0.476582  
      84A      0.481815    85A      0.491529    86A      0.496691  
      87A      0.502120    88A      0.504677    89A      0.513339  
      90A      0.519988    91A      0.525571    92A      0.538255  
      93A      0.542048    94A      0.549747    95A      0.553117  
      96A      0.560593    97A      0.563531    98A      0.576764  
      99A      0.581907   100A      0.585286   101A      0.590976  
     102A      0.601192   103A      0.605694   104A      0.607364  
     105A      0.622140   106A      0.632779   107A      0.637476  
     108A      0.647969   109A      0.650030   110A      0.666408  
     111A      0.686430   112A      0.691379   113A      0.699412  
     114A      0.708909   115A      0.713873   116A      0.730131  
     117A      0.737257   118A      0.747053   119A      0.753486  
     120A      0.771375   121A      0.786172   122A      0.799771  
     123A      0.802330   124A      0.811837   125A      0.823175  
     126A      0.826800   127A      0.839847   128A      0.854169  
     129A      0.860887   130A      0.869462   131A      0.871313  
     132A      0.876027   133A      0.883391   134A      0.888035  
     135A      0.895941   136A      0.898053   137A      0.902280  
     138A      0.913581   139A      0.921165   140A      0.922738  
     141A      0.929108   142A      0.938089   143A      0.947136  
     144A      0.949960   145A      0.961851   146A      0.976048  
     147A      0.980083   148A      0.990418   149A      0.996209  
     150A      1.002394   151A      1.010190   152A      1.012757  
     153A      1.025071   154A      1.029892   155A      1.037358  
     156A      1.044664   157A      1.047921   158A      1.056523  
     159A      1.063097   160A      1.065014   161A      1.069928  
     162A      1.080102   163A      1.090315   164A      1.098446  
     165A      1.103553   166A      1.107716   167A      1.128264  
     168A      1.132417   169A      1.133925   170A      1.135898  
     171A      1.147329   172A      1.150097   173A      1.158693  
     174A      1.163582   175A      1.164536   176A      1.169724  
     177A      1.173284   178A      1.182418   179A      1.188886  
     180A      1.197310   181A      1.206484   182A      1.216871  
     183A      1.226050   184A      1.231204   185A      1.235940  
     186A      1.240573   187A      1.252098   188A      1.257836  
     189A      1.265624   190A      1.274313   191A      1.280103  
     192A      1.283542   193A      1.292862   194A      1.301890  
     195A      1.313452   196A      1.322158   197A      1.328234  
     198A      1.332608   199A      1.352244   200A      1.355903  
     201A      1.361723   202A      1.366501   203A      1.370325  
     204A      1.374990   205A      1.389409   206A      1.400134  
     207A      1.415424   208A      1.429987   209A      1.433128  
     210A      1.442451   211A      1.449873   212A      1.461865  
     213A      1.468307   214A      1.472230   215A      1.476697  
     216A      1.488702   217A      1.504792   218A      1.513083  
     219A      1.516548   220A      1.525551   221A      1.539677  
     222A      1.545099   223A      1.558378   224A      1.568679  
     225A      1.576026   226A      1.582660   227A      1.606489  
     228A      1.616202   229A      1.624348   230A      1.639566  
     231A      1.657126   232A      1.658763   233A      1.665876  
     234A      1.685169   235A      1.687578   236A      1.694053  
     237A      1.698607   238A      1.726047   239A      1.728129  
     240A      1.747520   241A      1.753793   242A      1.767592  
     243A      1.774433   244A      1.785006   245A      1.797133  
     246A      1.800598   247A      1.802675   248A      1.818543  
     249A      1.835791   250A      1.848326   251A      1.850971  
     252A      1.863541   253A      1.876350   254A      1.899904  
     255A      1.911566   256A      1.921989   257A      1.927298  
     258A      1.942828   259A      1.954945   260A      1.968928  
     261A      1.970622   262A      1.990033   263A      2.000501  
     264A      2.016516   265A      2.027415   266A      2.054664  
     267A      2.057668   268A      2.078912   269A      2.096454  
     270A      2.098052   271A      2.115186   272A      2.131987  
     273A      2.148622   274A      2.158463   275A      2.177536  
     276A      2.195685   277A      2.211457   278A      2.224506  
     279A      2.248513   280A      2.277678   281A      2.279298  
     282A      2.305041   283A      2.320587   284A      2.345393  
     285A      2.365045   286A      2.444905   287A      2.460104  
     288A      2.469088   289A      2.482471   290A      2.488247  
     291A      2.505191   292A      2.513473   293A      2.534046  
     294A      2.541492   295A      2.550512   296A      2.562022  
     297A      2.577587   298A      2.580796   299A      2.594935  
     300A      2.609588   301A      2.624395   302A      2.626940  
     303A      2.631848   304A      2.641049   305A      2.649086  
     306A      2.651332   307A      2.672567   308A      2.673666  
     309A      2.692714   310A      2.697845   311A      2.703341  
     312A      2.713841   313A      2.717780   314A      2.727512  
     315A      2.732924   316A      2.750373   317A      2.765680  
     318A      2.768256   319A      2.774911   320A      2.792651  
     321A      2.798605   322A      2.810316   323A      2.826550  
     324A      2.839234   325A      2.842272   326A      2.871897  
     327A      2.876211   328A      2.888645   329A      2.894153  
     330A      2.904904   331A      2.909183   332A      2.933854  
     333A      2.938491   334A      2.946406   335A      2.952538  
     336A      2.960643   337A      2.961667   338A      2.977662  
     339A      2.984582   340A      2.988604   341A      2.999254  
     342A      3.019389   343A      3.030362   344A      3.034946  
     345A      3.068747   346A      3.074873   347A      3.087663  
     348A      3.095455   349A      3.100298   350A      3.122778  
     351A      3.138878   352A      3.152168   353A      3.168126  
     354A      3.181410   355A      3.209432   356A      3.222984  
     357A      3.240364   358A      3.249220   359A      3.265401  
     360A      3.292960   361A      3.300806   362A      3.310949  
     363A      3.335219   364A      3.343846   365A      3.381703  
     366A      3.510813   367A      3.549638   368A      3.592603  
     369A      3.683802   370A      3.689659   371A      3.746779  
     372A      3.765226   373A      3.793940   374A      3.807494  
     375A      3.850918   376A      3.901077   377A      3.922755  
     378A      3.935021   379A      3.971438   380A      3.999642  
     381A      4.012045   382A      4.034577   383A      4.087878  
     384A      4.133581   385A      4.189733   386A      4.212753  
     387A      4.225256   388A      4.238354   389A      4.258024  
     390A      4.268096   391A      4.281020   392A      4.310902  
     393A      4.315907   394A      4.323809   395A      4.358029  
     396A      4.376724   397A      4.404147   398A      4.409838  
     399A      4.428458   400A      4.446770   401A      4.461876  
     402A      4.462805   403A      4.478355   404A      4.481938  
     405A      4.485850   406A      4.493498   407A      4.498442  
     408A      4.501996   409A      4.512365   410A      4.529807  
     411A      4.549067   412A      4.556694   413A      4.562579  
     414A      4.568168   415A      4.569867   416A      4.584666  
     417A      4.593303   418A      4.606714   419A      4.609072  
     420A      4.617543   421A      4.633906   422A      4.641685  
     423A      4.657918   424A      4.662094   425A      4.664921  
     426A      4.677091   427A      4.689455   428A      4.695840  
     429A      4.701405   430A      4.714961   431A      4.717830  
     432A      4.746883   433A      4.750196   434A      4.754331  
     435A      4.771519   436A      4.783377   437A      4.797273  
     438A      4.816195   439A      4.843734   440A      4.863474  
     441A      4.892159   442A      4.905590   443A      4.926221  
     444A      4.951407   445A      4.960649   446A      4.973645  
     447A      4.981274   448A      4.995347   449A      5.049260  
     450A      5.054776   451A      5.088769   452A      5.108778  
     453A      5.191625   454A      5.204213   455A      5.205137  
     456A      5.241029   457A      5.270694   458A      5.297508  
     459A      5.306071   460A      5.332537   461A      5.345240  
     462A      5.354346   463A      5.382527   464A      5.390485  
     465A      5.400351   466A      5.424969   467A      5.459078  
     468A      5.474580   469A      5.488063   470A      5.499946  
     471A      5.529854   472A      5.543907   473A      5.566040  
     474A      5.587654   475A      5.591242   476A      5.619485  
     477A      5.640108   478A      5.654885   479A      5.674289  
     480A      5.706301   481A      5.708571   482A      5.727364  
     483A      5.741524   484A      5.792156   485A      5.800522  
     486A      5.827375   487A      5.881881   488A      5.941197  
     489A      5.996262   490A      6.032736   491A      6.089981  
     492A      6.144147   493A      6.308584   494A      6.357954  
     495A      6.377116   496A      6.408761   497A      6.429352  
     498A      6.508616   499A      6.536065   500A      6.575292  
     501A      6.729352   502A      6.741826   503A      6.754572  
     504A      6.757240   505A      6.777327   506A      6.787900  
     507A      6.828428   508A      6.922037   509A      6.955451  
     510A      6.987906   511A      6.999911   512A      7.029980  
     513A      7.060804   514A      7.070201   515A      7.093568  
     516A      7.112803   517A      7.132790   518A      7.158554  
     519A      7.221449   520A      7.304188   521A      7.330970  
     522A      7.346174   523A      7.371937   524A      7.377733  
     525A      7.407741   526A      7.422233   527A      7.431909  
     528A      7.452776   529A      7.461453   530A      7.471707  
     531A      7.476427   532A      7.489776   533A      7.503338  
     534A      7.505893   535A      7.517971   536A      7.525166  
     537A      7.538287   538A      7.557493   539A      7.564869  
     540A      7.577390   541A      7.588535   542A      7.593545  
     543A      7.608083   544A      7.616282   545A      7.628597  
     546A      7.634424   547A      7.661269   548A      7.672055  
     549A      7.696462   550A      7.713294   551A      7.728036  
     552A      7.743997   553A      7.769576   554A      7.777945  
     555A      7.801389   556A      7.863619   557A      7.939797  
     558A      7.953755   559A      7.972016   560A      8.025795  
     561A      8.065109   562A      8.085643   563A      8.111499  
     564A      8.120687   565A      8.141447   566A      8.164119  
     567A      8.198397   568A      8.205007   569A      8.224575  
     570A      8.247176   571A      8.300653   572A      8.317261  
     573A      8.376475   574A      8.836561   575A      8.871391  
     576A      8.906045   577A      8.938151   578A      9.054507  
     579A      9.099805   580A      9.319069   581A      9.402109  
     582A      9.499547   583A      9.591706   584A      9.634075  
     585A      9.801801   586A      9.972045   587A     10.002463  
     588A     10.065456   589A     10.129702   590A     10.238887  
     591A     10.398529   592A     14.978770   593A     15.742104  
     594A     16.617022   595A     16.892794   596A     17.204704  
     597A     17.961293   598A     18.228546  

    Final Occupation by Irrep:
              A 
    DOCC [    35 ]
    NA   [    35 ]
    NB   [    35 ]

  @DF-RHF Final Energy:  -555.91283842675614

   => Energetics <=

    Nuclear Repulsion Energy =            355.6552264781567487
    One-Electron Energy =               -1490.8939390103907954
    Two-Electron Energy =                 579.3258741054779648
    Total Energy =                       -555.9128384267561387

Computation Completed


Properties will be evaluated at   0.000000,   0.000000,   0.000000 [a0]

Properties computed using the SCF density matrix


 Multipole Moments:

 ------------------------------------------------------------------------------------
     Multipole            Electronic (a.u.)      Nuclear  (a.u.)        Total (a.u.)
 ------------------------------------------------------------------------------------

 L = 1.  Multiply by 2.5417464519 to convert [e a0] to [Debye]
 Dipole X            :         35.2110167          -35.5815190           -0.3705023
 Dipole Y            :         -1.1202306            1.0136604           -0.1065702
 Dipole Z            :         42.1403344          -40.2396543            1.9006801
 Magnitude           :                                                    1.9393850

 ------------------------------------------------------------------------------------

*** tstop() called on ddmfs1 at Mon Jan 22 18:01:11 2024
Module time:
	user time   =     195.38 seconds =       3.26 minutes
	system time =       9.90 seconds =       0.17 minutes
	total time  =         12 seconds =       0.20 minutes
Total time:
	user time   =     195.38 seconds =       3.26 minutes
	system time =       9.90 seconds =       0.17 minutes
	total time  =         12 seconds =       0.20 minutes

*** tstart() called on ddmfs1
*** at Mon Jan 22 18:01:11 2024


  //>>>>>>>>>>>>>>>>>>>>>>>>>>>>>>>>>>>//
  //               DFMP2               //
  //<<<<<<<<<<<<<<<<<<<<<<<<<<<<<<<<<<<//

   => Loading Basis Set <=

    Name: (AUG-CC-PVTZ AUX)
    Role: RIFIT
    Keyword: DF_BASIS_MP2
    atoms 1                                   entry F          line   322 file /ddmfs1b/softs/psi4conda/share/psi4/basis/aug-cc-pvtz-ri.gbs 
    atoms 2, 5, 8, 11, 14, 17                 entry O          line   264 file /ddmfs1b/softs/psi4conda/share/psi4/basis/aug-cc-pvtz-ri.gbs 
    atoms 3-4, 6-7, 9-10, 12-13, 15-16, 18-19 entry H          line    30 file /ddmfs1b/softs/psi4conda/share/psi4/basis/aug-cc-pvtz-ri.gbs 

	 --------------------------------------------------------
	                          DF-MP2                         
	      2nd-Order Density-Fitted Moller-Plesset Theory     
	              RMP2 Wavefunction,  20 Threads             
	                                                         
	        Rob Parrish, Justin Turney, Andy Simmonett,      
	           Ed Hohenstein, and C. David Sherrill          
	 --------------------------------------------------------

   => Auxiliary Basis Set <=

  Basis Set: (AUG-CC-PVTZ AUX)
    Blend: AUG-CC-PVTZ-RI
    Number of shells: 364
    Number of basis functions: 1294
    Number of Cartesian functions: 1612
    Spherical Harmonics?: true
    Max angular momentum: 4

	 --------------------------------------------------------
	                 NBF =   598, NAUX =  1294
	 --------------------------------------------------------
	   CLASS    FOCC     OCC    AOCC    AVIR     VIR    FVIR
	   PAIRS       0      35      35     563     563       0
	 --------------------------------------------------------

	-----------------------------------------------------------
	 ==================> DF-MP2 Energies <==================== 
	-----------------------------------------------------------
	 Reference Energy          =    -555.9128384267561387 [Eh]
	 Singles Energy            =      -0.0000000000000000 [Eh]
	 Same-Spin Energy          =      -0.5028648779050670 [Eh]
	 Opposite-Spin Energy      =      -1.5338698212067849 [Eh]
	 Correlation Energy        =      -2.0367346991118520 [Eh]
	 Total Energy              =    -557.9495731258680280 [Eh]
	-----------------------------------------------------------
	 ================> DF-SCS-MP2 Energies <================== 
	-----------------------------------------------------------
	 SCS Same-Spin Scale       =       0.3333333333333333 [-]
	 SCS Opposite-Spin Scale   =       1.2000000000000000 [-]
	 SCS Same-Spin Energy      =      -0.1676216259683556 [Eh]
	 SCS Opposite-Spin Energy  =      -1.8406437854481419 [Eh]
	 SCS Correlation Energy    =      -2.0082654114164975 [Eh]
	 SCS Total Energy          =    -557.9211038381725984 [Eh]
	-----------------------------------------------------------


*** tstop() called on ddmfs1 at Mon Jan 22 18:01:18 2024
Module time:
	user time   =      65.54 seconds =       1.09 minutes
	system time =       2.51 seconds =       0.04 minutes
	total time  =          7 seconds =       0.12 minutes
Total time:
	user time   =     260.94 seconds =       4.35 minutes
	system time =      12.41 seconds =       0.21 minutes
	total time  =         19 seconds =       0.32 minutes

    Psi4 stopped on: Monday, 22 January 2024 06:01PM
    Psi4 wall time for execution: 0:00:19.01

*** Psi4 exiting successfully. Buy a developer a beer!
