
    -----------------------------------------------------------------------
          Psi4: An Open-Source Ab Initio Electronic Structure Package
                               Psi4 1.8.2 release

                         Git: Rev {} zzzzzzz 


    D. G. A. Smith, L. A. Burns, A. C. Simmonett, R. M. Parrish,
    M. C. Schieber, R. Galvelis, P. Kraus, H. Kruse, R. Di Remigio,
    A. Alenaizan, A. M. James, S. Lehtola, J. P. Misiewicz, M. Scheurer,
    R. A. Shaw, J. B. Schriber, Y. Xie, Z. L. Glick, D. A. Sirianni,
    J. S. O'Brien, J. M. Waldrop, A. Kumar, E. G. Hohenstein,
    B. P. Pritchard, B. R. Brooks, H. F. Schaefer III, A. Yu. Sokolov,
    K. Patkowski, A. E. DePrince III, U. Bozkaya, R. A. King,
    F. A. Evangelista, J. M. Turney, T. D. Crawford, C. D. Sherrill,
    J. Chem. Phys. 152(18) 184108 (2020). https://doi.org/10.1063/5.0006002

                            Additional Code Authors
    E. T. Seidl, C. L. Janssen, E. F. Valeev, M. L. Leininger,
    J. F. Gonthier, R. M. Richard, H. R. McAlexander, M. Saitow, X. Wang,
    P. Verma, M. H. Lechner, A. Jiang, S. Behnle, A. G. Heide,
    M. F. Herbst, and D. L. Poole

             Previous Authors, Complete List of Code Contributors,
                       and Citations for Specific Modules
    https://github.com/psi4/psi4/blob/master/codemeta.json
    https://github.com/psi4/psi4/graphs/contributors
    http://psicode.org/psi4manual/master/introduction.html#citing-psifour

    -----------------------------------------------------------------------


    Psi4 started on: Monday, 22 January 2024 06:27PM

    Process ID: 90462
    Host:       ddmfs1
    PSIDATADIR: /ddmfs1b/softs/psi4conda/share/psi4
    Memory:     500.0 MiB
    Threads:    20
    
  ==> Input File <==

--------------------------------------------------------------------------
MEMORY 60 GB

molecule dimer {
0 1
Gh(F)      0.000000     0.000000     0.000000
Gh(O)     -0.207769    -2.327129     1.239569
Gh(H)      0.037713    -3.149829     0.838322
Gh(H)     -0.081193    -1.636015     0.550989
Gh(O)     -2.599898    -0.694839    -0.679029
Gh(H)     -2.709680    -0.858637    -1.571457
Gh(H)     -1.656530    -0.607954    -0.409434
Gh(O)      1.812665     1.083834     2.219277
Gh(H)      1.153673     0.568273     1.755293
Gh(H)      1.370089     1.213940     3.097476
O          2.512982    -1.496631    -0.619434
H          1.794318    -0.888816    -0.358592
H          2.943913    -1.115172    -1.446926
Gh(O)     -0.703861     1.904262    -1.805602
Gh(H)     -1.312640     2.645681    -1.719120
Gh(H)     -0.646566     1.565853    -0.948304

units ang
no_reorient
no_com
symmetry c1
}

set {
basis        aug-cc-pVTZ
scf_type     df
}

energy("mp2")
--------------------------------------------------------------------------

  Memory set to  55.879 GiB by Python driver.

Scratch directory: /ddmfs1a/scratch/
   => Libint2 <=

    Primary   basis highest AM E, G, H:  5, 4, 3
    Auxiliary basis highest AM E, G, H:  6, 5, 4
    Onebody   basis highest AM E, G, H:  6, 5, 4
    Solid Harmonics ordering:            gaussian

*** tstart() called on ddmfs1
*** at Mon Jan 22 18:27:03 2024

   => Loading Basis Set <=

    Name: AUG-CC-PVTZ
    Role: ORBITAL
    Keyword: BASIS
    atoms 1                            entry F          line   377 file /ddmfs1b/softs/psi4conda/share/psi4/basis/aug-cc-pvtz.gbs 
    atoms 2, 5, 8, 11, 14              entry O          line   331 file /ddmfs1b/softs/psi4conda/share/psi4/basis/aug-cc-pvtz.gbs 
    atoms 3-4, 6-7, 9-10, 12-13, 15-16 entry H          line    40 file /ddmfs1b/softs/psi4conda/share/psi4/basis/aug-cc-pvtz.gbs 


         ---------------------------------------------------------
                                   SCF
               by Justin Turney, Rob Parrish, Andy Simmonett
                          and Daniel G. A. Smith
                              RHF Reference
                       20 Threads,  57220 MiB Core
         ---------------------------------------------------------

  ==> Geometry <==

    Molecular point group: c1
    Full point group: C1

    Geometry (in Angstrom), charge = 0, multiplicity = 1:

       Center              X                  Y                   Z               Mass       
    ------------   -----------------  -----------------  -----------------  -----------------
      Gh(F)           0.000000000000     0.000000000000     0.000000000000    18.998403162730
      Gh(O)          -0.207769000000    -2.327129000000     1.239569000000    15.994914619570
      Gh(H)           0.037713000000    -3.149829000000     0.838322000000     1.007825032230
      Gh(H)          -0.081193000000    -1.636015000000     0.550989000000     1.007825032230
      Gh(O)          -2.599898000000    -0.694839000000    -0.679029000000    15.994914619570
      Gh(H)          -2.709680000000    -0.858637000000    -1.571457000000     1.007825032230
      Gh(H)          -1.656530000000    -0.607954000000    -0.409434000000     1.007825032230
      Gh(O)           1.812665000000     1.083834000000     2.219277000000    15.994914619570
      Gh(H)           1.153673000000     0.568273000000     1.755293000000     1.007825032230
      Gh(H)           1.370089000000     1.213940000000     3.097476000000     1.007825032230
         O            2.512982000000    -1.496631000000    -0.619434000000    15.994914619570
         H            1.794318000000    -0.888816000000    -0.358592000000     1.007825032230
         H            2.943913000000    -1.115172000000    -1.446926000000     1.007825032230
      Gh(O)          -0.703861000000     1.904262000000    -1.805602000000    15.994914619570
      Gh(H)          -1.312640000000     2.645681000000    -1.719120000000     1.007825032230
      Gh(H)          -0.646566000000     1.565853000000    -0.948304000000     1.007825032230

  Running in c1 symmetry.

  Rotational constants: A =      0.04665  B =      0.03425  C =      0.02840 [cm^-1]
  Rotational constants: A =   1398.49370  B =   1026.88952  C =    851.31362 [MHz]
  Nuclear repulsion =    8.865335819855259

  Charge       = 0
  Multiplicity = 1
  Electrons    = 10
  Nalpha       = 5
  Nbeta        = 5

  ==> Algorithm <==

  SCF Algorithm Type is DF.
  DIIS enabled.
  MOM disabled.
  Fractional occupation disabled.
  Guess Type is SAD.
  Energy threshold   = 1.00e-08
  Density threshold  = 1.00e-08
  Integral threshold = 1.00e-12

  ==> Primary Basis <==

  Basis Set: AUG-CC-PVTZ
    Blend: AUG-CC-PVTZ
    Number of shells: 174
    Number of basis functions: 506
    Number of Cartesian functions: 580
    Spherical Harmonics?: true
    Max angular momentum: 3

   => Loading Basis Set <=

    Name: (AUG-CC-PVTZ AUX)
    Role: JKFIT
    Keyword: DF_BASIS_SCF
    atoms 1                            entry F          line   348 file /ddmfs1b/softs/psi4conda/share/psi4/basis/aug-cc-pvtz-jkfit.gbs 
    atoms 2, 5, 8, 11, 14              entry O          line   286 file /ddmfs1b/softs/psi4conda/share/psi4/basis/aug-cc-pvtz-jkfit.gbs 
    atoms 3-4, 6-7, 9-10, 12-13, 15-16 entry H          line    70 file /ddmfs1b/softs/psi4conda/share/psi4/basis/aug-cc-pvtz-jkfit.gbs 

  ==> Integral Setup <==

  DFHelper Memory: AOs need 1.927 GiB; user supplied 41.910 GiB. 
  Using in-core AOs.

  ==> MemDFJK: Density-Fitted J/K Matrices <==

    J tasked:                   Yes
    K tasked:                   Yes
    wK tasked:                   No
    OpenMP threads:              20
    Memory [MiB]:             42915
    Algorithm:                 Core
    Schwarz Cutoff:           1E-12
    Mask sparsity (%):      11.5820
    Fitting Condition:        1E-10

   => Auxiliary Basis Set <=

  Basis Set: (AUG-CC-PVTZ AUX)
    Blend: AUG-CC-PVTZ-JKFIT
    Number of shells: 320
    Number of basis functions: 1084
    Number of Cartesian functions: 1336
    Spherical Harmonics?: true
    Max angular momentum: 4

  Minimum eigenvalue in the overlap matrix is 6.8149945824E-05.
  Reciprocal condition number of the overlap matrix is 5.2107041678E-06.
    Using symmetric orthogonalization.

  ==> Pre-Iterations <==

  SCF Guess: Superposition of Atomic Densities via on-the-fly atomic UHF (no occupation information).

   -------------------------
    Irrep   Nso     Nmo    
   -------------------------
     A        506     506 
   -------------------------
    Total     506     506
   -------------------------

  ==> Iterations <==

                           Total Energy        Delta E     RMS |[F,P]|

   @DF-RHF iter SAD:   -75.43390620561047   -7.54339e+01   0.00000e+00 
   @DF-RHF iter   1:   -75.96978248514171   -5.35876e-01   9.21706e-04 ADIIS/DIIS
   @DF-RHF iter   2:   -76.02117998110396   -5.13975e-02   6.50404e-04 ADIIS/DIIS
   @DF-RHF iter   3:   -76.05507940015337   -3.38994e-02   4.44941e-05 DIIS
   @DF-RHF iter   4:   -76.05552354552930   -4.44145e-04   1.14570e-05 DIIS
   @DF-RHF iter   5:   -76.05555618067550   -3.26351e-05   2.68067e-06 DIIS
   @DF-RHF iter   6:   -76.05555900807015   -2.82739e-06   5.98067e-07 DIIS
   @DF-RHF iter   7:   -76.05555916085613   -1.52786e-07   1.08861e-07 DIIS
   @DF-RHF iter   8:   -76.05555916523713   -4.38099e-09   1.91507e-08 DIIS
   @DF-RHF iter   9:   -76.05555916534995   -1.12820e-10   5.11844e-09 DIIS
  Energy and wave function converged.


  ==> Post-Iterations <==

    Orbital Energies [Eh]
    ---------------------

    Doubly Occupied:                                                      

       1A    -20.571762     2A     -1.334484     3A     -0.704094  
       4A     -0.572615     5A     -0.506687  

    Virtual:                                                              

       6A      0.015329     7A      0.034494     8A      0.037080  
       9A      0.037938    10A      0.054270    11A      0.058918  
      12A      0.065178    13A      0.074777    14A      0.081817  
      15A      0.091188    16A      0.114932    17A      0.120087  
      18A      0.129362    19A      0.133003    20A      0.140809  
      21A      0.144711    22A      0.151667    23A      0.158829  
      24A      0.159657    25A      0.168589    26A      0.170328  
      27A      0.180199    28A      0.187746    29A      0.190458  
      30A      0.201578    31A      0.204808    32A      0.213927  
      33A      0.217929    34A      0.233521    35A      0.243319  
      36A      0.245536    37A      0.257508    38A      0.268110  
      39A      0.277548    40A      0.284431    41A      0.292797  
      42A      0.297036    43A      0.306170    44A      0.319212  
      45A      0.321120    46A      0.328163    47A      0.338520  
      48A      0.341278    49A      0.344737    50A      0.348510  
      51A      0.360303    52A      0.363575    53A      0.368040  
      54A      0.370922    55A      0.379960    56A      0.381196  
      57A      0.392574    58A      0.397338    59A      0.404069  
      60A      0.414315    61A      0.418013    62A      0.424541  
      63A      0.433719    64A      0.445372    65A      0.455916  
      66A      0.469961    67A      0.481126    68A      0.487042  
      69A      0.495368    70A      0.504526    71A      0.517156  
      72A      0.533747    73A      0.535196    74A      0.565339  
      75A      0.581962    76A      0.584054    77A      0.600938  
      78A      0.631795    79A      0.636550    80A      0.664487  
      81A      0.679041    82A      0.687417    83A      0.703418  
      84A      0.705185    85A      0.720802    86A      0.733987  
      87A      0.735688    88A      0.736798    89A      0.750821  
      90A      0.759274    91A      0.773340    92A      0.777292  
      93A      0.783150    94A      0.786877    95A      0.791843  
      96A      0.805038    97A      0.807654    98A      0.813345  
      99A      0.819120   100A      0.821450   101A      0.833982  
     102A      0.839106   103A      0.846342   104A      0.853888  
     105A      0.856060   106A      0.861937   107A      0.872540  
     108A      0.883616   109A      0.886780   110A      0.891451  
     111A      0.904247   112A      0.909349   113A      0.914381  
     114A      0.921406   115A      0.925234   116A      0.932712  
     117A      0.945075   118A      0.948801   119A      0.959020  
     120A      0.963631   121A      0.968160   122A      0.971666  
     123A      0.973154   124A      0.986035   125A      0.992321  
     126A      0.995058   127A      0.998218   128A      1.008176  
     129A      1.014514   130A      1.022083   131A      1.028547  
     132A      1.034907   133A      1.041446   134A      1.056100  
     135A      1.062793   136A      1.071692   137A      1.079764  
     138A      1.081738   139A      1.093474   140A      1.099917  
     141A      1.109220   142A      1.114385   143A      1.134969  
     144A      1.137769   145A      1.147489   146A      1.160135  
     147A      1.167173   148A      1.188782   149A      1.193539  
     150A      1.201559   151A      1.211522   152A      1.229718  
     153A      1.235126   154A      1.243280   155A      1.259859  
     156A      1.265099   157A      1.280419   158A      1.287166  
     159A      1.297954   160A      1.303061   161A      1.318657  
     162A      1.325777   163A      1.340872   164A      1.351535  
     165A      1.367530   166A      1.373972   167A      1.384782  
     168A      1.412604   169A      1.424917   170A      1.441393  
     171A      1.443174   172A      1.460893   173A      1.486690  
     174A      1.495973   175A      1.515602   176A      1.524410  
     177A      1.528907   178A      1.568765   179A      1.584507  
     180A      1.597781   181A      1.627984   182A      1.638702  
     183A      1.649341   184A      1.666942   185A      1.678226  
     186A      1.691380   187A      1.703728   188A      1.706506  
     189A      1.718875   190A      1.737923   191A      1.741924  
     192A      1.754263   193A      1.764943   194A      1.774086  
     195A      1.789406   196A      1.798272   197A      1.803301  
     198A      1.830930   199A      1.839911   200A      1.845995  
     201A      1.853004   202A      1.868482   203A      1.881427  
     204A      1.896238   205A      1.900468   206A      1.931438  
     207A      1.938552   208A      1.957867   209A      1.968551  
     210A      1.981309   211A      1.989914   212A      2.008043  
     213A      2.018229   214A      2.026734   215A      2.059448  
     216A      2.123157   217A      2.175208   218A      2.183427  
     219A      2.221669   220A      2.236247   221A      2.269911  
     222A      2.322815   223A      2.348749   224A      2.415852  
     225A      2.421283   226A      2.431742   227A      2.445846  
     228A      2.455577   229A      2.473397   230A      2.483898  
     231A      2.489539   232A      2.507596   233A      2.512921  
     234A      2.517029   235A      2.531363   236A      2.541523  
     237A      2.548122   238A      2.560302   239A      2.564231  
     240A      2.583789   241A      2.592284   242A      2.598293  
     243A      2.605215   244A      2.623265   245A      2.642783  
     246A      2.656043   247A      2.678259   248A      2.684702  
     249A      2.697360   250A      2.710632   251A      2.727089  
     252A      2.732997   253A      2.753758   254A      2.769688  
     255A      2.781928   256A      2.787446   257A      2.801896  
     258A      2.810105   259A      2.822638   260A      2.838354  
     261A      2.855114   262A      2.887790   263A      2.904449  
     264A      2.934976   265A      2.960480   266A      2.989720  
     267A      3.009483   268A      3.025497   269A      3.037622  
     270A      3.073155   271A      3.127823   272A      3.154089  
     273A      3.185640   274A      3.187871   275A      3.210212  
     276A      3.225879   277A      3.240656   278A      3.247945  
     279A      3.263370   280A      3.285670   281A      3.293219  
     282A      3.314225   283A      3.320013   284A      3.348005  
     285A      3.380446   286A      3.402139   287A      3.411179  
     288A      3.435406   289A      3.458505   290A      3.494953  
     291A      3.509252   292A      3.515852   293A      3.537207  
     294A      3.567261   295A      3.592602   296A      3.598867  
     297A      3.613027   298A      3.639980   299A      3.648141  
     300A      3.701892   301A      3.726398   302A      3.745063  
     303A      3.756135   304A      3.788358   305A      3.822194  
     306A      3.849298   307A      3.875556   308A      3.934102  
     309A      4.005707   310A      4.045503   311A      4.067372  
     312A      4.100076   313A      4.174414   314A      4.180080  
     315A      4.219238   316A      4.252666   317A      4.271612  
     318A      4.290700   319A      4.316314   320A      4.384982  
     321A      4.397396   322A      4.404208   323A      4.419252  
     324A      4.433426   325A      4.439577   326A      4.465140  
     327A      4.474817   328A      4.496037   329A      4.510849  
     330A      4.515789   331A      4.541320   332A      4.549228  
     333A      4.566156   334A      4.594996   335A      4.606888  
     336A      4.614588   337A      4.623529   338A      4.645002  
     339A      4.658017   340A      4.691300   341A      4.715749  
     342A      4.729318   343A      4.734606   344A      4.738714  
     345A      4.763322   346A      4.779155   347A      4.828006  
     348A      4.846239   349A      4.870835   350A      4.887113  
     351A      4.906302   352A      4.922573   353A      4.933844  
     354A      4.950870   355A      4.961351   356A      4.988925  
     357A      4.995073   358A      5.002202   359A      5.052641  
     360A      5.075830   361A      5.088547   362A      5.114334  
     363A      5.141569   364A      5.168463   365A      5.201296  
     366A      5.220691   367A      5.296704   368A      5.329493  
     369A      5.350240   370A      5.367338   371A      5.396852  
     372A      5.423227   373A      5.468903   374A      5.541963  
     375A      5.549431   376A      5.555623   377A      5.617453  
     378A      5.646366   379A      5.658822   380A      5.681249  
     381A      5.708656   382A      5.728556   383A      5.733905  
     384A      5.758847   385A      5.794449   386A      5.849969  
     387A      5.900775   388A      5.927850   389A      5.957711  
     390A      5.976052   391A      6.143802   392A      6.199556  
     393A      6.211480   394A      6.247839   395A      6.292395  
     396A      6.417820   397A      6.518182   398A      6.539192  
     399A      6.592714   400A      6.615406   401A      6.689200  
     402A      6.750168   403A      6.791927   404A      6.810804  
     405A      6.897011   406A      6.950126   407A      7.065650  
     408A      7.121960   409A      7.127352   410A      7.209077  
     411A      7.260014   412A      7.261942   413A      7.325986  
     414A      7.354299   415A      7.395385   416A      7.513594  
     417A      7.708877   418A      7.721614   419A      7.742703  
     420A      7.755226   421A      7.791642   422A      7.813410  
     423A      7.867323   424A      7.873587   425A      7.892229  
     426A      7.898512   427A      7.995581   428A      8.019416  
     429A      8.066792   430A      8.108765   431A      8.143020  
     432A      8.188763   433A      8.230423   434A      8.288631  
     435A      8.297456   436A      8.341056   437A      8.350414  
     438A      8.365762   439A      8.443323   440A      8.650425  
     441A      8.745759   442A      8.858539   443A      8.871183  
     444A      8.893496   445A      8.916903   446A      9.000498  
     447A      9.107233   448A      9.194165   449A      9.659561  
     450A      9.715390   451A      9.771963   452A      9.849627  
     453A      9.872428   454A      9.879592   455A      9.922925  
     456A      9.954659   457A     10.050285   458A     10.071145  
     459A     10.157098   460A     10.199277   461A     10.261486  
     462A     10.285412   463A     10.323654   464A     10.361874  
     465A     10.420869   466A     10.434735   467A     10.476166  
     468A     10.509892   469A     10.581347   470A     10.739238  
     471A     10.844551   472A     11.146373   473A     11.185366  
     474A     11.339124   475A     11.366995   476A     11.709485  
     477A     11.745658   478A     11.824769   479A     11.904227  
     480A     12.008985   481A     12.053198   482A     12.335950  
     483A     12.422374   484A     12.529554   485A     13.191463  
     486A     13.236735   487A     13.329069   488A     13.414050  
     489A     13.509993   490A     13.571977   491A     13.715745  
     492A     13.772653   493A     13.819816   494A     13.966162  
     495A     13.986280   496A     14.004253   497A     14.059895  
     498A     14.850701   499A     15.224292   500A     15.418320  
     501A     15.974956   502A     65.197015   503A     66.445120  
     504A     67.034106   505A     68.155631   506A     74.430363  

    Final Occupation by Irrep:
              A 
    DOCC [     5 ]
    NA   [     5 ]
    NB   [     5 ]

  @DF-RHF Final Energy:   -76.05555916534995

   => Energetics <=

    Nuclear Repulsion Energy =              8.8653358198552592
    One-Electron Energy =                -122.4625007189349759
    Two-Electron Energy =                  37.5416057337297602
    Total Energy =                        -76.0555591653499619

Computation Completed


Properties will be evaluated at   0.000000,   0.000000,   0.000000 [a0]

Properties computed using the SCF density matrix


 Multipole Moments:

 ------------------------------------------------------------------------------------
     Multipole            Electronic (a.u.)      Nuclear  (a.u.)        Total (a.u.)
 ------------------------------------------------------------------------------------

 L = 1.  Multiply by 2.5417464519 to convert [e a0] to [Debye]
 Dipole X            :        -47.1373985           46.9447408           -0.1926577
 Dipole Y            :         27.0634352          -26.4127701            0.6506651
 Dipole Z            :         12.4078231          -12.7764194           -0.3685963
 Magnitude           :                                                    0.7722340

 ------------------------------------------------------------------------------------

*** tstop() called on ddmfs1 at Mon Jan 22 18:27:08 2024
Module time:
	user time   =      85.00 seconds =       1.42 minutes
	system time =       3.94 seconds =       0.07 minutes
	total time  =          5 seconds =       0.08 minutes
Total time:
	user time   =      85.00 seconds =       1.42 minutes
	system time =       3.94 seconds =       0.07 minutes
	total time  =          5 seconds =       0.08 minutes

*** tstart() called on ddmfs1
*** at Mon Jan 22 18:27:08 2024


  //>>>>>>>>>>>>>>>>>>>>>>>>>>>>>>>>>>>//
  //               DFMP2               //
  //<<<<<<<<<<<<<<<<<<<<<<<<<<<<<<<<<<<//

   => Loading Basis Set <=

    Name: (AUG-CC-PVTZ AUX)
    Role: RIFIT
    Keyword: DF_BASIS_MP2
    atoms 1                            entry F          line   322 file /ddmfs1b/softs/psi4conda/share/psi4/basis/aug-cc-pvtz-ri.gbs 
    atoms 2, 5, 8, 11, 14              entry O          line   264 file /ddmfs1b/softs/psi4conda/share/psi4/basis/aug-cc-pvtz-ri.gbs 
    atoms 3-4, 6-7, 9-10, 12-13, 15-16 entry H          line    30 file /ddmfs1b/softs/psi4conda/share/psi4/basis/aug-cc-pvtz-ri.gbs 

	 --------------------------------------------------------
	                          DF-MP2                         
	      2nd-Order Density-Fitted Moller-Plesset Theory     
	              RMP2 Wavefunction,  20 Threads             
	                                                         
	        Rob Parrish, Justin Turney, Andy Simmonett,      
	           Ed Hohenstein, and C. David Sherrill          
	 --------------------------------------------------------

   => Auxiliary Basis Set <=

  Basis Set: (AUG-CC-PVTZ AUX)
    Blend: AUG-CC-PVTZ-RI
    Number of shells: 308
    Number of basis functions: 1096
    Number of Cartesian functions: 1366
    Spherical Harmonics?: true
    Max angular momentum: 4

	 --------------------------------------------------------
	                 NBF =   506, NAUX =  1096
	 --------------------------------------------------------
	   CLASS    FOCC     OCC    AOCC    AVIR     VIR    FVIR
	   PAIRS       0       5       5     501     501       0
	 --------------------------------------------------------

	-----------------------------------------------------------
	 ==================> DF-MP2 Energies <==================== 
	-----------------------------------------------------------
	 Reference Energy          =     -76.0555591653499476 [Eh]
	 Singles Energy            =      -0.0000000000000000 [Eh]
	 Same-Spin Energy          =      -0.0689608043173537 [Eh]
	 Opposite-Spin Energy      =      -0.2176959814454275 [Eh]
	 Correlation Energy        =      -0.2866567857627811 [Eh]
	 Total Energy              =     -76.3422159511127347 [Eh]
	-----------------------------------------------------------
	 ================> DF-SCS-MP2 Energies <================== 
	-----------------------------------------------------------
	 SCS Same-Spin Scale       =       0.3333333333333333 [-]
	 SCS Opposite-Spin Scale   =       1.2000000000000000 [-]
	 SCS Same-Spin Energy      =      -0.0229869347724512 [Eh]
	 SCS Opposite-Spin Energy  =      -0.2612351777345129 [Eh]
	 SCS Correlation Energy    =      -0.2842221125069642 [Eh]
	 SCS Total Energy          =     -76.3397812778569147 [Eh]
	-----------------------------------------------------------


*** tstop() called on ddmfs1 at Mon Jan 22 18:27:12 2024
Module time:
	user time   =      24.26 seconds =       0.40 minutes
	system time =       1.37 seconds =       0.02 minutes
	total time  =          4 seconds =       0.07 minutes
Total time:
	user time   =     109.28 seconds =       1.82 minutes
	system time =       5.31 seconds =       0.09 minutes
	total time  =          9 seconds =       0.15 minutes

    Psi4 stopped on: Monday, 22 January 2024 06:27PM
    Psi4 wall time for execution: 0:00:08.97

*** Psi4 exiting successfully. Buy a developer a beer!
