
    -----------------------------------------------------------------------
          Psi4: An Open-Source Ab Initio Electronic Structure Package
                               Psi4 1.8.2 release

                         Git: Rev {} zzzzzzz 


    D. G. A. Smith, L. A. Burns, A. C. Simmonett, R. M. Parrish,
    M. C. Schieber, R. Galvelis, P. Kraus, H. Kruse, R. Di Remigio,
    A. Alenaizan, A. M. James, S. Lehtola, J. P. Misiewicz, M. Scheurer,
    R. A. Shaw, J. B. Schriber, Y. Xie, Z. L. Glick, D. A. Sirianni,
    J. S. O'Brien, J. M. Waldrop, A. Kumar, E. G. Hohenstein,
    B. P. Pritchard, B. R. Brooks, H. F. Schaefer III, A. Yu. Sokolov,
    K. Patkowski, A. E. DePrince III, U. Bozkaya, R. A. King,
    F. A. Evangelista, J. M. Turney, T. D. Crawford, C. D. Sherrill,
    J. Chem. Phys. 152(18) 184108 (2020). https://doi.org/10.1063/5.0006002

                            Additional Code Authors
    E. T. Seidl, C. L. Janssen, E. F. Valeev, M. L. Leininger,
    J. F. Gonthier, R. M. Richard, H. R. McAlexander, M. Saitow, X. Wang,
    P. Verma, M. H. Lechner, A. Jiang, S. Behnle, A. G. Heide,
    M. F. Herbst, and D. L. Poole

             Previous Authors, Complete List of Code Contributors,
                       and Citations for Specific Modules
    https://github.com/psi4/psi4/blob/master/codemeta.json
    https://github.com/psi4/psi4/graphs/contributors
    http://psicode.org/psi4manual/master/introduction.html#citing-psifour

    -----------------------------------------------------------------------


    Psi4 started on: Monday, 22 January 2024 05:46PM

    Process ID: 86408
    Host:       ddmfs1
    PSIDATADIR: /ddmfs1b/softs/psi4conda/share/psi4
    Memory:     500.0 MiB
    Threads:    20
    
  ==> Input File <==

--------------------------------------------------------------------------
MEMORY 60 GB

molecule dimer {
0 1
Gh(F)      0.000000     0.000000     0.000000
Gh(O)     -0.952365     1.069811     2.420031
Gh(H)     -1.809142     1.433385     2.206942
Gh(H)     -0.677213     0.589182     1.599917
Gh(O)     -2.646160    -0.758425    -0.155469
Gh(H)     -1.673478    -0.567133     0.114755
Gh(H)     -2.882933    -1.589745     0.287001
O         -0.629425     1.382429    -2.327001
H         -0.579909     1.003938    -1.422959
H         -1.177112     2.140621    -2.269006
Gh(O)      2.229730     1.512680     0.749307
Gh(H)      1.907904     1.873311     1.582375
Gh(H)      1.496351     0.913088     0.515515
Gh(O)      0.351042    -2.383392     1.594232
Gh(H)     -0.034028    -1.661486     0.966528
Gh(H)      1.180438    -2.089714     1.976787

units ang
no_reorient
no_com
symmetry c1
}

set {
basis        aug-cc-pVTZ
scf_type     df
}

energy("mp2")
--------------------------------------------------------------------------

  Memory set to  55.879 GiB by Python driver.

Scratch directory: /ddmfs1a/scratch/
   => Libint2 <=

    Primary   basis highest AM E, G, H:  5, 4, 3
    Auxiliary basis highest AM E, G, H:  6, 5, 4
    Onebody   basis highest AM E, G, H:  6, 5, 4
    Solid Harmonics ordering:            gaussian

*** tstart() called on ddmfs1
*** at Mon Jan 22 17:46:56 2024

   => Loading Basis Set <=

    Name: AUG-CC-PVTZ
    Role: ORBITAL
    Keyword: BASIS
    atoms 1                            entry F          line   377 file /ddmfs1b/softs/psi4conda/share/psi4/basis/aug-cc-pvtz.gbs 
    atoms 2, 5, 8, 11, 14              entry O          line   331 file /ddmfs1b/softs/psi4conda/share/psi4/basis/aug-cc-pvtz.gbs 
    atoms 3-4, 6-7, 9-10, 12-13, 15-16 entry H          line    40 file /ddmfs1b/softs/psi4conda/share/psi4/basis/aug-cc-pvtz.gbs 


         ---------------------------------------------------------
                                   SCF
               by Justin Turney, Rob Parrish, Andy Simmonett
                          and Daniel G. A. Smith
                              RHF Reference
                       20 Threads,  57220 MiB Core
         ---------------------------------------------------------

  ==> Geometry <==

    Molecular point group: c1
    Full point group: C1

    Geometry (in Angstrom), charge = 0, multiplicity = 1:

       Center              X                  Y                   Z               Mass       
    ------------   -----------------  -----------------  -----------------  -----------------
      Gh(F)           0.000000000000     0.000000000000     0.000000000000    18.998403162730
      Gh(O)          -0.952365000000     1.069811000000     2.420031000000    15.994914619570
      Gh(H)          -1.809142000000     1.433385000000     2.206942000000     1.007825032230
      Gh(H)          -0.677213000000     0.589182000000     1.599917000000     1.007825032230
      Gh(O)          -2.646160000000    -0.758425000000    -0.155469000000    15.994914619570
      Gh(H)          -1.673478000000    -0.567133000000     0.114755000000     1.007825032230
      Gh(H)          -2.882933000000    -1.589745000000     0.287001000000     1.007825032230
         O           -0.629425000000     1.382429000000    -2.327001000000    15.994914619570
         H           -0.579909000000     1.003938000000    -1.422959000000     1.007825032230
         H           -1.177112000000     2.140621000000    -2.269006000000     1.007825032230
      Gh(O)           2.229730000000     1.512680000000     0.749307000000    15.994914619570
      Gh(H)           1.907904000000     1.873311000000     1.582375000000     1.007825032230
      Gh(H)           1.496351000000     0.913088000000     0.515515000000     1.007825032230
      Gh(O)           0.351042000000    -2.383392000000     1.594232000000    15.994914619570
      Gh(H)          -0.034028000000    -1.661486000000     0.966528000000     1.007825032230
      Gh(H)           1.180438000000    -2.089714000000     1.976787000000     1.007825032230

  Running in c1 symmetry.

  Rotational constants: A =      0.04127  B =      0.03917  C =      0.03013 [cm^-1]
  Rotational constants: A =   1237.24308  B =   1174.29519  C =    903.25988 [MHz]
  Nuclear repulsion =    9.175631138677653

  Charge       = 0
  Multiplicity = 1
  Electrons    = 10
  Nalpha       = 5
  Nbeta        = 5

  ==> Algorithm <==

  SCF Algorithm Type is DF.
  DIIS enabled.
  MOM disabled.
  Fractional occupation disabled.
  Guess Type is SAD.
  Energy threshold   = 1.00e-08
  Density threshold  = 1.00e-08
  Integral threshold = 1.00e-12

  ==> Primary Basis <==

  Basis Set: AUG-CC-PVTZ
    Blend: AUG-CC-PVTZ
    Number of shells: 174
    Number of basis functions: 506
    Number of Cartesian functions: 580
    Spherical Harmonics?: true
    Max angular momentum: 3

   => Loading Basis Set <=

    Name: (AUG-CC-PVTZ AUX)
    Role: JKFIT
    Keyword: DF_BASIS_SCF
    atoms 1                            entry F          line   348 file /ddmfs1b/softs/psi4conda/share/psi4/basis/aug-cc-pvtz-jkfit.gbs 
    atoms 2, 5, 8, 11, 14              entry O          line   286 file /ddmfs1b/softs/psi4conda/share/psi4/basis/aug-cc-pvtz-jkfit.gbs 
    atoms 3-4, 6-7, 9-10, 12-13, 15-16 entry H          line    70 file /ddmfs1b/softs/psi4conda/share/psi4/basis/aug-cc-pvtz-jkfit.gbs 

  ==> Integral Setup <==

  DFHelper Memory: AOs need 1.973 GiB; user supplied 41.910 GiB. 
  Using in-core AOs.

  ==> MemDFJK: Density-Fitted J/K Matrices <==

    J tasked:                   Yes
    K tasked:                   Yes
    wK tasked:                   No
    OpenMP threads:              20
    Memory [MiB]:             42915
    Algorithm:                 Core
    Schwarz Cutoff:           1E-12
    Mask sparsity (%):       9.3424
    Fitting Condition:        1E-10

   => Auxiliary Basis Set <=

  Basis Set: (AUG-CC-PVTZ AUX)
    Blend: AUG-CC-PVTZ-JKFIT
    Number of shells: 320
    Number of basis functions: 1084
    Number of Cartesian functions: 1336
    Spherical Harmonics?: true
    Max angular momentum: 4

  Minimum eigenvalue in the overlap matrix is 8.8171718125E-05.
  Reciprocal condition number of the overlap matrix is 6.1901833483E-06.
    Using symmetric orthogonalization.

  ==> Pre-Iterations <==

  SCF Guess: Superposition of Atomic Densities via on-the-fly atomic UHF (no occupation information).

   -------------------------
    Irrep   Nso     Nmo    
   -------------------------
     A        506     506 
   -------------------------
    Total     506     506
   -------------------------

  ==> Iterations <==

                           Total Energy        Delta E     RMS |[F,P]|

   @DF-RHF iter SAD:   -75.47320644573416   -7.54732e+01   0.00000e+00 
   @DF-RHF iter   1:   -75.97520485253591   -5.01998e-01   9.27109e-04 DIIS/ADIIS
   @DF-RHF iter   2:   -76.02778430960686   -5.25795e-02   6.30872e-04 DIIS/ADIIS
   @DF-RHF iter   3:   -76.05916567492503   -3.13814e-02   4.29513e-05 DIIS
   @DF-RHF iter   4:   -76.05956103675852   -3.95362e-04   1.03100e-05 DIIS
   @DF-RHF iter   5:   -76.05958583696993   -2.48002e-05   2.35384e-06 DIIS
   @DF-RHF iter   6:   -76.05958790074024   -2.06377e-06   5.24293e-07 DIIS
   @DF-RHF iter   7:   -76.05958801395280   -1.13213e-07   9.67515e-08 DIIS
   @DF-RHF iter   8:   -76.05958801734430   -3.39149e-09   1.61557e-08 DIIS
   @DF-RHF iter   9:   -76.05958801741970   -7.54028e-11   4.08838e-09 DIIS
  Energy and wave function converged.


  ==> Post-Iterations <==

    Orbital Energies [Eh]
    ---------------------

    Doubly Occupied:                                                      

       1A    -20.566468     2A     -1.351554     3A     -0.720699  
       4A     -0.580402     5A     -0.509620  

    Virtual:                                                              

       6A      0.014700     7A      0.033854     8A      0.035506  
       9A      0.042674    10A      0.053369    11A      0.059068  
      12A      0.066237    13A      0.069503    14A      0.077490  
      15A      0.091091    16A      0.109737    17A      0.118287  
      18A      0.128928    19A      0.138420    20A      0.144455  
      21A      0.148971    22A      0.152709    23A      0.162711  
      24A      0.165566    25A      0.170226    26A      0.172430  
      27A      0.183575    28A      0.188515    29A      0.192409  
      30A      0.204128    31A      0.208305    32A      0.212225  
      33A      0.213764    34A      0.220863    35A      0.225082  
      36A      0.244923    37A      0.255364    38A      0.260466  
      39A      0.272823    40A      0.289896    41A      0.296566  
      42A      0.303836    43A      0.307333    44A      0.320400  
      45A      0.320763    46A      0.333942    47A      0.336363  
      48A      0.338758    49A      0.341345    50A      0.347453  
      51A      0.358096    52A      0.369850    53A      0.376408  
      54A      0.379167    55A      0.386278    56A      0.392817  
      57A      0.399267    58A      0.407628    59A      0.413145  
      60A      0.418099    61A      0.429250    62A      0.434531  
      63A      0.441730    64A      0.451696    65A      0.460601  
      66A      0.466240    67A      0.468917    68A      0.487720  
      69A      0.500034    70A      0.515934    71A      0.521725  
      72A      0.535242    73A      0.544619    74A      0.555285  
      75A      0.568365    76A      0.581233    77A      0.593709  
      78A      0.606737    79A      0.637238    80A      0.676901  
      81A      0.696982    82A      0.700531    83A      0.708535  
      84A      0.719727    85A      0.724851    86A      0.732065  
      87A      0.738893    88A      0.741750    89A      0.756459  
      90A      0.757964    91A      0.764985    92A      0.772014  
      93A      0.778086    94A      0.785424    95A      0.789916  
      96A      0.802620    97A      0.811795    98A      0.822197  
      99A      0.828369   100A      0.834502   101A      0.838358  
     102A      0.845702   103A      0.852079   104A      0.858723  
     105A      0.869644   106A      0.876312   107A      0.881992  
     108A      0.894651   109A      0.899104   110A      0.910359  
     111A      0.915238   112A      0.917351   113A      0.929177  
     114A      0.930878   115A      0.940849   116A      0.945926  
     117A      0.956654   118A      0.959806   119A      0.962262  
     120A      0.972908   121A      0.978977   122A      0.980772  
     123A      0.996274   124A      0.999858   125A      1.006906  
     126A      1.015096   127A      1.018523   128A      1.023346  
     129A      1.033047   130A      1.035891   131A      1.043216  
     132A      1.048323   133A      1.056822   134A      1.065723  
     135A      1.073187   136A      1.079634   137A      1.087754  
     138A      1.089434   139A      1.102282   140A      1.109868  
     141A      1.111988   142A      1.127021   143A      1.139887  
     144A      1.153446   145A      1.158380   146A      1.163209  
     147A      1.175511   148A      1.189069   149A      1.193401  
     150A      1.208025   151A      1.216396   152A      1.235709  
     153A      1.247902   154A      1.262617   155A      1.267411  
     156A      1.278036   157A      1.294404   158A      1.318881  
     159A      1.332251   160A      1.349131   161A      1.361721  
     162A      1.373172   163A      1.380386   164A      1.387082  
     165A      1.414331   166A      1.420976   167A      1.436000  
     168A      1.452181   169A      1.460112   170A      1.463195  
     171A      1.486719   172A      1.494099   173A      1.505494  
     174A      1.526469   175A      1.532772   176A      1.551035  
     177A      1.557601   178A      1.563581   179A      1.581081  
     180A      1.604446   181A      1.649376   182A      1.666543  
     183A      1.671542   184A      1.686389   185A      1.706276  
     186A      1.726007   187A      1.731453   188A      1.734543  
     189A      1.749832   190A      1.753635   191A      1.763125  
     192A      1.771142   193A      1.781093   194A      1.789472  
     195A      1.795966   196A      1.812877   197A      1.816112  
     198A      1.834116   199A      1.857358   200A      1.859664  
     201A      1.866036   202A      1.877073   203A      1.909130  
     204A      1.913719   205A      1.935503   206A      1.959766  
     207A      1.970241   208A      1.987957   209A      2.007757  
     210A      2.020429   211A      2.024888   212A      2.042380  
     213A      2.071095   214A      2.086086   215A      2.115822  
     216A      2.155225   217A      2.180608   218A      2.200522  
     219A      2.219761   220A      2.238736   221A      2.275047  
     222A      2.315189   223A      2.335789   224A      2.414631  
     225A      2.447519   226A      2.459601   227A      2.476134  
     228A      2.477919   229A      2.494230   230A      2.496699  
     231A      2.503745   232A      2.513135   233A      2.518704  
     234A      2.536714   235A      2.540025   236A      2.554876  
     237A      2.567610   238A      2.577370   239A      2.590653  
     240A      2.614774   241A      2.638037   242A      2.650771  
     243A      2.656269   244A      2.678837   245A      2.692003  
     246A      2.702107   247A      2.706731   248A      2.715726  
     249A      2.726821   250A      2.740178   251A      2.747031  
     252A      2.764701   253A      2.772365   254A      2.782864  
     255A      2.796528   256A      2.820604   257A      2.823697  
     258A      2.848033   259A      2.857784   260A      2.865874  
     261A      2.876325   262A      2.920331   263A      2.927335  
     264A      2.955507   265A      2.965385   266A      2.997229  
     267A      3.028212   268A      3.046869   269A      3.066554  
     270A      3.091555   271A      3.105119   272A      3.193623  
     273A      3.203889   274A      3.212067   275A      3.218578  
     276A      3.228172   277A      3.231922   278A      3.245712  
     279A      3.260944   280A      3.276890   281A      3.297370  
     282A      3.323711   283A      3.355189   284A      3.375489  
     285A      3.390423   286A      3.423023   287A      3.469654  
     288A      3.478328   289A      3.496692   290A      3.539131  
     291A      3.565186   292A      3.592453   293A      3.594357  
     294A      3.626184   295A      3.653086   296A      3.656045  
     297A      3.678942   298A      3.693965   299A      3.728519  
     300A      3.739245   301A      3.768096   302A      3.784461  
     303A      3.808349   304A      3.841886   305A      3.849292  
     306A      3.881621   307A      3.941040   308A      4.033532  
     309A      4.063820   310A      4.085835   311A      4.095401  
     312A      4.123862   313A      4.151714   314A      4.245971  
     315A      4.259985   316A      4.296179   317A      4.305431  
     318A      4.365195   319A      4.379189   320A      4.383164  
     321A      4.395367   322A      4.409981   323A      4.414475  
     324A      4.438452   325A      4.445339   326A      4.472141  
     327A      4.479120   328A      4.495550   329A      4.506503  
     330A      4.516731   331A      4.518068   332A      4.531005  
     333A      4.539964   334A      4.564574   335A      4.588997  
     336A      4.609812   337A      4.612086   338A      4.644747  
     339A      4.657764   340A      4.672517   341A      4.686503  
     342A      4.726333   343A      4.757852   344A      4.784058  
     345A      4.797360   346A      4.808201   347A      4.866898  
     348A      4.888461   349A      4.901164   350A      4.924931  
     351A      4.931590   352A      4.946850   353A      4.967313  
     354A      4.972581   355A      5.013225   356A      5.034415  
     357A      5.036892   358A      5.046956   359A      5.056912  
     360A      5.069844   361A      5.104163   362A      5.125084  
     363A      5.198095   364A      5.227181   365A      5.259392  
     366A      5.278687   367A      5.306040   368A      5.329114  
     369A      5.343043   370A      5.380696   371A      5.416258  
     372A      5.435911   373A      5.457360   374A      5.492715  
     375A      5.535411   376A      5.552284   377A      5.558679  
     378A      5.592666   379A      5.614389   380A      5.632885  
     381A      5.633754   382A      5.648744   383A      5.660557  
     384A      5.674652   385A      5.690491   386A      5.789888  
     387A      5.822022   388A      5.889858   389A      5.961853  
     390A      5.991625   391A      6.191587   392A      6.214500  
     393A      6.261820   394A      6.273697   395A      6.308094  
     396A      6.394276   397A      6.436012   398A      6.505797  
     399A      6.563643   400A      6.585300   401A      6.617287  
     402A      6.651108   403A      6.701572   404A      6.706360  
     405A      6.789750   406A      6.953299   407A      6.991904  
     408A      7.028595   409A      7.088905   410A      7.107243  
     411A      7.174058   412A      7.325452   413A      7.364438  
     414A      7.382680   415A      7.434995   416A      7.547061  
     417A      7.724434   418A      7.746274   419A      7.764088  
     420A      7.775450   421A      7.794388   422A      7.810205  
     423A      7.846846   424A      7.875160   425A      7.915351  
     426A      7.973252   427A      8.041215   428A      8.066394  
     429A      8.082608   430A      8.102470   431A      8.117767  
     432A      8.207132   433A      8.227220   434A      8.236593  
     435A      8.258322   436A      8.261207   437A      8.297091  
     438A      8.315069   439A      8.334448   440A      8.667229  
     441A      8.713281   442A      8.783291   443A      8.814008  
     444A      8.829692   445A      8.863235   446A      8.883597  
     447A      8.960786   448A      9.017020   449A      9.720433  
     450A      9.750312   451A      9.770760   452A      9.777907  
     453A      9.877863   454A      9.890553   455A      9.902917  
     456A      9.936899   457A     10.089489   458A     10.098103  
     459A     10.127159   460A     10.164618   461A     10.293366  
     462A     10.336238   463A     10.353202   464A     10.365569  
     465A     10.401702   466A     10.533033   467A     10.554642  
     468A     10.574639   469A     10.677599   470A     10.745799  
     471A     10.850008   472A     10.991032   473A     11.097160  
     474A     11.277479   475A     11.323398   476A     11.661992  
     477A     11.733720   478A     11.783318   479A     11.807090  
     480A     11.866391   481A     12.028248   482A     12.114960  
     483A     12.282919   484A     12.524410   485A     13.247094  
     486A     13.297314   487A     13.311702   488A     13.395988  
     489A     13.477847   490A     13.489868   491A     13.567455  
     492A     13.688411   493A     13.723607   494A     13.977319  
     495A     13.989942   496A     14.016941   497A     14.021214  
     498A     15.160998   499A     15.407437   500A     15.519585  
     501A     16.871479   502A     64.637310   503A     65.072840  
     504A     66.634639   505A     66.993627   506A     75.273593  

    Final Occupation by Irrep:
              A 
    DOCC [     5 ]
    NA   [     5 ]
    NB   [     5 ]

  @DF-RHF Final Energy:   -76.05958801741970

   => Energetics <=

    Nuclear Repulsion Energy =              9.1756311386776535
    One-Electron Energy =                -123.0129501310070737
    Two-Electron Energy =                  37.7777309749097086
    Total Energy =                        -76.0595880174197134

Computation Completed


Properties will be evaluated at   0.000000,   0.000000,   0.000000 [a0]

Properties computed using the SCF density matrix


 Multipole Moments:

 ------------------------------------------------------------------------------------
     Multipole            Electronic (a.u.)      Nuclear  (a.u.)        Total (a.u.)
 ------------------------------------------------------------------------------------

 L = 1.  Multiply by 2.5417464519 to convert [e a0] to [Debye]
 Dipole X            :         12.4998402          -12.8358154           -0.3359752
 Dipole Y            :        -26.5825120           26.8416529            0.2591409
 Dipole Z            :         42.7958283          -42.1559594            0.6398689
 Magnitude           :                                                    0.7677666

 ------------------------------------------------------------------------------------

*** tstop() called on ddmfs1 at Mon Jan 22 17:47:01 2024
Module time:
	user time   =      86.23 seconds =       1.44 minutes
	system time =       3.88 seconds =       0.06 minutes
	total time  =          5 seconds =       0.08 minutes
Total time:
	user time   =      86.23 seconds =       1.44 minutes
	system time =       3.88 seconds =       0.06 minutes
	total time  =          5 seconds =       0.08 minutes

*** tstart() called on ddmfs1
*** at Mon Jan 22 17:47:01 2024


  //>>>>>>>>>>>>>>>>>>>>>>>>>>>>>>>>>>>//
  //               DFMP2               //
  //<<<<<<<<<<<<<<<<<<<<<<<<<<<<<<<<<<<//

   => Loading Basis Set <=

    Name: (AUG-CC-PVTZ AUX)
    Role: RIFIT
    Keyword: DF_BASIS_MP2
    atoms 1                            entry F          line   322 file /ddmfs1b/softs/psi4conda/share/psi4/basis/aug-cc-pvtz-ri.gbs 
    atoms 2, 5, 8, 11, 14              entry O          line   264 file /ddmfs1b/softs/psi4conda/share/psi4/basis/aug-cc-pvtz-ri.gbs 
    atoms 3-4, 6-7, 9-10, 12-13, 15-16 entry H          line    30 file /ddmfs1b/softs/psi4conda/share/psi4/basis/aug-cc-pvtz-ri.gbs 

	 --------------------------------------------------------
	                          DF-MP2                         
	      2nd-Order Density-Fitted Moller-Plesset Theory     
	              RMP2 Wavefunction,  20 Threads             
	                                                         
	        Rob Parrish, Justin Turney, Andy Simmonett,      
	           Ed Hohenstein, and C. David Sherrill          
	 --------------------------------------------------------

   => Auxiliary Basis Set <=

  Basis Set: (AUG-CC-PVTZ AUX)
    Blend: AUG-CC-PVTZ-RI
    Number of shells: 308
    Number of basis functions: 1096
    Number of Cartesian functions: 1366
    Spherical Harmonics?: true
    Max angular momentum: 4

	 --------------------------------------------------------
	                 NBF =   506, NAUX =  1096
	 --------------------------------------------------------
	   CLASS    FOCC     OCC    AOCC    AVIR     VIR    FVIR
	   PAIRS       0       5       5     501     501       0
	 --------------------------------------------------------

	-----------------------------------------------------------
	 ==================> DF-MP2 Energies <==================== 
	-----------------------------------------------------------
	 Reference Energy          =     -76.0595880174196992 [Eh]
	 Singles Energy            =      -0.0000000000000000 [Eh]
	 Same-Spin Energy          =      -0.0683938662893420 [Eh]
	 Opposite-Spin Energy      =      -0.2159327181012593 [Eh]
	 Correlation Energy        =      -0.2843265843906013 [Eh]
	 Total Energy              =     -76.3439146018102974 [Eh]
	-----------------------------------------------------------
	 ================> DF-SCS-MP2 Energies <================== 
	-----------------------------------------------------------
	 SCS Same-Spin Scale       =       0.3333333333333333 [-]
	 SCS Opposite-Spin Scale   =       1.2000000000000000 [-]
	 SCS Same-Spin Energy      =      -0.0227979554297807 [Eh]
	 SCS Opposite-Spin Energy  =      -0.2591192617215112 [Eh]
	 SCS Correlation Energy    =      -0.2819172171512918 [Eh]
	 SCS Total Energy          =     -76.3415052345709881 [Eh]
	-----------------------------------------------------------


*** tstop() called on ddmfs1 at Mon Jan 22 17:47:05 2024
Module time:
	user time   =      24.18 seconds =       0.40 minutes
	system time =       1.32 seconds =       0.02 minutes
	total time  =          4 seconds =       0.07 minutes
Total time:
	user time   =     110.43 seconds =       1.84 minutes
	system time =       5.21 seconds =       0.09 minutes
	total time  =          9 seconds =       0.15 minutes

    Psi4 stopped on: Monday, 22 January 2024 05:47PM
    Psi4 wall time for execution: 0:00:08.95

*** Psi4 exiting successfully. Buy a developer a beer!
