
    -----------------------------------------------------------------------
          Psi4: An Open-Source Ab Initio Electronic Structure Package
                               Psi4 1.9 release

                         Git: Rev {} zzzzzzz 


    D. G. A. Smith, L. A. Burns, A. C. Simmonett, R. M. Parrish,
    M. C. Schieber, R. Galvelis, P. Kraus, H. Kruse, R. Di Remigio,
    A. Alenaizan, A. M. James, S. Lehtola, J. P. Misiewicz, M. Scheurer,
    R. A. Shaw, J. B. Schriber, Y. Xie, Z. L. Glick, D. A. Sirianni,
    J. S. O'Brien, J. M. Waldrop, A. Kumar, E. G. Hohenstein,
    B. P. Pritchard, B. R. Brooks, H. F. Schaefer III, A. Yu. Sokolov,
    K. Patkowski, A. E. DePrince III, U. Bozkaya, R. A. King,
    F. A. Evangelista, J. M. Turney, T. D. Crawford, C. D. Sherrill,
    J. Chem. Phys. 152(18) 184108 (2020). https://doi.org/10.1063/5.0006002

                            Additional Code Authors
    E. T. Seidl, C. L. Janssen, E. F. Valeev, M. L. Leininger,
    J. F. Gonthier, R. M. Richard, H. R. McAlexander, M. Saitow, X. Wang,
    P. Verma, M. H. Lechner, A. Jiang, S. Behnle, A. G. Heide,
    M. F. Herbst, and D. L. Poole

             Previous Authors, Complete List of Code Contributors,
                       and Citations for Specific Modules
    https://github.com/psi4/psi4/blob/master/codemeta.json
    https://github.com/psi4/psi4/graphs/contributors
    http://psicode.org/psi4manual/master/introduction.html#citing-psifour

    -----------------------------------------------------------------------


    Psi4 started on: Saturday, 06 January 2024 10:42PM

    Process ID: 558568
    Host:       moses-razer
    PSIDATADIR: /home/kchung25/anaconda3/envs/psi4_19/share/psi4
    Memory:     500.0 MiB
    Threads:    6
    
  ==> Input File <==

--------------------------------------------------------------------------
MEMORY 60 GB

molecule dimer {
-1 1
F      0.000000     0.000000     0.000000
--
0 1
O      0.544622     1.947141    -1.930994
H     -0.303699     2.411400    -1.706903
H      0.604706     1.172877    -1.303359
O     -2.128467     0.389057     1.730632
H     -1.379894     0.192361     1.173874
H     -1.919456     0.067224     2.612103
O     -0.085529    -2.704846    -1.508295
H     -0.656689    -3.406752    -1.099236
H     -0.267173    -1.961465    -0.940136
O      1.549814     1.756379     1.450147
H      1.046493     1.052841     1.074196
H      1.497360     2.437675     0.800406
O     -2.175092    -0.185080    -1.433318
H     -2.620425     0.653858    -1.755423
H     -1.332482     0.046421    -1.015543

units ang
no_reorient
no_com
symmetry c1
}

set {
basis        aug-cc-pVTZ
scf_type     df
}

energy("mp2", bsse_type="cp")
--------------------------------------------------------------------------

  Memory set to  55.879 GiB by Python driver.

Scratch directory: /scratch/

  //>>>>>>>>>>>>>>>>>>>>>>>>>>>>>>>>>>>>>//
  // ManyBody Setup: N-Body Levels [1, 2]//
  //<<<<<<<<<<<<<<<<<<<<<<<<<<<<<<<<<<<<<//

        Number of 1-body computations:     2
        Number of 2-body computations:     1

    -----------------------------------------------------------------------
          Psi4: An Open-Source Ab Initio Electronic Structure Package
                               Psi4 1.9 release

                         Git: Rev {} zzzzzzz 


    D. G. A. Smith, L. A. Burns, A. C. Simmonett, R. M. Parrish,
    M. C. Schieber, R. Galvelis, P. Kraus, H. Kruse, R. Di Remigio,
    A. Alenaizan, A. M. James, S. Lehtola, J. P. Misiewicz, M. Scheurer,
    R. A. Shaw, J. B. Schriber, Y. Xie, Z. L. Glick, D. A. Sirianni,
    J. S. O'Brien, J. M. Waldrop, A. Kumar, E. G. Hohenstein,
    B. P. Pritchard, B. R. Brooks, H. F. Schaefer III, A. Yu. Sokolov,
    K. Patkowski, A. E. DePrince III, U. Bozkaya, R. A. King,
    F. A. Evangelista, J. M. Turney, T. D. Crawford, C. D. Sherrill,
    J. Chem. Phys. 152(18) 184108 (2020). https://doi.org/10.1063/5.0006002

                            Additional Code Authors
    E. T. Seidl, C. L. Janssen, E. F. Valeev, M. L. Leininger,
    J. F. Gonthier, R. M. Richard, H. R. McAlexander, M. Saitow, X. Wang,
    P. Verma, M. H. Lechner, A. Jiang, S. Behnle, A. G. Heide,
    M. F. Herbst, and D. L. Poole

             Previous Authors, Complete List of Code Contributors,
                       and Citations for Specific Modules
    https://github.com/psi4/psi4/blob/master/codemeta.json
    https://github.com/psi4/psi4/graphs/contributors
    http://psicode.org/psi4manual/master/introduction.html#citing-psifour

    -----------------------------------------------------------------------


    Psi4 started on: Saturday, 06 January 2024 10:42PM

    Process ID: 558568
    Host:       moses-razer
    PSIDATADIR: /home/kchung25/anaconda3/envs/psi4_19/share/psi4
    Memory:     55.9 GiB
    Threads:    6
    
  ==> Input QCSchema <==

--------------------------------------------------------------------------
{'driver': 'energy',
 'extras': {'psiapi': True, 'wfn_qcvars_only': True},
 'id': None,
 'keywords': {'SCF_TYPE': 'DF', 'function_kwargs': {}},
 'model': {'basis': 'aug-cc-pvtz', 'method': 'mp2'},
 'molecule': {'atom_labels': ['', '', '', '', '', '', '', '', '', '', '', '', '', '', '', ''],
              'atomic_numbers': [9, 8, 1, 1, 8, 1, 1, 8, 1, 1, 8, 1, 1, 8, 1, 1],
              'extras': {},
              'fix_com': True,
              'fix_orientation': True,
              'fix_symmetry': 'c1',
              'fragment_charges': [0.0, 0.0],
              'fragment_multiplicities': [1, 1],
              'fragments': [[0], [1, 2, 3, 4, 5, 6, 7, 8, 9, 10, 11, 12, 13, 14, 15]],
              'geometry': [0.0, 0.0, 0.0, 1.0291864218990934, 3.679563217650081, -3.6490498099023134,
                           -0.5739079345754169, 4.556885578929006, -3.225579192722343, 1.1427287264211015,
                           2.216416308848601, -2.4629915531505895, -4.022219697074847, 0.7352111771922463,
                           3.270420503953332, -2.6076217421625043, 0.3635096072191933, 2.218300365795683,
                           -3.627246149866781, 0.12703494905777704, 4.936159281486769, -0.16162638578428257,
                           -5.1114181515401045, -2.850264466397414, -1.2409623596007757, -6.437828257355707,
                           -2.0772549872437613, -0.5048837981169443, -3.706631654671139, -1.7765995606834206,
                           2.9287240054002983, 3.3190752825054948, 2.740380671654293, 1.9775851622087388,
                           1.989581143653145, 2.029936245062297, 2.8296003112155335, 4.606538132875412,
                           1.5125481291731984, -4.110328177674318, -0.34975051129973483, -2.7085784706889635,
                           -4.951885582302828, 1.2356125449396047, -3.3172687043295563, -2.5180260471022975,
                           0.08772297646987784, -1.9190981386258192],
              'mass_numbers': [19, 16, 1, 1, 16, 1, 1, 16, 1, 1, 16, 1, 1, 16, 1, 1],
              'masses': [18.99840316273, 15.99491461957, 1.00782503223, 1.00782503223, 15.99491461957, 1.00782503223,
                         1.00782503223, 15.99491461957, 1.00782503223, 1.00782503223, 15.99491461957, 1.00782503223,
                         1.00782503223, 15.99491461957, 1.00782503223, 1.00782503223],
              'molecular_charge': 0.0,
              'molecular_multiplicity': 1,
              'name': 'dimer',
              'provenance': {'creator': 'QCElemental',
                             'routine': 'qcelemental.molparse.from_string',
                             'version': '0.27.1'},
              'real': [False, True, True, True, True, True, True, True, True, True, True, True, True, True, True, True],
              'schema_name': 'qcschema_molecule',
              'schema_version': 2,
              'symbols': ['F', 'O', 'H', 'H', 'O', 'H', 'H', 'O', 'H', 'H', 'O', 'H', 'H', 'O', 'H', 'H'],
              'validated': True},
 'protocols': {'stdout': True},
 'provenance': {'creator': 'QCElemental', 'routine': 'qcelemental.models.results', 'version': '0.27.1'},
 'schema_name': 'qcschema_input',
 'schema_version': 1}
--------------------------------------------------------------------------

Scratch directory: /scratch/
   => Libint2 <=

    Primary   basis highest AM E, G, H:  5, 4, 3
    Auxiliary basis highest AM E, G, H:  6, 5, 4
    Onebody   basis highest AM E, G, H:  6, 5, 4
    Solid Harmonics ordering:            gaussian

*** tstart() called on moses-razer
*** at Sat Jan  6 22:42:40 2024

   => Loading Basis Set <=

    Name: AUG-CC-PVTZ
    Role: ORBITAL
    Keyword: BASIS
    atoms 1                            entry F          line   377 file /home/kchung25/anaconda3/envs/p415env/share/psi4/basis/aug-cc-pvtz.gbs 
    atoms 2, 5, 8, 11, 14              entry O          line   331 file /home/kchung25/anaconda3/envs/p415env/share/psi4/basis/aug-cc-pvtz.gbs 
    atoms 3-4, 6-7, 9-10, 12-13, 15-16 entry H          line    40 file /home/kchung25/anaconda3/envs/p415env/share/psi4/basis/aug-cc-pvtz.gbs 


         ---------------------------------------------------------
                                   SCF
               by Justin Turney, Rob Parrish, Andy Simmonett
                          and Daniel G. A. Smith
                              RHF Reference
                        6 Threads,  57220 MiB Core
         ---------------------------------------------------------

  ==> Geometry <==

    Molecular point group: c1
    Full point group: C1

    Geometry (in Bohr), charge = 0, multiplicity = 1:

       Center              X                  Y                   Z               Mass       
    ------------   -----------------  -----------------  -----------------  -----------------
      Gh(F)           0.000000000000     0.000000000000     0.000000000000    18.998403162730
         O            1.029186421899     3.679563217650    -3.649049809902    15.994914619570
         H           -0.573907934575     4.556885578929    -3.225579192722     1.007825032230
         H            1.142728726421     2.216416308849    -2.462991553151     1.007825032230
         O           -4.022219697075     0.735211177192     3.270420503953    15.994914619570
         H           -2.607621742163     0.363509607219     2.218300365796     1.007825032230
         H           -3.627246149867     0.127034949058     4.936159281487     1.007825032230
         O           -0.161626385784    -5.111418151540    -2.850264466397    15.994914619570
         H           -1.240962359601    -6.437828257356    -2.077254987244     1.007825032230
         H           -0.504883798117    -3.706631654671    -1.776599560683     1.007825032230
         O            2.928724005400     3.319075282505     2.740380671654    15.994914619570
         H            1.977585162209     1.989581143653     2.029936245062     1.007825032230
         H            2.829600311216     4.606538132875     1.512548129173     1.007825032230
         O           -4.110328177674    -0.349750511300    -2.708578470689    15.994914619570
         H           -4.951885582303     1.235612544940    -3.317268704330     1.007825032230
         H           -2.518026047102     0.087722976470    -1.919098138626     1.007825032230

  Running in c1 symmetry.

  Rotational constants: A =      0.04634  B =      0.03407  C =      0.03092 [cm^-1]
  Rotational constants: A =   1389.24999  B =   1021.46632  C =    926.94759 [MHz]
  Nuclear repulsion =  177.641679087408988

  Charge       = 0
  Multiplicity = 1
  Electrons    = 50
  Nalpha       = 25
  Nbeta        = 25

  ==> Algorithm <==

  SCF Algorithm Type is DF.
  DIIS enabled.
  MOM disabled.
  Fractional occupation disabled.
  Guess Type is SAD.
  Energy threshold   = 1.00e-08
  Density threshold  = 1.00e-08
  Integral threshold = 1.00e-12

  ==> Primary Basis <==

  Basis Set: AUG-CC-PVTZ
    Blend: AUG-CC-PVTZ
    Number of shells: 174
    Number of basis functions: 506
    Number of Cartesian functions: 580
    Spherical Harmonics?: true
    Max angular momentum: 3

   => Loading Basis Set <=

    Name: (AUG-CC-PVTZ AUX)
    Role: JKFIT
    Keyword: DF_BASIS_SCF
    atoms 1                            entry F          line   348 file /home/kchung25/anaconda3/envs/p415env/share/psi4/basis/aug-cc-pvtz-jkfit.gbs 
    atoms 2, 5, 8, 11, 14              entry O          line   286 file /home/kchung25/anaconda3/envs/p415env/share/psi4/basis/aug-cc-pvtz-jkfit.gbs 
    atoms 3-4, 6-7, 9-10, 12-13, 15-16 entry H          line    70 file /home/kchung25/anaconda3/envs/p415env/share/psi4/basis/aug-cc-pvtz-jkfit.gbs 

  ==> Integral Setup <==

  DFHelper Memory: AOs need 1.937 GiB; user supplied 41.910 GiB. 
  Using in-core AOs.

  ==> MemDFJK: Density-Fitted J/K Matrices <==

    J tasked:                   Yes
    K tasked:                   Yes
    wK tasked:                   No
    OpenMP threads:               6
    Memory [MiB]:             42915
    Algorithm:                 Core
    Schwarz Cutoff:           1E-12
    Mask sparsity (%):       9.8002
    Fitting Condition:        1E-10

   => Auxiliary Basis Set <=

  Basis Set: (AUG-CC-PVTZ AUX)
    Blend: AUG-CC-PVTZ-JKFIT
    Number of shells: 320
    Number of basis functions: 1084
    Number of Cartesian functions: 1336
    Spherical Harmonics?: true
    Max angular momentum: 4

  Minimum eigenvalue in the overlap matrix is 8.2032168945E-05.
  Reciprocal condition number of the overlap matrix is 5.7806872784E-06.
    Using symmetric orthogonalization.

  ==> Pre-Iterations <==

  SCF Guess: Superposition of Atomic Densities via on-the-fly atomic UHF (no occupation information).

   -------------------------
    Irrep   Nso     Nmo    
   -------------------------
     A        506     506 
   -------------------------
    Total     506     506
   -------------------------

  ==> Iterations <==

                           Total Energy        Delta E     RMS |[F,P]|

   @DF-RHF iter SAD:  -377.48839573550816   -3.77488e+02   0.00000e+00 
   @DF-RHF iter   1:  -379.84954923683233   -2.36115e+00   2.05219e-03 ADIIS/DIIS
   @DF-RHF iter   2:  -380.11168809162871   -2.62139e-01   1.40877e-03 ADIIS/DIIS
   @DF-RHF iter   3:  -380.27051108055190   -1.58823e-01   1.02155e-04 ADIIS/DIIS
   @DF-RHF iter   4:  -380.27278804623143   -2.27697e-03   2.70490e-05 DIIS
   @DF-RHF iter   5:  -380.27293810144488   -1.50055e-04   9.56304e-06 DIIS
   @DF-RHF iter   6:  -380.27295487364722   -1.67722e-05   3.64964e-06 DIIS
   @DF-RHF iter   7:  -380.27295745099588   -2.57735e-06   6.96935e-07 DIIS
   @DF-RHF iter   8:  -380.27295763224885   -1.81253e-07   1.42082e-07 DIIS
   @DF-RHF iter   9:  -380.27295763777335   -5.52450e-09   5.92770e-08 DIIS
   @DF-RHF iter  10:  -380.27295763828840   -5.15058e-10   1.48466e-08 DIIS
   @DF-RHF iter  11:  -380.27295763833934   -5.09317e-11   4.28120e-09 DIIS
  Energy and wave function converged.


  ==> Post-Iterations <==

    Orbital Energies [Eh]
    ---------------------

    Doubly Occupied:                                                      

       1A    -20.606098     2A    -20.592804     3A    -20.586362  
       4A    -20.584969     5A    -20.576078     6A     -1.382106  
       7A     -1.372371     8A     -1.367202     9A     -1.360468  
      10A     -1.352861    11A     -0.749817    12A     -0.743376  
      13A     -0.735954    14A     -0.730070    15A     -0.707431  
      16A     -0.614884    17A     -0.605754    18A     -0.599092  
      19A     -0.593663    20A     -0.588914    21A     -0.540237  
      22A     -0.533677    23A     -0.530781    24A     -0.523911  
      25A     -0.513333  

    Virtual:                                                              

      26A      0.008017    27A      0.028546    28A      0.038495  
      29A      0.040099    30A      0.049702    31A      0.062050  
      32A      0.066789    33A      0.069546    34A      0.084164  
      35A      0.095501    36A      0.110475    37A      0.122248  
      38A      0.134300    39A      0.138674    40A      0.148618  
      41A      0.160119    42A      0.164426    43A      0.171357  
      44A      0.174899    45A      0.177458    46A      0.180860  
      47A      0.188426    48A      0.192743    49A      0.204395  
      50A      0.208334    51A      0.216544    52A      0.220557  
      53A      0.227882    54A      0.230800    55A      0.234048  
      56A      0.235442    57A      0.245974    58A      0.256950  
      59A      0.259306    60A      0.275817    61A      0.279038  
      62A      0.291093    63A      0.303124    64A      0.313637  
      65A      0.317006    66A      0.324846    67A      0.326549  
      68A      0.337338    69A      0.339553    70A      0.352446  
      71A      0.358178    72A      0.360460    73A      0.379545  
      74A      0.383704    75A      0.396536    76A      0.405029  
      77A      0.406394    78A      0.411570    79A      0.420946  
      80A      0.422868    81A      0.432603    82A      0.444069  
      83A      0.453036    84A      0.458816    85A      0.460754  
      86A      0.464969    87A      0.468993    88A      0.483546  
      89A      0.500301    90A      0.503347    91A      0.524914  
      92A      0.533630    93A      0.542013    94A      0.543534  
      95A      0.556016    96A      0.574717    97A      0.586572  
      98A      0.615168    99A      0.616438   100A      0.630377  
     101A      0.648367   102A      0.672444   103A      0.674062  
     104A      0.695266   105A      0.695921   106A      0.698792  
     107A      0.707456   108A      0.713311   109A      0.724213  
     110A      0.731447   111A      0.734043   112A      0.744797  
     113A      0.755147   114A      0.759687   115A      0.766781  
     116A      0.773024   117A      0.778775   118A      0.785894  
     119A      0.798175   120A      0.804468   121A      0.816837  
     122A      0.822542   123A      0.827913   124A      0.832684  
     125A      0.850612   126A      0.857452   127A      0.872677  
     128A      0.884542   129A      0.891896   130A      0.899440  
     131A      0.907063   132A      0.913630   133A      0.919705  
     134A      0.926251   135A      0.933208   136A      0.937402  
     137A      0.942990   138A      0.955979   139A      0.961476  
     140A      0.968940   141A      0.970718   142A      0.977887  
     143A      0.979482   144A      0.985478   145A      0.993974  
     146A      0.999440   147A      1.012948   148A      1.019716  
     149A      1.025288   150A      1.035911   151A      1.039278  
     152A      1.044455   153A      1.048854   154A      1.055887  
     155A      1.060437   156A      1.068273   157A      1.079200  
     158A      1.090212   159A      1.096585   160A      1.119809  
     161A      1.124061   162A      1.126929   163A      1.142566  
     164A      1.152143   165A      1.158879   166A      1.171076  
     167A      1.175940   168A      1.178200   169A      1.187388  
     170A      1.196625   171A      1.212717   172A      1.217732  
     173A      1.229482   174A      1.243790   175A      1.257268  
     176A      1.269651   177A      1.272617   178A      1.278226  
     179A      1.289356   180A      1.301428   181A      1.321594  
     182A      1.333694   183A      1.343821   184A      1.345329  
     185A      1.352334   186A      1.369440   187A      1.387331  
     188A      1.413349   189A      1.421572   190A      1.436916  
     191A      1.441028   192A      1.456310   193A      1.469600  
     194A      1.478424   195A      1.482140   196A      1.508204  
     197A      1.530042   198A      1.535613   199A      1.549800  
     200A      1.564399   201A      1.568055   202A      1.575831  
     203A      1.588177   204A      1.605152   205A      1.609173  
     206A      1.626571   207A      1.634731   208A      1.650014  
     209A      1.658374   210A      1.668648   211A      1.689300  
     212A      1.704230   213A      1.719237   214A      1.738749  
     215A      1.749028   216A      1.754634   217A      1.776918  
     218A      1.784189   219A      1.794968   220A      1.813788  
     221A      1.824106   222A      1.851022   223A      1.875578  
     224A      1.914750   225A      1.921240   226A      1.945331  
     227A      1.973486   228A      1.986256   229A      1.988989  
     230A      2.003992   231A      2.011469   232A      2.030861  
     233A      2.058879   234A      2.075117   235A      2.089179  
     236A      2.139058   237A      2.164153   238A      2.211069  
     239A      2.264120   240A      2.301013   241A      2.304197  
     242A      2.323168   243A      2.344532   244A      2.350249  
     245A      2.374724   246A      2.384079   247A      2.396763  
     248A      2.417607   249A      2.426579   250A      2.443350  
     251A      2.449904   252A      2.453384   253A      2.467201  
     254A      2.472370   255A      2.475303   256A      2.487965  
     257A      2.491875   258A      2.493203   259A      2.512514  
     260A      2.523413   261A      2.529208   262A      2.533445  
     263A      2.545701   264A      2.563978   265A      2.573587  
     266A      2.583836   267A      2.596119   268A      2.612064  
     269A      2.624567   270A      2.639588   271A      2.662145  
     272A      2.667445   273A      2.683792   274A      2.703850  
     275A      2.705821   276A      2.722250   277A      2.736014  
     278A      2.741475   279A      2.751956   280A      2.761044  
     281A      2.784322   282A      2.792869   283A      2.800791  
     284A      2.811621   285A      2.822715   286A      2.835357  
     287A      2.849356   288A      2.892195   289A      2.894237  
     290A      2.910616   291A      2.932340   292A      2.940814  
     293A      2.974364   294A      2.978757   295A      3.004859  
     296A      3.031018   297A      3.040985   298A      3.051279  
     299A      3.069283   300A      3.079416   301A      3.095934  
     302A      3.132319   303A      3.165865   304A      3.373104  
     305A      3.401630   306A      3.453602   307A      3.554345  
     308A      3.581291   309A      3.608348   310A      3.649594  
     311A      3.685240   312A      3.715169   313A      3.727811  
     314A      3.732931   315A      3.756602   316A      3.787712  
     317A      3.842498   318A      3.918113   319A      3.940193  
     320A      3.977913   321A      3.984991   322A      4.007772  
     323A      4.051018   324A      4.059728   325A      4.075320  
     326A      4.079895   327A      4.097267   328A      4.125117  
     329A      4.129320   330A      4.144566   331A      4.159640  
     332A      4.181610   333A      4.191622   334A      4.222197  
     335A      4.239390   336A      4.250139   337A      4.260222  
     338A      4.272484   339A      4.285505   340A      4.286701  
     341A      4.291900   342A      4.307315   343A      4.316296  
     344A      4.325895   345A      4.345247   346A      4.356377  
     347A      4.360757   348A      4.365473   349A      4.370389  
     350A      4.381728   351A      4.387021   352A      4.406119  
     353A      4.416964   354A      4.424641   355A      4.433674  
     356A      4.439645   357A      4.454295   358A      4.468266  
     359A      4.491222   360A      4.503703   361A      4.507509  
     362A      4.524011   363A      4.538774   364A      4.558390  
     365A      4.573785   366A      4.583718   367A      4.589982  
     368A      4.608412   369A      4.624837   370A      4.679061  
     371A      4.694106   372A      4.699359   373A      4.736645  
     374A      4.760384   375A      4.787680   376A      4.790043  
     377A      4.818224   378A      4.846723   379A      4.883058  
     380A      4.923914   381A      4.973077   382A      4.986269  
     383A      5.037311   384A      5.089694   385A      5.116786  
     386A      5.144784   387A      5.150719   388A      5.163324  
     389A      5.204588   390A      5.206679   391A      5.214008  
     392A      5.229942   393A      5.251997   394A      5.282946  
     395A      5.293430   396A      5.312360   397A      5.344338  
     398A      5.363104   399A      5.382023   400A      5.383955  
     401A      5.425993   402A      5.444754   403A      5.505377  
     404A      5.535016   405A      5.557584   406A      5.575974  
     407A      5.604736   408A      5.644421   409A      5.690174  
     410A      5.713769   411A      5.733834   412A      5.821757  
     413A      5.833163   414A      5.862298   415A      6.225979  
     416A      6.251199   417A      6.266646   418A      6.295892  
     419A      6.307620   420A      6.548113   421A      6.559727  
     422A      6.566232   423A      6.583239   424A      6.650988  
     425A      6.779196   426A      6.782522   427A      6.786700  
     428A      6.836185   429A      6.849522   430A      6.894478  
     431A      6.947082   432A      6.954913   433A      7.010768  
     434A      7.030055   435A      7.118817   436A      7.131514  
     437A      7.162642   438A      7.174342   439A      7.199244  
     440A      7.253020   441A      7.265581   442A      7.272081  
     443A      7.285909   444A      7.294373   445A      7.312906  
     446A      7.317254   447A      7.325562   448A      7.343271  
     449A      7.356950   450A      7.359817   451A      7.367113  
     452A      7.372605   453A      7.393677   454A      7.397258  
     455A      7.411920   456A      7.433887   457A      7.440378  
     458A      7.447644   459A      7.464925   460A      7.482069  
     461A      7.507642   462A      7.528313   463A      7.549311  
     464A      7.589680   465A      7.627098   466A      7.680415  
     467A      7.789138   468A      7.816446   469A      7.823203  
     470A      7.900035   471A      7.940804   472A      7.969038  
     473A      7.971616   474A      7.998060   475A      8.004066  
     476A      8.038976   477A      8.067029   478A      8.094892  
     479A      8.110678   480A      8.633293   481A      8.721858  
     482A      8.789826   483A      8.866345   484A      8.951843  
     485A     10.362295   486A     10.389112   487A     10.396555  
     488A     10.441092   489A     10.564272   490A     10.692976  
     491A     10.973671   492A     12.146001   493A     13.081631  
     494A     13.159057   495A     13.254166   496A     13.304948  
     497A     13.413717   498A     14.906903   499A     15.163234  
     500A     15.255076   501A     15.915180   502A     16.268764  
     503A     16.652732   504A     17.360518   505A     17.855258  
     506A     75.534447  

    Final Occupation by Irrep:
              A 
    DOCC [    25 ]
    NA   [    25 ]
    NB   [    25 ]

  @DF-RHF Final Energy:  -380.27295763833934

   => Energetics <=

    Nuclear Repulsion Energy =            177.6416790874089884
    One-Electron Energy =                -877.6448464320480980
    Two-Electron Energy =                 319.7302097062997746
    Total Energy =                       -380.2729576383393351

Computation Completed


Properties will be evaluated at   0.000000,   0.000000,   0.000000 [a0]

Properties computed using the SCF density matrix


 Multipole Moments:

 ------------------------------------------------------------------------------------
     Multipole            Electronic (a.u.)      Nuclear  (a.u.)        Total (a.u.)
 ------------------------------------------------------------------------------------

 L = 1.  Multiply by 2.5417464519 to convert [e a0] to [Debye]
 Dipole X            :         44.1765028          -44.7647301           -0.5882273
 Dipole Y            :        -22.9923718           23.2202894            0.2279176
 Dipole Z            :         30.3355164          -29.6585807            0.6769357
 Magnitude           :                                                    0.9253106

 ------------------------------------------------------------------------------------

*** tstop() called on moses-razer at Sat Jan  6 22:42:49 2024
Module time:
	user time   =      46.21 seconds =       0.77 minutes
	system time =       1.73 seconds =       0.03 minutes
	total time  =          9 seconds =       0.15 minutes
Total time:
	user time   =      46.21 seconds =       0.77 minutes
	system time =       1.73 seconds =       0.03 minutes
	total time  =          9 seconds =       0.15 minutes

*** tstart() called on moses-razer
*** at Sat Jan  6 22:42:49 2024


  //>>>>>>>>>>>>>>>>>>>>>>>>>>>>>>>>>>>//
  //               DFMP2               //
  //<<<<<<<<<<<<<<<<<<<<<<<<<<<<<<<<<<<//

   => Loading Basis Set <=

    Name: (AUG-CC-PVTZ AUX)
    Role: RIFIT
    Keyword: DF_BASIS_MP2
    atoms 1                            entry F          line   322 file /home/kchung25/anaconda3/envs/p415env/share/psi4/basis/aug-cc-pvtz-ri.gbs 
    atoms 2, 5, 8, 11, 14              entry O          line   264 file /home/kchung25/anaconda3/envs/p415env/share/psi4/basis/aug-cc-pvtz-ri.gbs 
    atoms 3-4, 6-7, 9-10, 12-13, 15-16 entry H          line    30 file /home/kchung25/anaconda3/envs/p415env/share/psi4/basis/aug-cc-pvtz-ri.gbs 

	 --------------------------------------------------------
	                          DF-MP2                         
	      2nd-Order Density-Fitted Moller-Plesset Theory     
	              RMP2 Wavefunction,   6 Threads             
	                                                         
	        Rob Parrish, Justin Turney, Andy Simmonett,      
	           Ed Hohenstein, and C. David Sherrill          
	 --------------------------------------------------------

   => Auxiliary Basis Set <=

  Basis Set: (AUG-CC-PVTZ AUX)
    Blend: AUG-CC-PVTZ-RI
    Number of shells: 308
    Number of basis functions: 1096
    Number of Cartesian functions: 1366
    Spherical Harmonics?: true
    Max angular momentum: 4

	 --------------------------------------------------------
	                 NBF =   506, NAUX =  1096
	 --------------------------------------------------------
	   CLASS    FOCC     OCC    AOCC    AVIR     VIR    FVIR
	   PAIRS       0      25      25     481     481       0
	 --------------------------------------------------------

	-----------------------------------------------------------
	 ==================> DF-MP2 Energies <==================== 
	-----------------------------------------------------------
	 Reference Energy          =    -380.2729576383393351 [Eh]
	 Singles Energy            =      -0.0000000000000000 [Eh]
	 Same-Spin Energy          =      -0.3458816109418086 [Eh]
	 Opposite-Spin Energy      =      -1.0873860531518940 [Eh]
	 Correlation Energy        =      -1.4332676640937025 [Eh]
	 Total Energy              =    -381.7062253024330403 [Eh]
	-----------------------------------------------------------
	 ================> DF-SCS-MP2 Energies <================== 
	-----------------------------------------------------------
	 SCS Same-Spin Scale       =       0.3333333333333333 [-]
	 SCS Opposite-Spin Scale   =       1.2000000000000000 [-]
	 SCS Same-Spin Energy      =      -0.1152938703139362 [Eh]
	 SCS Opposite-Spin Energy  =      -1.3048632637822728 [Eh]
	 SCS Correlation Energy    =      -1.4201571340962089 [Eh]
	 SCS Total Energy          =    -381.6931147724355355 [Eh]
	-----------------------------------------------------------


*** tstop() called on moses-razer at Sat Jan  6 22:42:53 2024
Module time:
	user time   =      17.92 seconds =       0.30 minutes
	system time =       0.92 seconds =       0.02 minutes
	total time  =          4 seconds =       0.07 minutes
Total time:
	user time   =      64.14 seconds =       1.07 minutes
	system time =       2.65 seconds =       0.04 minutes
	total time  =         13 seconds =       0.22 minutes

    Psi4 stopped on: Saturday, 06 January 2024 10:42PM
    Psi4 wall time for execution: 0:00:12.32


    -----------------------------------------------------------------------
          Psi4: An Open-Source Ab Initio Electronic Structure Package
                               Psi4 1.9 release

                         Git: Rev {} zzzzzzz 


    D. G. A. Smith, L. A. Burns, A. C. Simmonett, R. M. Parrish,
    M. C. Schieber, R. Galvelis, P. Kraus, H. Kruse, R. Di Remigio,
    A. Alenaizan, A. M. James, S. Lehtola, J. P. Misiewicz, M. Scheurer,
    R. A. Shaw, J. B. Schriber, Y. Xie, Z. L. Glick, D. A. Sirianni,
    J. S. O'Brien, J. M. Waldrop, A. Kumar, E. G. Hohenstein,
    B. P. Pritchard, B. R. Brooks, H. F. Schaefer III, A. Yu. Sokolov,
    K. Patkowski, A. E. DePrince III, U. Bozkaya, R. A. King,
    F. A. Evangelista, J. M. Turney, T. D. Crawford, C. D. Sherrill,
    J. Chem. Phys. 152(18) 184108 (2020). https://doi.org/10.1063/5.0006002

                            Additional Code Authors
    E. T. Seidl, C. L. Janssen, E. F. Valeev, M. L. Leininger,
    J. F. Gonthier, R. M. Richard, H. R. McAlexander, M. Saitow, X. Wang,
    P. Verma, M. H. Lechner, A. Jiang, S. Behnle, A. G. Heide,
    M. F. Herbst, and D. L. Poole

             Previous Authors, Complete List of Code Contributors,
                       and Citations for Specific Modules
    https://github.com/psi4/psi4/blob/master/codemeta.json
    https://github.com/psi4/psi4/graphs/contributors
    http://psicode.org/psi4manual/master/introduction.html#citing-psifour

    -----------------------------------------------------------------------


    Psi4 started on: Saturday, 06 January 2024 10:42PM

    Process ID: 558568
    Host:       moses-razer
    PSIDATADIR: /home/kchung25/anaconda3/envs/psi4_19/share/psi4
    Memory:     55.9 GiB
    Threads:    6
    
  ==> Input QCSchema <==

--------------------------------------------------------------------------
{'driver': 'energy',
 'extras': {'psiapi': True, 'wfn_qcvars_only': True},
 'id': None,
 'keywords': {'SCF_TYPE': 'DF', 'function_kwargs': {}},
 'model': {'basis': 'aug-cc-pvtz', 'method': 'mp2'},
 'molecule': {'atom_labels': ['', '', '', '', '', '', '', '', '', '', '', '', '', '', '', ''],
              'atomic_numbers': [9, 8, 1, 1, 8, 1, 1, 8, 1, 1, 8, 1, 1, 8, 1, 1],
              'extras': {},
              'fix_com': True,
              'fix_orientation': True,
              'fix_symmetry': 'c1',
              'fragment_charges': [-1.0, 0.0],
              'fragment_multiplicities': [1, 1],
              'fragments': [[0], [1, 2, 3, 4, 5, 6, 7, 8, 9, 10, 11, 12, 13, 14, 15]],
              'geometry': [0.0, 0.0, 0.0, 1.0291864218990934, 3.679563217650081, -3.6490498099023134,
                           -0.5739079345754169, 4.556885578929006, -3.225579192722343, 1.1427287264211015,
                           2.216416308848601, -2.4629915531505895, -4.022219697074847, 0.7352111771922463,
                           3.270420503953332, -2.6076217421625043, 0.3635096072191933, 2.218300365795683,
                           -3.627246149866781, 0.12703494905777704, 4.936159281486769, -0.16162638578428257,
                           -5.1114181515401045, -2.850264466397414, -1.2409623596007757, -6.437828257355707,
                           -2.0772549872437613, -0.5048837981169443, -3.706631654671139, -1.7765995606834206,
                           2.9287240054002983, 3.3190752825054948, 2.740380671654293, 1.9775851622087388,
                           1.989581143653145, 2.029936245062297, 2.8296003112155335, 4.606538132875412,
                           1.5125481291731984, -4.110328177674318, -0.34975051129973483, -2.7085784706889635,
                           -4.951885582302828, 1.2356125449396047, -3.3172687043295563, -2.5180260471022975,
                           0.08772297646987784, -1.9190981386258192],
              'mass_numbers': [19, 16, 1, 1, 16, 1, 1, 16, 1, 1, 16, 1, 1, 16, 1, 1],
              'masses': [18.99840316273, 15.99491461957, 1.00782503223, 1.00782503223, 15.99491461957, 1.00782503223,
                         1.00782503223, 15.99491461957, 1.00782503223, 1.00782503223, 15.99491461957, 1.00782503223,
                         1.00782503223, 15.99491461957, 1.00782503223, 1.00782503223],
              'molecular_charge': -1.0,
              'molecular_multiplicity': 1,
              'name': 'dimer',
              'provenance': {'creator': 'QCElemental',
                             'routine': 'qcelemental.molparse.from_string',
                             'version': '0.27.1'},
              'real': [True, False, False, False, False, False, False, False, False, False, False, False, False, False,
                       False, False],
              'schema_name': 'qcschema_molecule',
              'schema_version': 2,
              'symbols': ['F', 'O', 'H', 'H', 'O', 'H', 'H', 'O', 'H', 'H', 'O', 'H', 'H', 'O', 'H', 'H'],
              'validated': True},
 'protocols': {'stdout': True},
 'provenance': {'creator': 'QCElemental', 'routine': 'qcelemental.models.results', 'version': '0.27.1'},
 'schema_name': 'qcschema_input',
 'schema_version': 1}
--------------------------------------------------------------------------

Scratch directory: /scratch/
   => Libint2 <=

    Primary   basis highest AM E, G, H:  5, 4, 3
    Auxiliary basis highest AM E, G, H:  6, 5, 4
    Onebody   basis highest AM E, G, H:  6, 5, 4
    Solid Harmonics ordering:            gaussian

*** tstart() called on moses-razer
*** at Sat Jan  6 22:42:53 2024

   => Loading Basis Set <=

    Name: AUG-CC-PVTZ
    Role: ORBITAL
    Keyword: BASIS
    atoms 1                            entry F          line   377 file /home/kchung25/anaconda3/envs/p415env/share/psi4/basis/aug-cc-pvtz.gbs 
    atoms 2, 5, 8, 11, 14              entry O          line   331 file /home/kchung25/anaconda3/envs/p415env/share/psi4/basis/aug-cc-pvtz.gbs 
    atoms 3-4, 6-7, 9-10, 12-13, 15-16 entry H          line    40 file /home/kchung25/anaconda3/envs/p415env/share/psi4/basis/aug-cc-pvtz.gbs 


         ---------------------------------------------------------
                                   SCF
               by Justin Turney, Rob Parrish, Andy Simmonett
                          and Daniel G. A. Smith
                              RHF Reference
                        6 Threads,  57220 MiB Core
         ---------------------------------------------------------

  ==> Geometry <==

    Molecular point group: c1
    Full point group: C1

    Geometry (in Bohr), charge = -1, multiplicity = 1:

       Center              X                  Y                   Z               Mass       
    ------------   -----------------  -----------------  -----------------  -----------------
         F            0.000000000000     0.000000000000     0.000000000000    18.998403162730
      Gh(O)           1.029186421899     3.679563217650    -3.649049809902    15.994914619570
      Gh(H)          -0.573907934575     4.556885578929    -3.225579192722     1.007825032230
      Gh(H)           1.142728726421     2.216416308849    -2.462991553151     1.007825032230
      Gh(O)          -4.022219697075     0.735211177192     3.270420503953    15.994914619570
      Gh(H)          -2.607621742163     0.363509607219     2.218300365796     1.007825032230
      Gh(H)          -3.627246149867     0.127034949058     4.936159281487     1.007825032230
      Gh(O)          -0.161626385784    -5.111418151540    -2.850264466397    15.994914619570
      Gh(H)          -1.240962359601    -6.437828257356    -2.077254987244     1.007825032230
      Gh(H)          -0.504883798117    -3.706631654671    -1.776599560683     1.007825032230
      Gh(O)           2.928724005400     3.319075282505     2.740380671654    15.994914619570
      Gh(H)           1.977585162209     1.989581143653     2.029936245062     1.007825032230
      Gh(H)           2.829600311216     4.606538132875     1.512548129173     1.007825032230
      Gh(O)          -4.110328177674    -0.349750511300    -2.708578470689    15.994914619570
      Gh(H)          -4.951885582303     1.235612544940    -3.317268704330     1.007825032230
      Gh(H)          -2.518026047102     0.087722976470    -1.919098138626     1.007825032230

  Running in c1 symmetry.

  Rotational constants: A =      0.04634  B =      0.03407  C =      0.03092 [cm^-1]
  Rotational constants: A =   1389.24999  B =   1021.46632  C =    926.94759 [MHz]
  Nuclear repulsion =    0.000000000000000

  Charge       = -1
  Multiplicity = 1
  Electrons    = 10
  Nalpha       = 5
  Nbeta        = 5

  ==> Algorithm <==

  SCF Algorithm Type is DF.
  DIIS enabled.
  MOM disabled.
  Fractional occupation disabled.
  Guess Type is SAD.
  Energy threshold   = 1.00e-08
  Density threshold  = 1.00e-08
  Integral threshold = 1.00e-12

  ==> Primary Basis <==

  Basis Set: AUG-CC-PVTZ
    Blend: AUG-CC-PVTZ
    Number of shells: 174
    Number of basis functions: 506
    Number of Cartesian functions: 580
    Spherical Harmonics?: true
    Max angular momentum: 3

   => Loading Basis Set <=

    Name: (AUG-CC-PVTZ AUX)
    Role: JKFIT
    Keyword: DF_BASIS_SCF
    atoms 1                            entry F          line   348 file /home/kchung25/anaconda3/envs/p415env/share/psi4/basis/aug-cc-pvtz-jkfit.gbs 
    atoms 2, 5, 8, 11, 14              entry O          line   286 file /home/kchung25/anaconda3/envs/p415env/share/psi4/basis/aug-cc-pvtz-jkfit.gbs 
    atoms 3-4, 6-7, 9-10, 12-13, 15-16 entry H          line    70 file /home/kchung25/anaconda3/envs/p415env/share/psi4/basis/aug-cc-pvtz-jkfit.gbs 

  ==> Integral Setup <==

  DFHelper Memory: AOs need 1.937 GiB; user supplied 41.910 GiB. 
  Using in-core AOs.

  ==> MemDFJK: Density-Fitted J/K Matrices <==

    J tasked:                   Yes
    K tasked:                   Yes
    wK tasked:                   No
    OpenMP threads:               6
    Memory [MiB]:             42915
    Algorithm:                 Core
    Schwarz Cutoff:           1E-12
    Mask sparsity (%):       9.8002
    Fitting Condition:        1E-10

   => Auxiliary Basis Set <=

  Basis Set: (AUG-CC-PVTZ AUX)
    Blend: AUG-CC-PVTZ-JKFIT
    Number of shells: 320
    Number of basis functions: 1084
    Number of Cartesian functions: 1336
    Spherical Harmonics?: true
    Max angular momentum: 4

  Minimum eigenvalue in the overlap matrix is 8.2032168945E-05.
  Reciprocal condition number of the overlap matrix is 5.7806872784E-06.
    Using symmetric orthogonalization.

  ==> Pre-Iterations <==

  SCF Guess: Superposition of Atomic Densities via on-the-fly atomic UHF (no occupation information).

   -------------------------
    Irrep   Nso     Nmo    
   -------------------------
     A        506     506 
   -------------------------
    Total     506     506
   -------------------------

  ==> Iterations <==

                           Total Energy        Delta E     RMS |[F,P]|

   @DF-RHF iter SAD:   -98.82535136122308   -9.88254e+01   0.00000e+00 
   @DF-RHF iter   1:   -99.33799734079957   -5.12646e-01   1.07897e-03 ADIIS/DIIS
   @DF-RHF iter   2:   -99.37296679270149   -3.49695e-02   1.05499e-03 ADIIS/DIIS
   @DF-RHF iter   3:   -99.45103142501249   -7.80646e-02   3.74094e-05 DIIS
   @DF-RHF iter   4:   -99.45110888107682   -7.74561e-05   1.30974e-05 DIIS
   @DF-RHF iter   5:   -99.45111999807737   -1.11170e-05   8.25694e-07 DIIS
   @DF-RHF iter   6:   -99.45112009971993   -1.01643e-07   8.08412e-08 DIIS
   @DF-RHF iter   7:   -99.45112010087313   -1.15320e-09   9.91513e-09 DIIS
  Energy and wave function converged.


  ==> Post-Iterations <==

    Orbital Energies [Eh]
    ---------------------

    Doubly Occupied:                                                      

       1A    -25.833586     2A     -1.075893     3A     -0.180936  
       4A     -0.180915     5A     -0.180885  

    Virtual:                                                              

       6A      0.123001     7A      0.130100     8A      0.135346  
       9A      0.141059    10A      0.153689    11A      0.169344  
      12A      0.173621    13A      0.187444    14A      0.192839  
      15A      0.199650    16A      0.236325    17A      0.262313  
      18A      0.264630    19A      0.265360    20A      0.269489  
      21A      0.274837    22A      0.276001    23A      0.283185  
      24A      0.283640    25A      0.293046    26A      0.309258  
      27A      0.315771    28A      0.321256    29A      0.324941  
      30A      0.326464    31A      0.335564    32A      0.343458  
      33A      0.348648    34A      0.357652    35A      0.382020  
      36A      0.404028    37A      0.409820    38A      0.417802  
      39A      0.425495    40A      0.434544    41A      0.444365  
      42A      0.463675    43A      0.467123    44A      0.476073  
      45A      0.480871    46A      0.489889    47A      0.491680  
      48A      0.504434    49A      0.510876    50A      0.513558  
      51A      0.520487    52A      0.531131    53A      0.534214  
      54A      0.536706    55A      0.548004    56A      0.551843  
      57A      0.558488    58A      0.559718    59A      0.573360  
      60A      0.580315    61A      0.600386    62A      0.604886  
      63A      0.606813    64A      0.609244    65A      0.622877  
      66A      0.634673    67A      0.645483    68A      0.656620  
      69A      0.661929    70A      0.695333    71A      0.701218  
      72A      0.724181    73A      0.729670    74A      0.765581  
      75A      0.780784    76A      0.799161    77A      0.819332  
      78A      0.836056    79A      0.844603    80A      0.860044  
      81A      0.876011    82A      0.883925    83A      0.892709  
      84A      0.900025    85A      0.906769    86A      0.916890  
      87A      0.930938    88A      0.935837    89A      0.944410  
      90A      0.948837    91A      0.955022    92A      0.961418  
      93A      0.969941    94A      0.983884    95A      0.987378  
      96A      0.991551    97A      1.001218    98A      1.003638  
      99A      1.010774   100A      1.014943   101A      1.018816  
     102A      1.026273   103A      1.031489   104A      1.040965  
     105A      1.049535   106A      1.062649   107A      1.064769  
     108A      1.070842   109A      1.081045   110A      1.087386  
     111A      1.096213   112A      1.104306   113A      1.109066  
     114A      1.110561   115A      1.118947   116A      1.124985  
     117A      1.134190   118A      1.136444   119A      1.138490  
     120A      1.147944   121A      1.161407   122A      1.167378  
     123A      1.172944   124A      1.180282   125A      1.184671  
     126A      1.190426   127A      1.200585   128A      1.208847  
     129A      1.213321   130A      1.234254   131A      1.236424  
     132A      1.239150   133A      1.248984   134A      1.263528  
     135A      1.265293   136A      1.295863   137A      1.302015  
     138A      1.308501   139A      1.319210   140A      1.325868  
     141A      1.333409   142A      1.361335   143A      1.371894  
     144A      1.381097   145A      1.388240   146A      1.396656  
     147A      1.402895   148A      1.410974   149A      1.418349  
     150A      1.451437   151A      1.463383   152A      1.467794  
     153A      1.473633   154A      1.493536   155A      1.510500  
     156A      1.523642   157A      1.533865   158A      1.542119  
     159A      1.553756   160A      1.570411   161A      1.578198  
     162A      1.603514   163A      1.623377   164A      1.625148  
     165A      1.642883   166A      1.659734   167A      1.674719  
     168A      1.694282   169A      1.703646   170A      1.723001  
     171A      1.728890   172A      1.739601   173A      1.749600  
     174A      1.752286   175A      1.773799   176A      1.802277  
     177A      1.813848   178A      1.818108   179A      1.853799  
     180A      1.869373   181A      1.879262   182A      1.890198  
     183A      1.904207   184A      1.918136   185A      1.924662  
     186A      1.934898   187A      1.940926   188A      1.955338  
     189A      1.964436   190A      1.971403   191A      1.976310  
     192A      2.006583   193A      2.010421   194A      2.016212  
     195A      2.033133   196A      2.041889   197A      2.057056  
     198A      2.065968   199A      2.072476   200A      2.076859  
     201A      2.100158   202A      2.123999   203A      2.133331  
     204A      2.152278   205A      2.161649   206A      2.181568  
     207A      2.200122   208A      2.211526   209A      2.218747  
     210A      2.236425   211A      2.263928   212A      2.274706  
     213A      2.305908   214A      2.348338   215A      2.375220  
     216A      2.389921   217A      2.396839   218A      2.434463  
     219A      2.479409   220A      2.552786   221A      2.613069  
     222A      2.639611   223A      2.643271   224A      2.658615  
     225A      2.674014   226A      2.680239   227A      2.688106  
     228A      2.695885   229A      2.706706   230A      2.718605  
     231A      2.727677   232A      2.732765   233A      2.757706  
     234A      2.762847   235A      2.770967   236A      2.786210  
     237A      2.792878   238A      2.812189   239A      2.820559  
     240A      2.835767   241A      2.856466   242A      2.865757  
     243A      2.870251   244A      2.872928   245A      2.894820  
     246A      2.901152   247A      2.909265   248A      2.942284  
     249A      2.944174   250A      2.966495   251A      2.982448  
     252A      2.983818   253A      3.003229   254A      3.014266  
     255A      3.027259   256A      3.069007   257A      3.078295  
     258A      3.089639   259A      3.109131   260A      3.136266  
     261A      3.169435   262A      3.178580   263A      3.202929  
     264A      3.222240   265A      3.240210   266A      3.273780  
     267A      3.285008   268A      3.325762   269A      3.348557  
     270A      3.378935   271A      3.391825   272A      3.398646  
     273A      3.412961   274A      3.417239   275A      3.431757  
     276A      3.441715   277A      3.461491   278A      3.470967  
     279A      3.485525   280A      3.529768   281A      3.532859  
     282A      3.540615   283A      3.576115   284A      3.589073  
     285A      3.630462   286A      3.642144   287A      3.668833  
     288A      3.678373   289A      3.692361   290A      3.717797  
     291A      3.732826   292A      3.741746   293A      3.750291  
     294A      3.778123   295A      3.780942   296A      3.820281  
     297A      3.832877   298A      3.876223   299A      3.891539  
     300A      3.909549   301A      3.924323   302A      3.935107  
     303A      3.967600   304A      3.989117   305A      4.002845  
     306A      4.011015   307A      4.016207   308A      4.062982  
     309A      4.086477   310A      4.153992   311A      4.194696  
     312A      4.250182   313A      4.317086   314A      4.429735  
     315A      4.569653   316A      4.594057   317A      4.609870  
     318A      4.627935   319A      4.636433   320A      4.654982  
     321A      4.661852   322A      4.676410   323A      4.680717  
     324A      4.706466   325A      4.715626   326A      4.796918  
     327A      4.815083   328A      4.844455   329A      4.853698  
     330A      4.873313   331A      4.888365   332A      4.891898  
     333A      4.908065   334A      4.918363   335A      4.925402  
     336A      4.967116   337A      4.975420   338A      4.981043  
     339A      5.012535   340A      5.022964   341A      5.048706  
     342A      5.065904   343A      5.077527   344A      5.091500  
     345A      5.097812   346A      5.141788   347A      5.161246  
     348A      5.185595   349A      5.197863   350A      5.204110  
     351A      5.257099   352A      5.261322   353A      5.305309  
     354A      5.323313   355A      5.375211   356A      5.388781  
     357A      5.400005   358A      5.402963   359A      5.434198  
     360A      5.494038   361A      5.525753   362A      5.558702  
     363A      5.594884   364A      5.598820   365A      5.622028  
     366A      5.699403   367A      5.718394   368A      5.728903  
     369A      5.750265   370A      5.760471   371A      5.779721  
     372A      5.829723   373A      5.845884   374A      5.868082  
     375A      5.898702   376A      5.916709   377A      5.931373  
     378A      5.974517   379A      6.005695   380A      6.016687  
     381A      6.031778   382A      6.071496   383A      6.107094  
     384A      6.140973   385A      6.178778   386A      6.332768  
     387A      6.347237   388A      6.394759   389A      6.411229  
     390A      6.539608   391A      6.577553   392A      6.597764  
     393A      6.624339   394A      6.714310   395A      6.773503  
     396A      6.789906   397A      6.805069   398A      6.812390  
     399A      6.912086   400A      6.972975   401A      6.991431  
     402A      7.006693   403A      7.056285   404A      7.217494  
     405A      7.284900   406A      7.348897   407A      7.386361  
     408A      7.467035   409A      7.901960   410A      7.929980  
     411A      7.933914   412A      7.980961   413A      7.990926  
     414A      8.040680   415A      8.044960   416A      8.051523  
     417A      8.081785   418A      8.139673   419A      8.193382  
     420A      8.268083   421A      8.297615   422A      8.299183  
     423A      8.322815   424A      8.368923   425A      8.413106  
     426A      8.446130   427A      8.456897   428A      8.476737  
     429A      8.493646   430A      8.510465   431A      8.540959  
     432A      8.564885   433A      8.572602   434A      8.845336  
     435A      8.924173   436A      8.962114   437A      9.002301  
     438A      9.050508   439A      9.120561   440A      9.131850  
     441A      9.248967   442A      9.331557   443A      9.363485  
     444A      9.600339   445A      9.631478   446A      9.644333  
     447A      9.692013   448A      9.792652   449A      9.866660  
     450A      9.889222   451A      9.920106   452A      9.974185  
     453A     10.001640   454A     10.016709   455A     10.050866  
     456A     10.070406   457A     10.084407   458A     10.098411  
     459A     10.114790   460A     10.123991   461A     10.149919  
     462A     10.160993   463A     10.226500   464A     10.263429  
     465A     10.295019   466A     10.308551   467A     10.312760  
     468A     10.343363   469A     10.365197   470A     10.462032  
     471A     10.529731   472A     10.545729   473A     10.590801  
     474A     10.626386   475A     10.633418   476A     11.246496  
     477A     11.289575   478A     11.328685   479A     11.493507  
     480A     11.620232   481A     11.928212   482A     11.938064  
     483A     12.030773   484A     12.063661   485A     12.101667  
     486A     12.159813   487A     12.332076   488A     12.438529  
     489A     12.649698   490A     12.763650   491A     13.694067  
     492A     13.739975   493A     13.790842   494A     13.930598  
     495A     13.992432   496A     14.167094   497A     14.176138  
     498A     14.243817   499A     14.297664   500A     14.345412  
     501A     16.089695   502A     65.129309   503A     65.877613  
     504A     66.677750   505A     67.950204   506A     68.973949  

    Final Occupation by Irrep:
              A 
    DOCC [     5 ]
    NA   [     5 ]
    NB   [     5 ]

  @DF-RHF Final Energy:   -99.45112010087313

   => Energetics <=

    Nuclear Repulsion Energy =              0.0000000000000000
    One-Electron Energy =                -143.9978022359196927
    Two-Electron Energy =                  44.5466821350465665
    Total Energy =                        -99.4511201008731263

Computation Completed


Properties will be evaluated at   0.000000,   0.000000,   0.000000 [a0]

Properties computed using the SCF density matrix


 Multipole Moments:

 ------------------------------------------------------------------------------------
     Multipole            Electronic (a.u.)      Nuclear  (a.u.)        Total (a.u.)
 ------------------------------------------------------------------------------------

 L = 1.  Multiply by 2.5417464519 to convert [e a0] to [Debye]
 Dipole X            :         -0.0001865            0.0000000           -0.0001865
 Dipole Y            :          0.0001565            0.0000000            0.0001565
 Dipole Z            :         -0.0000854            0.0000000           -0.0000854
 Magnitude           :                                                    0.0002580

 ------------------------------------------------------------------------------------

*** tstop() called on moses-razer at Sat Jan  6 22:42:59 2024
Module time:
	user time   =      31.75 seconds =       0.53 minutes
	system time =       1.13 seconds =       0.02 minutes
	total time  =          6 seconds =       0.10 minutes
Total time:
	user time   =      96.24 seconds =       1.60 minutes
	system time =       3.79 seconds =       0.06 minutes
	total time  =         19 seconds =       0.32 minutes

*** tstart() called on moses-razer
*** at Sat Jan  6 22:42:59 2024


  //>>>>>>>>>>>>>>>>>>>>>>>>>>>>>>>>>>>//
  //               DFMP2               //
  //<<<<<<<<<<<<<<<<<<<<<<<<<<<<<<<<<<<//

   => Loading Basis Set <=

    Name: (AUG-CC-PVTZ AUX)
    Role: RIFIT
    Keyword: DF_BASIS_MP2
    atoms 1                            entry F          line   322 file /home/kchung25/anaconda3/envs/p415env/share/psi4/basis/aug-cc-pvtz-ri.gbs 
    atoms 2, 5, 8, 11, 14              entry O          line   264 file /home/kchung25/anaconda3/envs/p415env/share/psi4/basis/aug-cc-pvtz-ri.gbs 
    atoms 3-4, 6-7, 9-10, 12-13, 15-16 entry H          line    30 file /home/kchung25/anaconda3/envs/p415env/share/psi4/basis/aug-cc-pvtz-ri.gbs 

	 --------------------------------------------------------
	                          DF-MP2                         
	      2nd-Order Density-Fitted Moller-Plesset Theory     
	              RMP2 Wavefunction,   6 Threads             
	                                                         
	        Rob Parrish, Justin Turney, Andy Simmonett,      
	           Ed Hohenstein, and C. David Sherrill          
	 --------------------------------------------------------

   => Auxiliary Basis Set <=

  Basis Set: (AUG-CC-PVTZ AUX)
    Blend: AUG-CC-PVTZ-RI
    Number of shells: 308
    Number of basis functions: 1096
    Number of Cartesian functions: 1366
    Spherical Harmonics?: true
    Max angular momentum: 4

	 --------------------------------------------------------
	                 NBF =   506, NAUX =  1096
	 --------------------------------------------------------
	   CLASS    FOCC     OCC    AOCC    AVIR     VIR    FVIR
	   PAIRS       0       5       5     501     501       0
	 --------------------------------------------------------

	-----------------------------------------------------------
	 ==================> DF-MP2 Energies <==================== 
	-----------------------------------------------------------
	 Reference Energy          =     -99.4511201008731263 [Eh]
	 Singles Energy            =      -0.0000000000000000 [Eh]
	 Same-Spin Energy          =      -0.0820608319214443 [Eh]
	 Opposite-Spin Energy      =      -0.2302405304656099 [Eh]
	 Correlation Energy        =      -0.3123013623870542 [Eh]
	 Total Energy              =     -99.7634214632601868 [Eh]
	-----------------------------------------------------------
	 ================> DF-SCS-MP2 Energies <================== 
	-----------------------------------------------------------
	 SCS Same-Spin Scale       =       0.3333333333333333 [-]
	 SCS Opposite-Spin Scale   =       1.2000000000000000 [-]
	 SCS Same-Spin Energy      =      -0.0273536106404814 [Eh]
	 SCS Opposite-Spin Energy  =      -0.2762886365587319 [Eh]
	 SCS Correlation Energy    =      -0.3036422471992133 [Eh]
	 SCS Total Energy          =     -99.7547623480723331 [Eh]
	-----------------------------------------------------------


*** tstop() called on moses-razer at Sat Jan  6 22:43:01 2024
Module time:
	user time   =      10.36 seconds =       0.17 minutes
	system time =       0.60 seconds =       0.01 minutes
	total time  =          2 seconds =       0.03 minutes
Total time:
	user time   =     106.61 seconds =       1.78 minutes
	system time =       4.39 seconds =       0.07 minutes
	total time  =         21 seconds =       0.35 minutes

    Psi4 stopped on: Saturday, 06 January 2024 10:43PM
    Psi4 wall time for execution: 0:00:08.48


    -----------------------------------------------------------------------
          Psi4: An Open-Source Ab Initio Electronic Structure Package
                               Psi4 1.9 release

                         Git: Rev {} zzzzzzz 


    D. G. A. Smith, L. A. Burns, A. C. Simmonett, R. M. Parrish,
    M. C. Schieber, R. Galvelis, P. Kraus, H. Kruse, R. Di Remigio,
    A. Alenaizan, A. M. James, S. Lehtola, J. P. Misiewicz, M. Scheurer,
    R. A. Shaw, J. B. Schriber, Y. Xie, Z. L. Glick, D. A. Sirianni,
    J. S. O'Brien, J. M. Waldrop, A. Kumar, E. G. Hohenstein,
    B. P. Pritchard, B. R. Brooks, H. F. Schaefer III, A. Yu. Sokolov,
    K. Patkowski, A. E. DePrince III, U. Bozkaya, R. A. King,
    F. A. Evangelista, J. M. Turney, T. D. Crawford, C. D. Sherrill,
    J. Chem. Phys. 152(18) 184108 (2020). https://doi.org/10.1063/5.0006002

                            Additional Code Authors
    E. T. Seidl, C. L. Janssen, E. F. Valeev, M. L. Leininger,
    J. F. Gonthier, R. M. Richard, H. R. McAlexander, M. Saitow, X. Wang,
    P. Verma, M. H. Lechner, A. Jiang, S. Behnle, A. G. Heide,
    M. F. Herbst, and D. L. Poole

             Previous Authors, Complete List of Code Contributors,
                       and Citations for Specific Modules
    https://github.com/psi4/psi4/blob/master/codemeta.json
    https://github.com/psi4/psi4/graphs/contributors
    http://psicode.org/psi4manual/master/introduction.html#citing-psifour

    -----------------------------------------------------------------------


    Psi4 started on: Saturday, 06 January 2024 10:42PM

    Process ID: 558568
    Host:       moses-razer
    PSIDATADIR: /home/kchung25/anaconda3/envs/psi4_19/share/psi4
    Memory:     55.9 GiB
    Threads:    6
    
  ==> Input QCSchema <==

--------------------------------------------------------------------------
{'driver': 'energy',
 'extras': {'psiapi': True, 'wfn_qcvars_only': True},
 'id': None,
 'keywords': {'SCF_TYPE': 'DF', 'function_kwargs': {}},
 'model': {'basis': 'aug-cc-pvtz', 'method': 'mp2'},
 'molecule': {'atom_labels': ['', '', '', '', '', '', '', '', '', '', '', '', '', '', '', ''],
              'atomic_numbers': [9, 8, 1, 1, 8, 1, 1, 8, 1, 1, 8, 1, 1, 8, 1, 1],
              'extras': {},
              'fix_com': True,
              'fix_orientation': True,
              'fix_symmetry': 'c1',
              'fragment_charges': [-1.0, 0.0],
              'fragment_multiplicities': [1, 1],
              'fragments': [[0], [1, 2, 3, 4, 5, 6, 7, 8, 9, 10, 11, 12, 13, 14, 15]],
              'geometry': [0.0, 0.0, 0.0, 1.0291864218990934, 3.679563217650081, -3.6490498099023134,
                           -0.5739079345754169, 4.556885578929006, -3.225579192722343, 1.1427287264211015,
                           2.216416308848601, -2.4629915531505895, -4.022219697074847, 0.7352111771922463,
                           3.270420503953332, -2.6076217421625043, 0.3635096072191933, 2.218300365795683,
                           -3.627246149866781, 0.12703494905777704, 4.936159281486769, -0.16162638578428257,
                           -5.1114181515401045, -2.850264466397414, -1.2409623596007757, -6.437828257355707,
                           -2.0772549872437613, -0.5048837981169443, -3.706631654671139, -1.7765995606834206,
                           2.9287240054002983, 3.3190752825054948, 2.740380671654293, 1.9775851622087388,
                           1.989581143653145, 2.029936245062297, 2.8296003112155335, 4.606538132875412,
                           1.5125481291731984, -4.110328177674318, -0.34975051129973483, -2.7085784706889635,
                           -4.951885582302828, 1.2356125449396047, -3.3172687043295563, -2.5180260471022975,
                           0.08772297646987784, -1.9190981386258192],
              'mass_numbers': [19, 16, 1, 1, 16, 1, 1, 16, 1, 1, 16, 1, 1, 16, 1, 1],
              'masses': [18.99840316273, 15.99491461957, 1.00782503223, 1.00782503223, 15.99491461957, 1.00782503223,
                         1.00782503223, 15.99491461957, 1.00782503223, 1.00782503223, 15.99491461957, 1.00782503223,
                         1.00782503223, 15.99491461957, 1.00782503223, 1.00782503223],
              'molecular_charge': -1.0,
              'molecular_multiplicity': 1,
              'name': 'dimer',
              'provenance': {'creator': 'QCElemental',
                             'routine': 'qcelemental.molparse.from_string',
                             'version': '0.27.1'},
              'real': [True, True, True, True, True, True, True, True, True, True, True, True, True, True, True, True],
              'schema_name': 'qcschema_molecule',
              'schema_version': 2,
              'symbols': ['F', 'O', 'H', 'H', 'O', 'H', 'H', 'O', 'H', 'H', 'O', 'H', 'H', 'O', 'H', 'H'],
              'validated': True},
 'protocols': {'stdout': True},
 'provenance': {'creator': 'QCElemental', 'routine': 'qcelemental.models.results', 'version': '0.27.1'},
 'schema_name': 'qcschema_input',
 'schema_version': 1}
--------------------------------------------------------------------------

Scratch directory: /scratch/
   => Libint2 <=

    Primary   basis highest AM E, G, H:  5, 4, 3
    Auxiliary basis highest AM E, G, H:  6, 5, 4
    Onebody   basis highest AM E, G, H:  6, 5, 4
    Solid Harmonics ordering:            gaussian

*** tstart() called on moses-razer
*** at Sat Jan  6 22:43:01 2024

   => Loading Basis Set <=

    Name: AUG-CC-PVTZ
    Role: ORBITAL
    Keyword: BASIS
    atoms 1                            entry F          line   377 file /home/kchung25/anaconda3/envs/p415env/share/psi4/basis/aug-cc-pvtz.gbs 
    atoms 2, 5, 8, 11, 14              entry O          line   331 file /home/kchung25/anaconda3/envs/p415env/share/psi4/basis/aug-cc-pvtz.gbs 
    atoms 3-4, 6-7, 9-10, 12-13, 15-16 entry H          line    40 file /home/kchung25/anaconda3/envs/p415env/share/psi4/basis/aug-cc-pvtz.gbs 


         ---------------------------------------------------------
                                   SCF
               by Justin Turney, Rob Parrish, Andy Simmonett
                          and Daniel G. A. Smith
                              RHF Reference
                        6 Threads,  57220 MiB Core
         ---------------------------------------------------------

  ==> Geometry <==

    Molecular point group: c1
    Full point group: C1

    Geometry (in Bohr), charge = -1, multiplicity = 1:

       Center              X                  Y                   Z               Mass       
    ------------   -----------------  -----------------  -----------------  -----------------
         F            0.000000000000     0.000000000000     0.000000000000    18.998403162730
         O            1.029186421899     3.679563217650    -3.649049809902    15.994914619570
         H           -0.573907934575     4.556885578929    -3.225579192722     1.007825032230
         H            1.142728726421     2.216416308849    -2.462991553151     1.007825032230
         O           -4.022219697075     0.735211177192     3.270420503953    15.994914619570
         H           -2.607621742163     0.363509607219     2.218300365796     1.007825032230
         H           -3.627246149867     0.127034949058     4.936159281487     1.007825032230
         O           -0.161626385784    -5.111418151540    -2.850264466397    15.994914619570
         H           -1.240962359601    -6.437828257356    -2.077254987244     1.007825032230
         H           -0.504883798117    -3.706631654671    -1.776599560683     1.007825032230
         O            2.928724005400     3.319075282505     2.740380671654    15.994914619570
         H            1.977585162209     1.989581143653     2.029936245062     1.007825032230
         H            2.829600311216     4.606538132875     1.512548129173     1.007825032230
         O           -4.110328177674    -0.349750511300    -2.708578470689    15.994914619570
         H           -4.951885582303     1.235612544940    -3.317268704330     1.007825032230
         H           -2.518026047102     0.087722976470    -1.919098138626     1.007825032230

  Running in c1 symmetry.

  Rotational constants: A =      0.04634  B =      0.03407  C =      0.03092 [cm^-1]
  Rotational constants: A =   1389.24999  B =   1021.46632  C =    926.94759 [MHz]
  Nuclear repulsion =  265.997296713575111

  Charge       = -1
  Multiplicity = 1
  Electrons    = 60
  Nalpha       = 30
  Nbeta        = 30

  ==> Algorithm <==

  SCF Algorithm Type is DF.
  DIIS enabled.
  MOM disabled.
  Fractional occupation disabled.
  Guess Type is SAD.
  Energy threshold   = 1.00e-08
  Density threshold  = 1.00e-08
  Integral threshold = 1.00e-12

  ==> Primary Basis <==

  Basis Set: AUG-CC-PVTZ
    Blend: AUG-CC-PVTZ
    Number of shells: 174
    Number of basis functions: 506
    Number of Cartesian functions: 580
    Spherical Harmonics?: true
    Max angular momentum: 3

   => Loading Basis Set <=

    Name: (AUG-CC-PVTZ AUX)
    Role: JKFIT
    Keyword: DF_BASIS_SCF
    atoms 1                            entry F          line   348 file /home/kchung25/anaconda3/envs/p415env/share/psi4/basis/aug-cc-pvtz-jkfit.gbs 
    atoms 2, 5, 8, 11, 14              entry O          line   286 file /home/kchung25/anaconda3/envs/p415env/share/psi4/basis/aug-cc-pvtz-jkfit.gbs 
    atoms 3-4, 6-7, 9-10, 12-13, 15-16 entry H          line    70 file /home/kchung25/anaconda3/envs/p415env/share/psi4/basis/aug-cc-pvtz-jkfit.gbs 

  ==> Integral Setup <==

  DFHelper Memory: AOs need 1.937 GiB; user supplied 41.910 GiB. 
  Using in-core AOs.

  ==> MemDFJK: Density-Fitted J/K Matrices <==

    J tasked:                   Yes
    K tasked:                   Yes
    wK tasked:                   No
    OpenMP threads:               6
    Memory [MiB]:             42915
    Algorithm:                 Core
    Schwarz Cutoff:           1E-12
    Mask sparsity (%):       9.8002
    Fitting Condition:        1E-10

   => Auxiliary Basis Set <=

  Basis Set: (AUG-CC-PVTZ AUX)
    Blend: AUG-CC-PVTZ-JKFIT
    Number of shells: 320
    Number of basis functions: 1084
    Number of Cartesian functions: 1336
    Spherical Harmonics?: true
    Max angular momentum: 4

  Minimum eigenvalue in the overlap matrix is 8.2032168945E-05.
  Reciprocal condition number of the overlap matrix is 5.7806872784E-06.
    Using symmetric orthogonalization.

  ==> Pre-Iterations <==

  SCF Guess: Superposition of Atomic Densities via on-the-fly atomic UHF (no occupation information).

   -------------------------
    Irrep   Nso     Nmo    
   -------------------------
     A        506     506 
   -------------------------
    Total     506     506
   -------------------------

  ==> Iterations <==

                           Total Energy        Delta E     RMS |[F,P]|

   @DF-RHF iter SAD:  -476.62657827945640   -4.76627e+02   0.00000e+00 
   @DF-RHF iter   1:  -479.40397863392514   -2.77740e+00   2.16273e-03 ADIIS/DIIS
   @DF-RHF iter   2:  -479.68891116353512   -2.84933e-01   1.46000e-03 ADIIS/DIIS
   @DF-RHF iter   3:  -479.85185634225797   -1.62945e-01   9.68786e-05 DIIS
   @DF-RHF iter   4:  -479.85391536756941   -2.05903e-03   2.65346e-05 DIIS
   @DF-RHF iter   5:  -479.85403772736606   -1.22360e-04   1.13312e-05 DIIS
   @DF-RHF iter   6:  -479.85405677155507   -1.90442e-05   3.24703e-06 DIIS
   @DF-RHF iter   7:  -479.85405943306159   -2.66151e-06   8.29237e-07 DIIS
   @DF-RHF iter   8:  -479.85405963021663   -1.97155e-07   3.59567e-07 DIIS
   @DF-RHF iter   9:  -479.85405964839407   -1.81774e-08   7.44552e-08 DIIS
   @DF-RHF iter  10:  -479.85405965001019   -1.61612e-09   1.38117e-08 DIIS
   @DF-RHF iter  11:  -479.85405965006669   -5.65024e-11   4.85109e-09 DIIS
  Energy and wave function converged.


  ==> Post-Iterations <==

    Orbital Energies [Eh]
    ---------------------

    Doubly Occupied:                                                      

       1A    -25.997250     2A    -20.415989     3A    -20.413372  
       4A    -20.398263     5A    -20.394545     6A    -20.390962  
       7A     -1.267304     8A     -1.194984     9A     -1.193798  
      10A     -1.187102    11A     -1.178739    12A     -1.163273  
      13A     -0.565633    14A     -0.563256    15A     -0.552839  
      16A     -0.548688    17A     -0.540445    18A     -0.441306  
      19A     -0.436137    20A     -0.432707    21A     -0.423104  
      22A     -0.406116    23A     -0.360221    24A     -0.358172  
      25A     -0.353629    26A     -0.352333    27A     -0.347018  
      28A     -0.345607    29A     -0.342410    30A     -0.329400  

    Virtual:                                                              

      31A      0.119259    32A      0.126076    33A      0.129616  
      34A      0.140678    35A      0.154110    36A      0.170286  
      37A      0.174804    38A      0.189950    39A      0.199067  
      40A      0.205470    41A      0.245830    42A      0.256533  
      43A      0.267064    44A      0.271893    45A      0.278515  
      46A      0.282726    47A      0.288513    48A      0.291324  
      49A      0.298496    50A      0.311270    51A      0.315718  
      52A      0.328183    53A      0.333494    54A      0.336282  
      55A      0.349589    56A      0.351595    57A      0.360986  
      58A      0.364405    59A      0.370768    60A      0.375514  
      61A      0.383623    62A      0.390940    63A      0.398077  
      64A      0.399160    65A      0.422178    66A      0.435953  
      67A      0.447004    68A      0.453881    69A      0.455558  
      70A      0.462881    71A      0.476229    72A      0.482640  
      73A      0.486674    74A      0.503600    75A      0.505346  
      76A      0.513875    77A      0.522652    78A      0.531238  
      79A      0.545583    80A      0.554538    81A      0.560580  
      82A      0.563832    83A      0.569527    84A      0.573634  
      85A      0.585981    86A      0.592790    87A      0.603736  
      88A      0.607095    89A      0.618061    90A      0.623835  
      91A      0.644959    92A      0.646610    93A      0.663664  
      94A      0.672569    95A      0.685772    96A      0.691184  
      97A      0.705885    98A      0.711924    99A      0.725897  
     100A      0.732914   101A      0.748442   102A      0.753106  
     103A      0.778623   104A      0.786117   105A      0.805690  
     106A      0.824511   107A      0.836776   108A      0.844390  
     109A      0.858083   110A      0.863666   111A      0.875826  
     112A      0.882534   113A      0.887993   114A      0.892088  
     115A      0.896227   116A      0.906174   117A      0.910567  
     118A      0.916829   119A      0.926941   120A      0.931487  
     121A      0.934935   122A      0.946357   123A      0.962462  
     124A      0.974381   125A      0.979616   126A      0.985118  
     127A      0.994072   128A      1.007822   129A      1.016679  
     130A      1.027124   131A      1.034675   132A      1.047652  
     133A      1.049088   134A      1.056629   135A      1.067706  
     136A      1.075224   137A      1.086632   138A      1.091568  
     139A      1.095144   140A      1.095739   141A      1.106239  
     142A      1.112817   143A      1.123866   144A      1.124889  
     145A      1.129644   146A      1.138747   147A      1.139849  
     148A      1.143274   149A      1.158282   150A      1.164756  
     151A      1.170289   152A      1.181951   153A      1.185641  
     154A      1.199854   155A      1.206282   156A      1.212878  
     157A      1.218400   158A      1.224983   159A      1.235693  
     160A      1.248454   161A      1.257264   162A      1.268179  
     163A      1.275087   164A      1.295497   165A      1.302261  
     166A      1.313721   167A      1.324946   168A      1.327805  
     169A      1.343415   170A      1.345051   171A      1.357887  
     172A      1.369379   173A      1.383810   174A      1.384252  
     175A      1.400018   176A      1.401419   177A      1.420086  
     178A      1.422854   179A      1.443233   180A      1.449442  
     181A      1.461929   182A      1.468344   183A      1.482525  
     184A      1.491540   185A      1.501566   186A      1.515635  
     187A      1.527058   188A      1.542122   189A      1.559448  
     190A      1.578414   191A      1.584948   192A      1.590597  
     193A      1.606265   194A      1.614651   195A      1.619225  
     196A      1.640668   197A      1.651218   198A      1.661025  
     199A      1.673116   200A      1.684930   201A      1.712084  
     202A      1.720766   203A      1.727564   204A      1.732324  
     205A      1.742883   206A      1.749579   207A      1.763834  
     208A      1.782165   209A      1.797367   210A      1.809471  
     211A      1.813712   212A      1.832199   213A      1.844876  
     214A      1.855795   215A      1.869379   216A      1.900580  
     217A      1.908907   218A      1.931517   219A      1.935110  
     220A      1.950424   221A      1.972206   222A      1.993345  
     223A      2.000938   224A      2.014107   225A      2.022739  
     226A      2.054802   227A      2.087002   228A      2.090724  
     229A      2.093374   230A      2.124388   231A      2.134007  
     232A      2.147409   233A      2.166730   234A      2.195853  
     235A      2.201103   236A      2.204978   237A      2.248879  
     238A      2.273678   239A      2.296021   240A      2.399092  
     241A      2.419238   242A      2.441789   243A      2.464148  
     244A      2.474045   245A      2.486339   246A      2.517272  
     247A      2.519225   248A      2.541014   249A      2.555366  
     250A      2.559558   251A      2.578611   252A      2.586210  
     253A      2.598255   254A      2.615271   255A      2.628052  
     256A      2.635206   257A      2.636440   258A      2.646128  
     259A      2.652738   260A      2.661853   261A      2.668702  
     262A      2.685535   263A      2.688246   264A      2.699578  
     265A      2.704256   266A      2.717097   267A      2.735295  
     268A      2.736744   269A      2.762313   270A      2.764634  
     271A      2.790137   272A      2.796688   273A      2.811195  
     274A      2.832080   275A      2.839121   276A      2.849493  
     277A      2.866351   278A      2.881143   279A      2.884266  
     280A      2.898131   281A      2.914261   282A      2.919831  
     283A      2.944647   284A      2.954644   285A      2.966387  
     286A      2.982379   287A      2.987109   288A      2.987864  
     289A      3.014094   290A      3.029631   291A      3.046888  
     292A      3.063916   293A      3.072880   294A      3.103585  
     295A      3.119817   296A      3.122106   297A      3.158783  
     298A      3.177852   299A      3.194027   300A      3.211536  
     301A      3.223470   302A      3.238727   303A      3.243470  
     304A      3.262654   305A      3.274463   306A      3.310885  
     307A      3.348208   308A      3.440968   309A      3.488467  
     310A      3.606936   311A      3.615150   312A      3.704774  
     313A      3.741242   314A      3.747947   315A      3.779859  
     316A      3.818309   317A      3.841615   318A      3.873067  
     319A      3.892824   320A      3.922140   321A      3.939117  
     322A      3.949431   323A      3.983577   324A      4.021366  
     325A      4.178749   326A      4.199704   327A      4.232286  
     328A      4.238610   329A      4.249657   330A      4.259458  
     331A      4.273663   332A      4.296581   333A      4.305200  
     334A      4.320281   335A      4.351860   336A      4.367937  
     337A      4.410817   338A      4.427467   339A      4.430471  
     340A      4.446484   341A      4.452299   342A      4.464732  
     343A      4.469097   344A      4.483374   345A      4.489860  
     346A      4.505315   347A      4.513194   348A      4.525980  
     349A      4.533361   350A      4.547442   351A      4.550272  
     352A      4.561869   353A      4.566569   354A      4.590007  
     355A      4.598003   356A      4.601581   357A      4.610751  
     358A      4.628701   359A      4.637880   360A      4.642508  
     361A      4.667434   362A      4.686944   363A      4.694397  
     364A      4.718209   365A      4.725178   366A      4.735886  
     367A      4.739110   368A      4.780094   369A      4.789237  
     370A      4.801239   371A      4.842684   372A      4.861431  
     373A      4.874004   374A      4.913710   375A      4.937561  
     376A      4.962636   377A      4.967490   378A      4.977668  
     379A      5.032290   380A      5.066561   381A      5.106751  
     382A      5.134115   383A      5.142653   384A      5.223239  
     385A      5.275396   386A      5.276772   387A      5.318349  
     388A      5.334019   389A      5.346101   390A      5.361192  
     391A      5.380137   392A      5.387851   393A      5.406740  
     394A      5.410945   395A      5.457024   396A      5.463845  
     397A      5.475518   398A      5.478377   399A      5.546866  
     400A      5.564148   401A      5.571163   402A      5.596475  
     403A      5.629394   404A      5.688075   405A      5.707051  
     406A      5.719677   407A      5.742944   408A      5.771300  
     409A      5.789194   410A      5.839157   411A      5.865416  
     412A      5.905992   413A      5.991652   414A      6.020631  
     415A      6.025130   416A      6.327513   417A      6.405246  
     418A      6.425890   419A      6.445644   420A      6.469387  
     421A      6.487131   422A      6.658938   423A      6.667736  
     424A      6.719149   425A      6.758346   426A      6.764024  
     427A      6.786654   428A      6.847072   429A      6.941723  
     430A      6.968886   431A      6.969940   432A      7.018226  
     433A      7.038343   434A      7.087556   435A      7.131430  
     436A      7.141741   437A      7.178599   438A      7.226072  
     439A      7.276078   440A      7.318222   441A      7.344284  
     442A      7.355924   443A      7.383186   444A      7.422944  
     445A      7.432791   446A      7.452990   447A      7.465821  
     448A      7.477060   449A      7.493797   450A      7.502472  
     451A      7.510571   452A      7.524430   453A      7.528673  
     454A      7.545743   455A      7.553526   456A      7.564228  
     457A      7.576236   458A      7.584170   459A      7.591722  
     460A      7.615825   461A      7.621996   462A      7.635047  
     463A      7.647219   464A      7.663736   465A      7.695558  
     466A      7.712475   467A      7.733134   468A      7.787536  
     469A      7.816144   470A      7.846962   471A      7.977533  
     472A      8.003292   473A      8.012748   474A      8.087010  
     475A      8.128367   476A      8.135739   477A      8.154244  
     478A      8.175884   479A      8.182183   480A      8.219872  
     481A      8.256499   482A      8.282006   483A      8.298044  
     484A      8.810006   485A      8.893844   486A      8.945941  
     487A      9.020811   488A      9.109304   489A      9.420929  
     490A      9.458631   491A      9.488112   492A      9.521818  
     493A      9.672984   494A      9.815008   495A      9.920595  
     496A      9.971409   497A     10.030317   498A     10.094843  
     499A     10.171127   500A     10.324264   501A     15.300791  
     502A     16.091549   503A     16.407019   504A     16.921196  
     505A     17.619620   506A     18.042732  

    Final Occupation by Irrep:
              A 
    DOCC [    30 ]
    NA   [    30 ]
    NB   [    30 ]

  @DF-RHF Final Energy:  -479.85405965006669

   => Energetics <=

    Nuclear Repulsion Energy =            265.9972967135751105
    One-Electron Energy =               -1205.9135005870380155
    Two-Electron Energy =                 460.0621442233962171
    Total Energy =                       -479.8540596500666879

Computation Completed


Properties will be evaluated at   0.000000,   0.000000,   0.000000 [a0]

Properties computed using the SCF density matrix


 Multipole Moments:

 ------------------------------------------------------------------------------------
     Multipole            Electronic (a.u.)      Nuclear  (a.u.)        Total (a.u.)
 ------------------------------------------------------------------------------------

 L = 1.  Multiply by 2.5417464519 to convert [e a0] to [Debye]
 Dipole X            :         44.6479024          -44.7647301           -0.1168277
 Dipole Y            :        -23.3823909           23.2202894           -0.1621015
 Dipole Z            :         30.5466127          -29.6585807            0.8880320
 Magnitude           :                                                    0.9102342

 ------------------------------------------------------------------------------------

*** tstop() called on moses-razer at Sat Jan  6 22:43:10 2024
Module time:
	user time   =      48.39 seconds =       0.81 minutes
	system time =       1.73 seconds =       0.03 minutes
	total time  =          9 seconds =       0.15 minutes
Total time:
	user time   =     155.33 seconds =       2.59 minutes
	system time =       6.13 seconds =       0.10 minutes
	total time  =         30 seconds =       0.50 minutes

*** tstart() called on moses-razer
*** at Sat Jan  6 22:43:10 2024


  //>>>>>>>>>>>>>>>>>>>>>>>>>>>>>>>>>>>//
  //               DFMP2               //
  //<<<<<<<<<<<<<<<<<<<<<<<<<<<<<<<<<<<//

   => Loading Basis Set <=

    Name: (AUG-CC-PVTZ AUX)
    Role: RIFIT
    Keyword: DF_BASIS_MP2
    atoms 1                            entry F          line   322 file /home/kchung25/anaconda3/envs/p415env/share/psi4/basis/aug-cc-pvtz-ri.gbs 
    atoms 2, 5, 8, 11, 14              entry O          line   264 file /home/kchung25/anaconda3/envs/p415env/share/psi4/basis/aug-cc-pvtz-ri.gbs 
    atoms 3-4, 6-7, 9-10, 12-13, 15-16 entry H          line    30 file /home/kchung25/anaconda3/envs/p415env/share/psi4/basis/aug-cc-pvtz-ri.gbs 

	 --------------------------------------------------------
	                          DF-MP2                         
	      2nd-Order Density-Fitted Moller-Plesset Theory     
	              RMP2 Wavefunction,   6 Threads             
	                                                         
	        Rob Parrish, Justin Turney, Andy Simmonett,      
	           Ed Hohenstein, and C. David Sherrill          
	 --------------------------------------------------------

   => Auxiliary Basis Set <=

  Basis Set: (AUG-CC-PVTZ AUX)
    Blend: AUG-CC-PVTZ-RI
    Number of shells: 308
    Number of basis functions: 1096
    Number of Cartesian functions: 1366
    Spherical Harmonics?: true
    Max angular momentum: 4

	 --------------------------------------------------------
	                 NBF =   506, NAUX =  1096
	 --------------------------------------------------------
	   CLASS    FOCC     OCC    AOCC    AVIR     VIR    FVIR
	   PAIRS       0      30      30     476     476       0
	 --------------------------------------------------------

	-----------------------------------------------------------
	 ==================> DF-MP2 Energies <==================== 
	-----------------------------------------------------------
	 Reference Energy          =    -479.8540596500666879 [Eh]
	 Singles Energy            =      -0.0000000000000000 [Eh]
	 Same-Spin Energy          =      -0.4330957617615255 [Eh]
	 Opposite-Spin Energy      =      -1.3165037726509476 [Eh]
	 Correlation Energy        =      -1.7495995344124733 [Eh]
	 Total Energy              =    -481.6036591844791701 [Eh]
	-----------------------------------------------------------
	 ================> DF-SCS-MP2 Energies <================== 
	-----------------------------------------------------------
	 SCS Same-Spin Scale       =       0.3333333333333333 [-]
	 SCS Opposite-Spin Scale   =       1.2000000000000000 [-]
	 SCS Same-Spin Energy      =      -0.1443652539205085 [Eh]
	 SCS Opposite-Spin Energy  =      -1.5798045271811372 [Eh]
	 SCS Correlation Energy    =      -1.7241697811016456 [Eh]
	 SCS Total Energy          =    -481.5782294311683245 [Eh]
	-----------------------------------------------------------


*** tstop() called on moses-razer at Sat Jan  6 22:43:14 2024
Module time:
	user time   =      20.31 seconds =       0.34 minutes
	system time =       1.03 seconds =       0.02 minutes
	total time  =          4 seconds =       0.07 minutes
Total time:
	user time   =     175.64 seconds =       2.93 minutes
	system time =       7.16 seconds =       0.12 minutes
	total time  =         34 seconds =       0.57 minutes

    Psi4 stopped on: Saturday, 06 January 2024 10:43PM
    Psi4 wall time for execution: 0:00:13.04


  //>>>>>>>>>>>>>>>>>>>>>>>>>>>>>>>>>>>//
  //          ManyBody Results         //
  //<<<<<<<<<<<<<<<<<<<<<<<<<<<<<<<<<<<//


   ==> N-Body: Counterpoise Corrected (CP) energies <==

        n-Body     Total Energy            Interaction Energy                          N-body Contribution to Interaction Energy
                   [Eh]                    [Eh]                  [kcal/mol]            [Eh]                  [kcal/mol]
             1  N/A                         0.000000000000        0.000000000000        0.000000000000        0.000000000000
  FULL/RTN   2  N/A                        -0.134012418786      -84.094062392004       -0.134012418786      -84.094062392004


    Psi4 stopped on: Saturday, 06 January 2024 10:43PM
    Psi4 wall time for execution: 0:00:35.50

*** Psi4 exiting successfully. Buy a developer a beer!
